|===============================================================================
|
|  DFTB+ release 20.1
|
|  Copyright (C) 2006 - 2020  DFTB+ developers group
|
|===============================================================================
|
|  When publishing results obtained with DFTB+, please cite the following
|  reference:
|
|  * DFTB+, a software package for efficient approximate density functional
|    theory based atomistic simulations, J. Chem. Phys. 152, 124101 (2020).
|    [doi: 10.1063/1.5143190]
|
|  You should also cite additional publications crediting the parametrization
|  data you use. Please consult the documentation of the SK-files for the
|  references.
|
|===============================================================================

Reading input file 'dftb_in.hsd'
Parser version: 8

--------------------------------------------------------------------------------
Reading SK-files:
Done.


Processed input in HSD format written to 'dftb_pin.hsd'

Starting initialization...
--------------------------------------------------------------------------------
OpenMP threads:              1
Chosen random seed:          497851244
Mode:                        Static calculation
Self consistent charges:     Yes
SCC-tolerance:                 0.100000E-05
Max. scc iterations:                   1000
Shell resolved Hubbard:      No
Spin polarisation:           No
Nr. of up electrons:            16.000000
Nr. of down electrons:          16.000000
Periodic boundaries:         No
Electronic solver:           Relatively robust
Maximal SCC-cycles:                    1000
Initial charges:             Set automatically (system chrg:   0.100E+01)
Included shells:             C:  s, p
                             H:  s
                             N:  s, p
Spin coupling constants:     C   1(s)-1(s):  -0.455900E-01
                             C   1(s)-2(p):  -0.293000E-01
                             C   2(p)-1(s):  -0.293000E-01
                             C   2(p)-2(p):  -0.275500E-01
                             H   1(s)-1(s):  -0.792500E-01
                             N   1(s)-1(s):  -0.468700E-01
                             N   1(s)-2(p):  -0.317000E-01
                             N   2(p)-1(s):  -0.317000E-01
                             N   2(p)-2(p):  -0.307200E-01
Range separated hybrid:      Yes
  Screening parameter omega:   0.300000E+00
  Range separated algorithm:   MatrixBased
Extra options:
                             Mulliken analysis
                             Force calculation
Force type                   original
                             Eigenvector printing


REKS Calcuation:             Yes
SSR(2,2) Calcuation:         Yes
Energy Functional:           (PPS+OSS)/2
Number of Core Orbitals:                 15
Number of Active Orbitals:                2
Number of Basis:                         32
Number of States:                         2
State-Averaging Weight:          0.500000
                                 0.500000
State of Interest:                        1
Initial Guess:               Diagonalize H0 matrix
Newton-Raphson for FON opt:  Yes
NR max. Iterations:                      50
Level Shifting:              Yes
Shift Value:                     0.300000
W Scale Factor:              C  =    3.200000
                             H  =    3.200000
                             N  =    3.200000
Transition Dipole:           No
Gradient of Microstate:      No
CP-REKS Solver:              Preconditioned Conjugate-Gradient
CG max. Iterations:                     100
CG Tolerance:                  0.100000E-07
Memory for A and Hxc:        Direct Updating Without Saving
Non-Adiabatic Coupling:      Yes

--------------------------------------------------------------------------------

***  Geometry step: 0

  iSCC       reks energy        Diff energy         x_a       SCC error   
    1      -16.3344670781       0.0000000000     0.956769    1.24071165
    2      -16.3575472502      -0.0230801721     0.993152    0.06011390
    3      -16.3640181402      -0.0064708900     0.998538    0.03645949
    4      -16.3664265233      -0.0024083831     0.999415    0.02149169
    5      -16.3674978295      -0.0010713062     0.999669    0.01312620
    6      -16.3680432140      -0.0005453845     0.999774    0.00858135
    7      -16.3683485314      -0.0003053174     0.999827    0.00595430
    8      -16.3685303405      -0.0001818091     0.999857    0.00432000
    9      -16.3686429139      -0.0001125735     0.999876    0.00324055
   10      -16.3687145058      -0.0000715919     0.999889    0.00249381
   11      -16.3687610254      -0.0000465195     0.999898    0.00195849
   12      -16.3687918784      -0.0000308531     0.999904    0.00156408
   13      -16.3688127921      -0.0000209136     0.999908    0.00126733
   14      -16.3688273191      -0.0000145271     0.999912    0.00104038
   15      -16.3688376931      -0.0000103740     0.999914    0.00086453
   16      -16.3688453332      -0.0000076401     0.999916    0.00072676
   17      -16.3688511497      -0.0000058165     0.999918    0.00061775
   18      -16.3688557318      -0.0000045821     0.999919    0.00053072
   19      -16.3688594642      -0.0000037325     0.999921    0.00046061
   20      -16.3688626009      -0.0000031367     0.999922    0.00040932
   21      -16.3688653107      -0.0000027098     0.999922    0.00037702
   22      -16.3688677075      -0.0000023967     0.999923    0.00034968
   23      -16.3688698686      -0.0000021611     0.999924    0.00033202
   24      -16.3688718475      -0.0000019790     0.999924    0.00035043
   25      -16.3688736817      -0.0000018342     0.999925    0.00036427
   26      -16.3688753978      -0.0000017161     0.999926    0.00037445
   27      -16.3688770150      -0.0000016172     0.999926    0.00038170
   28      -16.3688785474      -0.0000015325     0.999927    0.00038658
   29      -16.3688800059      -0.0000014585     0.999927    0.00038956
   30      -16.3688813987      -0.0000013927     0.999927    0.00039100
   31      -16.3688827321      -0.0000013335     0.999928    0.00039122
   32      -16.3688840115      -0.0000012794     0.999928    0.00039044
   33      -16.3688852412      -0.0000012296     0.999929    0.00038887
   34      -16.3688864246      -0.0000011834     0.999929    0.00038666
   35      -16.3688875649      -0.0000011403     0.999930    0.00038394
   36      -16.3688886647      -0.0000010998     0.999930    0.00038083
   37      -16.3688897264      -0.0000010617     0.999931    0.00037740
   38      -16.3688907521      -0.0000010257     0.999931    0.00037372
   39      -16.3688917437      -0.0000009916     0.999931    0.00036986
   40      -16.3688927029      -0.0000009592     0.999932    0.00036586
   41      -16.3688936312      -0.0000009284     0.999932    0.00036175
   42      -16.3688945302      -0.0000008990     0.999933    0.00035758
   43      -16.3688954012      -0.0000008709     0.999933    0.00035337
   44      -16.3688962453      -0.0000008442     0.999933    0.00034914
   45      -16.3688970639      -0.0000008186     0.999934    0.00034490
   46      -16.3688978580      -0.0000007941     0.999934    0.00034068
   47      -16.3688986286      -0.0000007706     0.999935    0.00033648
   48      -16.3688993767      -0.0000007481     0.999935    0.00033231
   49      -16.3689001032      -0.0000007265     0.999935    0.00032817
   50      -16.3689008090      -0.0000007058     0.999936    0.00032409
   51      -16.3689014949      -0.0000006859     0.999936    0.00032005
   52      -16.3689021617      -0.0000006668     0.999937    0.00031607
   53      -16.3689028101      -0.0000006484     0.999937    0.00031215
   54      -16.3689034408      -0.0000006307     0.999937    0.00030829
   55      -16.3689040546      -0.0000006137     0.999938    0.00030448
   56      -16.3689046519      -0.0000005973     0.999938    0.00030074
   57      -16.3689052334      -0.0000005815     0.999938    0.00029706
   58      -16.3689057997      -0.0000005663     0.999939    0.00029345
   59      -16.3689063514      -0.0000005517     0.999939    0.00028989
   60      -16.3689068889      -0.0000005375     0.999939    0.00028640
   61      -16.3689074128      -0.0000005239     0.999940    0.00028298
   62      -16.3689079235      -0.0000005107     0.999940    0.00027961
   63      -16.3689084215      -0.0000004980     0.999940    0.00027631
   64      -16.3689089072      -0.0000004857     0.999941    0.00027306
   65      -16.3689093810      -0.0000004738     0.999941    0.00026987
   66      -16.3689098434      -0.0000004624     0.999941    0.00026675
   67      -16.3689102947      -0.0000004513     0.999942    0.00026368
   68      -16.3689107353      -0.0000004406     0.999942    0.00026067
   69      -16.3689111655      -0.0000004302     0.999942    0.00025771
   70      -16.3689115856      -0.0000004202     0.999942    0.00025481
   71      -16.3689119961      -0.0000004104     0.999943    0.00025196
   72      -16.3689123971      -0.0000004010     0.999943    0.00024916
   73      -16.3689127891      -0.0000003919     0.999943    0.00024641
   74      -16.3689131722      -0.0000003831     0.999944    0.00024372
   75      -16.3689135467      -0.0000003746     0.999944    0.00024107
   76      -16.3689139130      -0.0000003663     0.999944    0.00023847
   77      -16.3689142712      -0.0000003582     0.999944    0.00023592
   78      -16.3689146216      -0.0000003504     0.999945    0.00023341
   79      -16.3689149645      -0.0000003429     0.999945    0.00023095
   80      -16.3689153000      -0.0000003355     0.999945    0.00022853
   81      -16.3689156284      -0.0000003284     0.999945    0.00022615
   82      -16.3689159499      -0.0000003215     0.999946    0.00022382
   83      -16.3689162647      -0.0000003148     0.999946    0.00022153
   84      -16.3689165730      -0.0000003083     0.999946    0.00021927
   85      -16.3689168749      -0.0000003019     0.999946    0.00021706
   86      -16.3689171706      -0.0000002958     0.999947    0.00021489
   87      -16.3689174604      -0.0000002898     0.999947    0.00021275
   88      -16.3689177444      -0.0000002840     0.999947    0.00021065
   89      -16.3689180227      -0.0000002783     0.999947    0.00020858
   90      -16.3689182955      -0.0000002728     0.999948    0.00020655
   91      -16.3689185630      -0.0000002675     0.999948    0.00020455
   92      -16.3689188252      -0.0000002622     0.999948    0.00020259
   93      -16.3689190824      -0.0000002572     0.999948    0.00020066
   94      -16.3689193346      -0.0000002522     0.999949    0.00019876
   95      -16.3689195821      -0.0000002474     0.999949    0.00019689
   96      -16.3689198249      -0.0000002428     0.999949    0.00019505
   97      -16.3689200631      -0.0000002382     0.999949    0.00019324
   98      -16.3689202969      -0.0000002338     0.999949    0.00019146
   99      -16.3689205263      -0.0000002295     0.999950    0.00018971
  100      -16.3689207516      -0.0000002252     0.999950    0.00018799
  101      -16.3689209727      -0.0000002211     0.999950    0.00018629
  102      -16.3689211898      -0.0000002171     0.999950    0.00018462
  103      -16.3689214031      -0.0000002132     0.999951    0.00018298
  104      -16.3689216125      -0.0000002094     0.999951    0.00018136
  105      -16.3689218182      -0.0000002057     0.999951    0.00017977
  106      -16.3689220203      -0.0000002021     0.999951    0.00017820
  107      -16.3689222189      -0.0000001986     0.999951    0.00017665
  108      -16.3689224140      -0.0000001951     0.999952    0.00017513
  109      -16.3689226058      -0.0000001917     0.999952    0.00017363
  110      -16.3689227942      -0.0000001885     0.999952    0.00017216
  111      -16.3689229795      -0.0000001853     0.999952    0.00017070
  112      -16.3689231616      -0.0000001821     0.999952    0.00016927
  113      -16.3689233407      -0.0000001791     0.999952    0.00016786
  114      -16.3689235167      -0.0000001761     0.999953    0.00016647
  115      -16.3689236899      -0.0000001732     0.999953    0.00016510
  116      -16.3689238602      -0.0000001703     0.999953    0.00016374
  117      -16.3689240277      -0.0000001675     0.999953    0.00016241
  118      -16.3689241925      -0.0000001648     0.999953    0.00016110
  119      -16.3689243546      -0.0000001621     0.999954    0.00015980
  120      -16.3689245141      -0.0000001595     0.999954    0.00015853
  121      -16.3689246711      -0.0000001570     0.999954    0.00015727
  122      -16.3689248256      -0.0000001545     0.999954    0.00015602
  123      -16.3689249776      -0.0000001520     0.999954    0.00015480
  124      -16.3689251273      -0.0000001497     0.999954    0.00015359
  125      -16.3689252746      -0.0000001473     0.999955    0.00015240
  126      -16.3689254196      -0.0000001450     0.999955    0.00015123
  127      -16.3689255624      -0.0000001428     0.999955    0.00015007
  128      -16.3689257030      -0.0000001406     0.999955    0.00014892
  129      -16.3689258415      -0.0000001385     0.999955    0.00014779
  130      -16.3689259779      -0.0000001364     0.999955    0.00014668
  131      -16.3689261122      -0.0000001343     0.999955    0.00014558
  132      -16.3689262445      -0.0000001323     0.999956    0.00014450
  133      -16.3689263749      -0.0000001303     0.999956    0.00014342
  134      -16.3689265033      -0.0000001284     0.999956    0.00014237
  135      -16.3689266298      -0.0000001265     0.999956    0.00014132
  136      -16.3689267545      -0.0000001247     0.999956    0.00014029
  137      -16.3689268774      -0.0000001229     0.999956    0.00013928
  138      -16.3689269985      -0.0000001211     0.999957    0.00013827
  139      -16.3689271178      -0.0000001193     0.999957    0.00013728
  140      -16.3689272354      -0.0000001176     0.999957    0.00013630
  141      -16.3689273514      -0.0000001160     0.999957    0.00013533
  142      -16.3689274657      -0.0000001143     0.999957    0.00013438
  143      -16.3689275784      -0.0000001127     0.999957    0.00013343
  144      -16.3689276896      -0.0000001111     0.999957    0.00013250
  145      -16.3689277992      -0.0000001096     0.999957    0.00013158
  146      -16.3689279072      -0.0000001081     0.999958    0.00013067
  147      -16.3689280138      -0.0000001066     0.999958    0.00012977
  148      -16.3689281189      -0.0000001051     0.999958    0.00012888
  149      -16.3689282226      -0.0000001037     0.999958    0.00012801
  150      -16.3689283248      -0.0000001023     0.999958    0.00012714
  151      -16.3689284257      -0.0000001009     0.999958    0.00012628
  152      -16.3689285253      -0.0000000995     0.999958    0.00012543
  153      -16.3689286235      -0.0000000982     0.999959    0.00012460
  154      -16.3689287204      -0.0000000969     0.999959    0.00012377
  155      -16.3689288160      -0.0000000956     0.999959    0.00012295
  156      -16.3689289103      -0.0000000943     0.999959    0.00012214
  157      -16.3689290034      -0.0000000931     0.999959    0.00012134
  158      -16.3689290953      -0.0000000919     0.999959    0.00012055
  159      -16.3689291860      -0.0000000907     0.999959    0.00011977
  160      -16.3689292756      -0.0000000895     0.999959    0.00011899
  161      -16.3689293639      -0.0000000884     0.999960    0.00011823
  162      -16.3689294512      -0.0000000872     0.999960    0.00011747
  163      -16.3689295373      -0.0000000861     0.999960    0.00011672
  164      -16.3689296223      -0.0000000850     0.999960    0.00011598
  165      -16.3689297063      -0.0000000840     0.999960    0.00011525
  166      -16.3689297892      -0.0000000829     0.999960    0.00011453
  167      -16.3689298711      -0.0000000819     0.999960    0.00011381
  168      -16.3689299519      -0.0000000809     0.999960    0.00011310
  169      -16.3689300318      -0.0000000798     0.999960    0.00011240
  170      -16.3689301107      -0.0000000789     0.999961    0.00011170
  171      -16.3689301886      -0.0000000779     0.999961    0.00011102
  172      -16.3689302655      -0.0000000769     0.999961    0.00011034
  173      -16.3689303415      -0.0000000760     0.999961    0.00010967
  174      -16.3689304166      -0.0000000751     0.999961    0.00010900
  175      -16.3689304907      -0.0000000742     0.999961    0.00010834
  176      -16.3689305640      -0.0000000733     0.999961    0.00010769
  177      -16.3689306364      -0.0000000724     0.999961    0.00010704
  178      -16.3689307080      -0.0000000715     0.999961    0.00010641
  179      -16.3689307787      -0.0000000707     0.999962    0.00010577
  180      -16.3689308485      -0.0000000699     0.999962    0.00010515
  181      -16.3689309175      -0.0000000690     0.999962    0.00010453
  182      -16.3689309858      -0.0000000682     0.999962    0.00010391
  183      -16.3689310532      -0.0000000674     0.999962    0.00010331
  184      -16.3689311198      -0.0000000666     0.999962    0.00010270
  185      -16.3689311857      -0.0000000659     0.999962    0.00010211
  186      -16.3689312508      -0.0000000651     0.999962    0.00010152
  187      -16.3689313151      -0.0000000644     0.999962    0.00010093
  188      -16.3689313788      -0.0000000636     0.999962    0.00010036
  189      -16.3689314417      -0.0000000629     0.999963    0.00009978
  190      -16.3689315038      -0.0000000622     0.999963    0.00009922
  191      -16.3689315653      -0.0000000615     0.999963    0.00009865
  192      -16.3689316261      -0.0000000608     0.999963    0.00009810
  193      -16.3689316862      -0.0000000601     0.999963    0.00009754
  194      -16.3689317456      -0.0000000594     0.999963    0.00009700
  195      -16.3689318044      -0.0000000588     0.999963    0.00009646
  196      -16.3689318625      -0.0000000581     0.999963    0.00009592
  197      -16.3689319200      -0.0000000575     0.999963    0.00009539
  198      -16.3689319768      -0.0000000568     0.999963    0.00009486
  199      -16.3689320330      -0.0000000562     0.999963    0.00009434
  200      -16.3689320886      -0.0000000556     0.999964    0.00009382
  201      -16.3689321436      -0.0000000550     0.999964    0.00009331
  202      -16.3689321980      -0.0000000544     0.999964    0.00009280
  203      -16.3689322518      -0.0000000538     0.999964    0.00009230
  204      -16.3689323050      -0.0000000532     0.999964    0.00009180
  205      -16.3689323577      -0.0000000527     0.999964    0.00009131
  206      -16.3689324098      -0.0000000521     0.999964    0.00009082
  207      -16.3689324613      -0.0000000515     0.999964    0.00009033
  208      -16.3689325123      -0.0000000510     0.999964    0.00008985
  209      -16.3689325627      -0.0000000504     0.999964    0.00008937
  210      -16.3689326127      -0.0000000499     0.999964    0.00008890
  211      -16.3689326620      -0.0000000494     0.999965    0.00008843
  212      -16.3689327109      -0.0000000489     0.999965    0.00008796
  213      -16.3689327593      -0.0000000484     0.999965    0.00008750
  214      -16.3689328071      -0.0000000479     0.999965    0.00008705
  215      -16.3689328545      -0.0000000474     0.999965    0.00008659
  216      -16.3689329013      -0.0000000469     0.999965    0.00008614
  217      -16.3689329477      -0.0000000464     0.999965    0.00008570
  218      -16.3689329936      -0.0000000459     0.999965    0.00008526
  219      -16.3689330391      -0.0000000454     0.999965    0.00008482
  220      -16.3689330840      -0.0000000450     0.999965    0.00008438
  221      -16.3689331286      -0.0000000445     0.999965    0.00008395
  222      -16.3689331726      -0.0000000441     0.999965    0.00008352
  223      -16.3689332162      -0.0000000436     0.999965    0.00008310
  224      -16.3689332594      -0.0000000432     0.999966    0.00008268
  225      -16.3689333021      -0.0000000427     0.999966    0.00008226
  226      -16.3689333445      -0.0000000423     0.999966    0.00008185
  227      -16.3689333863      -0.0000000419     0.999966    0.00008144
  228      -16.3689334278      -0.0000000415     0.999966    0.00008103
  229      -16.3689334689      -0.0000000411     0.999966    0.00008063
  230      -16.3689335095      -0.0000000407     0.999966    0.00008022
  231      -16.3689335498      -0.0000000402     0.999966    0.00007983
  232      -16.3689335896      -0.0000000399     0.999966    0.00007943
  233      -16.3689336291      -0.0000000395     0.999966    0.00007904
  234      -16.3689336682      -0.0000000391     0.999966    0.00007865
  235      -16.3689337069      -0.0000000387     0.999966    0.00007827
  236      -16.3689337452      -0.0000000383     0.999966    0.00007788
  237      -16.3689337831      -0.0000000379     0.999967    0.00007750
  238      -16.3689338207      -0.0000000376     0.999967    0.00007713
  239      -16.3689338579      -0.0000000372     0.999967    0.00007675
  240      -16.3689338948      -0.0000000369     0.999967    0.00007638
  241      -16.3689339313      -0.0000000365     0.999967    0.00007602
  242      -16.3689339674      -0.0000000362     0.999967    0.00007565
  243      -16.3689340032      -0.0000000358     0.999967    0.00007529
  244      -16.3689340387      -0.0000000355     0.999967    0.00007493
  245      -16.3689340738      -0.0000000351     0.999967    0.00007457
  246      -16.3689341086      -0.0000000348     0.999967    0.00007422
  247      -16.3689341431      -0.0000000345     0.999967    0.00007386
  248      -16.3689341772      -0.0000000341     0.999967    0.00007351
  249      -16.3689342111      -0.0000000338     0.999967    0.00007317
  250      -16.3689342446      -0.0000000335     0.999967    0.00007282
  251      -16.3689342778      -0.0000000332     0.999967    0.00007248
  252      -16.3689343106      -0.0000000329     0.999968    0.00007214
  253      -16.3689343432      -0.0000000326     0.999968    0.00007180
  254      -16.3689343755      -0.0000000323     0.999968    0.00007147
  255      -16.3689344075      -0.0000000320     0.999968    0.00007114
  256      -16.3689344392      -0.0000000317     0.999968    0.00007081
  257      -16.3689344705      -0.0000000314     0.999968    0.00007048
  258      -16.3689345016      -0.0000000311     0.999968    0.00007015
  259      -16.3689345325      -0.0000000308     0.999968    0.00006983
  260      -16.3689345630      -0.0000000305     0.999968    0.00006951
  261      -16.3689345932      -0.0000000303     0.999968    0.00006919
  262      -16.3689346232      -0.0000000300     0.999968    0.00006888
  263      -16.3689346529      -0.0000000297     0.999968    0.00006856
  264      -16.3689346824      -0.0000000294     0.999968    0.00006825
  265      -16.3689347115      -0.0000000292     0.999968    0.00006794
  266      -16.3689347405      -0.0000000289     0.999968    0.00006763
  267      -16.3689347691      -0.0000000287     0.999968    0.00006733
  268      -16.3689347975      -0.0000000284     0.999969    0.00006702
  269      -16.3689348256      -0.0000000281     0.999969    0.00006672
  270      -16.3689348535      -0.0000000279     0.999969    0.00006642
  271      -16.3689348812      -0.0000000276     0.999969    0.00006613
  272      -16.3689349086      -0.0000000274     0.999969    0.00006583
  273      -16.3689349357      -0.0000000272     0.999969    0.00006554
  274      -16.3689349626      -0.0000000269     0.999969    0.00006524
  275      -16.3689349893      -0.0000000267     0.999969    0.00006496
  276      -16.3689350157      -0.0000000264     0.999969    0.00006467
  277      -16.3689350419      -0.0000000262     0.999969    0.00006438
  278      -16.3689350679      -0.0000000260     0.999969    0.00006410
  279      -16.3689350937      -0.0000000257     0.999969    0.00006382
  280      -16.3689351192      -0.0000000255     0.999969    0.00006354
  281      -16.3689351445      -0.0000000253     0.999969    0.00006326
  282      -16.3689351696      -0.0000000251     0.999969    0.00006298
  283      -16.3689351944      -0.0000000249     0.999969    0.00006270
  284      -16.3689352191      -0.0000000246     0.999969    0.00006243
  285      -16.3689352435      -0.0000000244     0.999969    0.00006216
  286      -16.3689352677      -0.0000000242     0.999970    0.00006189
  287      -16.3689352917      -0.0000000240     0.999970    0.00006162
  288      -16.3689353155      -0.0000000238     0.999970    0.00006136
  289      -16.3689353391      -0.0000000236     0.999970    0.00006109
  290      -16.3689353625      -0.0000000234     0.999970    0.00006083
  291      -16.3689353857      -0.0000000232     0.999970    0.00006057
  292      -16.3689354087      -0.0000000230     0.999970    0.00006031
  293      -16.3689354316      -0.0000000228     0.999970    0.00006005
  294      -16.3689354542      -0.0000000226     0.999970    0.00005979
  295      -16.3689354766      -0.0000000224     0.999970    0.00005954
  296      -16.3689354988      -0.0000000222     0.999970    0.00005928
  297      -16.3689355209      -0.0000000220     0.999970    0.00005903
  298      -16.3689355427      -0.0000000219     0.999970    0.00005878
  299      -16.3689355644      -0.0000000217     0.999970    0.00005853
  300      -16.3689355859      -0.0000000215     0.999970    0.00005828
  301      -16.3689356072      -0.0000000213     0.999970    0.00005804
  302      -16.3689356283      -0.0000000211     0.999970    0.00005779
  303      -16.3689356493      -0.0000000210     0.999970    0.00005755
  304      -16.3689356701      -0.0000000208     0.999970    0.00005731
  305      -16.3689356907      -0.0000000206     0.999970    0.00005707
  306      -16.3689357111      -0.0000000204     0.999971    0.00005683
  307      -16.3689357314      -0.0000000203     0.999971    0.00005659
  308      -16.3689357515      -0.0000000201     0.999971    0.00005636
  309      -16.3689357714      -0.0000000199     0.999971    0.00005612
  310      -16.3689357912      -0.0000000198     0.999971    0.00005589
  311      -16.3689358108      -0.0000000196     0.999971    0.00005566
  312      -16.3689358302      -0.0000000194     0.999971    0.00005543
  313      -16.3689358495      -0.0000000193     0.999971    0.00005520
  314      -16.3689358686      -0.0000000191     0.999971    0.00005497
  315      -16.3689358876      -0.0000000190     0.999971    0.00005474
  316      -16.3689359064      -0.0000000188     0.999971    0.00005452
  317      -16.3689359250      -0.0000000187     0.999971    0.00005429
  318      -16.3689359435      -0.0000000185     0.999971    0.00005407
  319      -16.3689359619      -0.0000000184     0.999971    0.00005385
  320      -16.3689359801      -0.0000000182     0.999971    0.00005363
  321      -16.3689359982      -0.0000000181     0.999971    0.00005341
  322      -16.3689360161      -0.0000000179     0.999971    0.00005319
  323      -16.3689360338      -0.0000000178     0.999971    0.00005297
  324      -16.3689360515      -0.0000000176     0.999971    0.00005276
  325      -16.3689360689      -0.0000000175     0.999971    0.00005255
  326      -16.3689360863      -0.0000000173     0.999971    0.00005233
  327      -16.3689361035      -0.0000000172     0.999971    0.00005212
  328      -16.3689361205      -0.0000000171     0.999972    0.00005191
  329      -16.3689361375      -0.0000000169     0.999972    0.00005170
  330      -16.3689361543      -0.0000000168     0.999972    0.00005149
  331      -16.3689361709      -0.0000000167     0.999972    0.00005128
  332      -16.3689361874      -0.0000000165     0.999972    0.00005108
  333      -16.3689362038      -0.0000000164     0.999972    0.00005087
  334      -16.3689362201      -0.0000000163     0.999972    0.00005067
  335      -16.3689362362      -0.0000000161     0.999972    0.00005047
  336      -16.3689362522      -0.0000000160     0.999972    0.00005026
  337      -16.3689362681      -0.0000000159     0.999972    0.00005006
  338      -16.3689362838      -0.0000000157     0.999972    0.00004986
  339      -16.3689362995      -0.0000000156     0.999972    0.00004967
  340      -16.3689363150      -0.0000000155     0.999972    0.00004947
  341      -16.3689363304      -0.0000000154     0.999972    0.00004927
  342      -16.3689363456      -0.0000000153     0.999972    0.00004908
  343      -16.3689363607      -0.0000000151     0.999972    0.00004888
  344      -16.3689363758      -0.0000000150     0.999972    0.00004869
  345      -16.3689363907      -0.0000000149     0.999972    0.00004850
  346      -16.3689364054      -0.0000000148     0.999972    0.00004830
  347      -16.3689364201      -0.0000000147     0.999972    0.00004811
  348      -16.3689364347      -0.0000000146     0.999972    0.00004792
  349      -16.3689364491      -0.0000000144     0.999972    0.00004774
  350      -16.3689364634      -0.0000000143     0.999972    0.00004755
  351      -16.3689364776      -0.0000000142     0.999972    0.00004736
  352      -16.3689364918      -0.0000000141     0.999972    0.00004718
  353      -16.3689365057      -0.0000000140     0.999973    0.00004699
  354      -16.3689365196      -0.0000000139     0.999973    0.00004681
  355      -16.3689365334      -0.0000000138     0.999973    0.00004662
  356      -16.3689365471      -0.0000000137     0.999973    0.00004644
  357      -16.3689365606      -0.0000000136     0.999973    0.00004626
  358      -16.3689365741      -0.0000000135     0.999973    0.00004608
  359      -16.3689365875      -0.0000000134     0.999973    0.00004590
  360      -16.3689366007      -0.0000000133     0.999973    0.00004572
  361      -16.3689366139      -0.0000000132     0.999973    0.00004555
  362      -16.3689366269      -0.0000000130     0.999973    0.00004537
  363      -16.3689366399      -0.0000000129     0.999973    0.00004519
  364      -16.3689366527      -0.0000000128     0.999973    0.00004502
  365      -16.3689366655      -0.0000000128     0.999973    0.00004485
  366      -16.3689366781      -0.0000000127     0.999973    0.00004467
  367      -16.3689366907      -0.0000000126     0.999973    0.00004450
  368      -16.3689367031      -0.0000000125     0.999973    0.00004433
  369      -16.3689367155      -0.0000000124     0.999973    0.00004416
  370      -16.3689367278      -0.0000000123     0.999973    0.00004399
  371      -16.3689367399      -0.0000000122     0.999973    0.00004382
  372      -16.3689367520      -0.0000000121     0.999973    0.00004365
  373      -16.3689367640      -0.0000000120     0.999973    0.00004349
  374      -16.3689367759      -0.0000000119     0.999973    0.00004332
  375      -16.3689367877      -0.0000000118     0.999973    0.00004315
  376      -16.3689367995      -0.0000000117     0.999973    0.00004299
  377      -16.3689368111      -0.0000000116     0.999973    0.00004282
  378      -16.3689368226      -0.0000000115     0.999973    0.00004266
  379      -16.3689368341      -0.0000000115     0.999973    0.00004250
  380      -16.3689368455      -0.0000000114     0.999973    0.00004234
  381      -16.3689368567      -0.0000000113     0.999974    0.00004218
  382      -16.3689368679      -0.0000000112     0.999974    0.00004202
  383      -16.3689368791      -0.0000000111     0.999974    0.00004186
  384      -16.3689368901      -0.0000000110     0.999974    0.00004170
  385      -16.3689369010      -0.0000000109     0.999974    0.00004154
  386      -16.3689369119      -0.0000000109     0.999974    0.00004138
  387      -16.3689369227      -0.0000000108     0.999974    0.00004123
  388      -16.3689369334      -0.0000000107     0.999974    0.00004107
  389      -16.3689369440      -0.0000000106     0.999974    0.00004091
  390      -16.3689369546      -0.0000000105     0.999974    0.00004076
  391      -16.3689369650      -0.0000000105     0.999974    0.00004061
  392      -16.3689369754      -0.0000000104     0.999974    0.00004045
  393      -16.3689369857      -0.0000000103     0.999974    0.00004030
  394      -16.3689369959      -0.0000000102     0.999974    0.00004015
  395      -16.3689370061      -0.0000000102     0.999974    0.00004000
  396      -16.3689370162      -0.0000000101     0.999974    0.00003985
  397      -16.3689370262      -0.0000000100     0.999974    0.00003970
  398      -16.3689370361      -0.0000000099     0.999974    0.00003955
  399      -16.3689370460      -0.0000000099     0.999974    0.00003940
  400      -16.3689370558      -0.0000000098     0.999974    0.00003926
  401      -16.3689370655      -0.0000000097     0.999974    0.00003911
  402      -16.3689370751      -0.0000000096     0.999974    0.00003896
  403      -16.3689370847      -0.0000000096     0.999974    0.00003882
  404      -16.3689370942      -0.0000000095     0.999974    0.00003867
  405      -16.3689371036      -0.0000000094     0.999974    0.00003853
  406      -16.3689371129      -0.0000000094     0.999974    0.00003838
  407      -16.3689371222      -0.0000000093     0.999974    0.00003824
  408      -16.3689371314      -0.0000000092     0.999974    0.00003810
  409      -16.3689371406      -0.0000000091     0.999974    0.00003796
  410      -16.3689371497      -0.0000000091     0.999974    0.00003782
  411      -16.3689371587      -0.0000000090     0.999974    0.00003768
  412      -16.3689371676      -0.0000000089     0.999974    0.00003754
  413      -16.3689371765      -0.0000000089     0.999975    0.00003740
  414      -16.3689371853      -0.0000000088     0.999975    0.00003726
  415      -16.3689371941      -0.0000000088     0.999975    0.00003712
  416      -16.3689372028      -0.0000000087     0.999975    0.00003698
  417      -16.3689372114      -0.0000000086     0.999975    0.00003685
  418      -16.3689372200      -0.0000000086     0.999975    0.00003671
  419      -16.3689372285      -0.0000000085     0.999975    0.00003658
  420      -16.3689372369      -0.0000000084     0.999975    0.00003644
  421      -16.3689372453      -0.0000000084     0.999975    0.00003631
  422      -16.3689372536      -0.0000000083     0.999975    0.00003617
  423      -16.3689372618      -0.0000000083     0.999975    0.00003604
  424      -16.3689372700      -0.0000000082     0.999975    0.00003591
  425      -16.3689372782      -0.0000000081     0.999975    0.00003577
  426      -16.3689372862      -0.0000000081     0.999975    0.00003564
  427      -16.3689372942      -0.0000000080     0.999975    0.00003551
  428      -16.3689373022      -0.0000000080     0.999975    0.00003538
  429      -16.3689373101      -0.0000000079     0.999975    0.00003525
  430      -16.3689373179      -0.0000000078     0.999975    0.00003512
  431      -16.3689373257      -0.0000000078     0.999975    0.00003499
  432      -16.3689373334      -0.0000000077     0.999975    0.00003487
  433      -16.3689373411      -0.0000000077     0.999975    0.00003474
  434      -16.3689373487      -0.0000000076     0.999975    0.00003461
  435      -16.3689373563      -0.0000000076     0.999975    0.00003448
  436      -16.3689373638      -0.0000000075     0.999975    0.00003436
  437      -16.3689373712      -0.0000000074     0.999975    0.00003423
  438      -16.3689373786      -0.0000000074     0.999975    0.00003411
  439      -16.3689373860      -0.0000000073     0.999975    0.00003398
  440      -16.3689373933      -0.0000000073     0.999975    0.00003386
  441      -16.3689374005      -0.0000000072     0.999975    0.00003374
  442      -16.3689374077      -0.0000000072     0.999975    0.00003361
  443      -16.3689374148      -0.0000000071     0.999975    0.00003349
  444      -16.3689374219      -0.0000000071     0.999975    0.00003337
  445      -16.3689374289      -0.0000000070     0.999975    0.00003325
  446      -16.3689374359      -0.0000000070     0.999975    0.00003313
  447      -16.3689374428      -0.0000000069     0.999975    0.00003301
  448      -16.3689374497      -0.0000000069     0.999975    0.00003289
  449      -16.3689374565      -0.0000000068     0.999975    0.00003277
  450      -16.3689374633      -0.0000000068     0.999975    0.00003265
  451      -16.3689374700      -0.0000000067     0.999976    0.00003253
  452      -16.3689374767      -0.0000000067     0.999976    0.00003241
  453      -16.3689374834      -0.0000000066     0.999976    0.00003229
  454      -16.3689374899      -0.0000000066     0.999976    0.00003218
  455      -16.3689374965      -0.0000000065     0.999976    0.00003206
  456      -16.3689375030      -0.0000000065     0.999976    0.00003194
  457      -16.3689375094      -0.0000000064     0.999976    0.00003183
  458      -16.3689375158      -0.0000000064     0.999976    0.00003171
  459      -16.3689375222      -0.0000000064     0.999976    0.00003160
  460      -16.3689375285      -0.0000000063     0.999976    0.00003149
  461      -16.3689375347      -0.0000000063     0.999976    0.00003137
  462      -16.3689375409      -0.0000000062     0.999976    0.00003126
  463      -16.3689375471      -0.0000000062     0.999976    0.00003115
  464      -16.3689375532      -0.0000000061     0.999976    0.00003103
  465      -16.3689375593      -0.0000000061     0.999976    0.00003092
  466      -16.3689375654      -0.0000000060     0.999976    0.00003081
  467      -16.3689375714      -0.0000000060     0.999976    0.00003070
  468      -16.3689375773      -0.0000000060     0.999976    0.00003059
  469      -16.3689375832      -0.0000000059     0.999976    0.00003048
  470      -16.3689375891      -0.0000000059     0.999976    0.00003037
  471      -16.3689375949      -0.0000000058     0.999976    0.00003026
  472      -16.3689376007      -0.0000000058     0.999976    0.00003015
  473      -16.3689376065      -0.0000000057     0.999976    0.00003004
  474      -16.3689376122      -0.0000000057     0.999976    0.00002993
  475      -16.3689376178      -0.0000000057     0.999976    0.00002983
  476      -16.3689376234      -0.0000000056     0.999976    0.00002972
  477      -16.3689376290      -0.0000000056     0.999976    0.00002961
  478      -16.3689376346      -0.0000000055     0.999976    0.00002951
  479      -16.3689376401      -0.0000000055     0.999976    0.00002940
  480      -16.3689376455      -0.0000000055     0.999976    0.00002930
  481      -16.3689376510      -0.0000000054     0.999976    0.00002919
  482      -16.3689376563      -0.0000000054     0.999976    0.00002909
  483      -16.3689376617      -0.0000000053     0.999976    0.00002898
  484      -16.3689376670      -0.0000000053     0.999976    0.00002888
  485      -16.3689376723      -0.0000000053     0.999976    0.00002877
  486      -16.3689376775      -0.0000000052     0.999976    0.00002867
  487      -16.3689376827      -0.0000000052     0.999976    0.00002857
  488      -16.3689376879      -0.0000000052     0.999976    0.00002847
  489      -16.3689376930      -0.0000000051     0.999976    0.00002837
  490      -16.3689376981      -0.0000000051     0.999976    0.00002826
  491      -16.3689377031      -0.0000000051     0.999976    0.00002816
  492      -16.3689377081      -0.0000000050     0.999976    0.00002806
  493      -16.3689377131      -0.0000000050     0.999976    0.00002796
  494      -16.3689377181      -0.0000000049     0.999976    0.00002786
  495      -16.3689377230      -0.0000000049     0.999976    0.00002776
  496      -16.3689377278      -0.0000000049     0.999976    0.00002766
  497      -16.3689377327      -0.0000000048     0.999977    0.00002757
  498      -16.3689377375      -0.0000000048     0.999977    0.00002747
  499      -16.3689377423      -0.0000000048     0.999977    0.00002737
  500      -16.3689377470      -0.0000000047     0.999977    0.00002727
  501      -16.3689377517      -0.0000000047     0.999977    0.00002717
  502      -16.3689377564      -0.0000000047     0.999977    0.00002708
  503      -16.3689377610      -0.0000000046     0.999977    0.00002698
  504      -16.3689377656      -0.0000000046     0.999977    0.00002689
  505      -16.3689377702      -0.0000000046     0.999977    0.00002679
  506      -16.3689377747      -0.0000000045     0.999977    0.00002669
  507      -16.3689377792      -0.0000000045     0.999977    0.00002660
  508      -16.3689377837      -0.0000000045     0.999977    0.00002650
  509      -16.3689377882      -0.0000000044     0.999977    0.00002641
  510      -16.3689377926      -0.0000000044     0.999977    0.00002632
  511      -16.3689377970      -0.0000000044     0.999977    0.00002622
  512      -16.3689378013      -0.0000000044     0.999977    0.00002613
  513      -16.3689378056      -0.0000000043     0.999977    0.00002604
  514      -16.3689378099      -0.0000000043     0.999977    0.00002594
  515      -16.3689378142      -0.0000000043     0.999977    0.00002585
  516      -16.3689378184      -0.0000000042     0.999977    0.00002576
  517      -16.3689378226      -0.0000000042     0.999977    0.00002567
  518      -16.3689378268      -0.0000000042     0.999977    0.00002558
  519      -16.3689378309      -0.0000000041     0.999977    0.00002549
  520      -16.3689378350      -0.0000000041     0.999977    0.00002540
  521      -16.3689378391      -0.0000000041     0.999977    0.00002531
  522      -16.3689378432      -0.0000000041     0.999977    0.00002522
  523      -16.3689378472      -0.0000000040     0.999977    0.00002513
  524      -16.3689378512      -0.0000000040     0.999977    0.00002504
  525      -16.3689378552      -0.0000000040     0.999977    0.00002495
  526      -16.3689378591      -0.0000000039     0.999977    0.00002486
  527      -16.3689378630      -0.0000000039     0.999977    0.00002477
  528      -16.3689378669      -0.0000000039     0.999977    0.00002469
  529      -16.3689378708      -0.0000000039     0.999977    0.00002460
  530      -16.3689378746      -0.0000000038     0.999977    0.00002451
  531      -16.3689378784      -0.0000000038     0.999977    0.00002442
  532      -16.3689378822      -0.0000000038     0.999977    0.00002434
  533      -16.3689378859      -0.0000000038     0.999977    0.00002425
  534      -16.3689378896      -0.0000000037     0.999977    0.00002417
  535      -16.3689378933      -0.0000000037     0.999977    0.00002408
  536      -16.3689378970      -0.0000000037     0.999977    0.00002400
  537      -16.3689379007      -0.0000000036     0.999977    0.00002391
  538      -16.3689379043      -0.0000000036     0.999977    0.00002383
  539      -16.3689379079      -0.0000000036     0.999977    0.00002374
  540      -16.3689379114      -0.0000000036     0.999977    0.00002366
  541      -16.3689379150      -0.0000000035     0.999977    0.00002357
  542      -16.3689379185      -0.0000000035     0.999977    0.00002349
  543      -16.3689379220      -0.0000000035     0.999977    0.00002341
  544      -16.3689379255      -0.0000000035     0.999977    0.00002333
  545      -16.3689379289      -0.0000000034     0.999977    0.00002324
  546      -16.3689379323      -0.0000000034     0.999977    0.00002316
  547      -16.3689379357      -0.0000000034     0.999977    0.00002308
  548      -16.3689379391      -0.0000000034     0.999977    0.00002300
  549      -16.3689379425      -0.0000000034     0.999977    0.00002292
  550      -16.3689379458      -0.0000000033     0.999977    0.00002284
  551      -16.3689379491      -0.0000000033     0.999977    0.00002276
  552      -16.3689379524      -0.0000000033     0.999978    0.00002268
  553      -16.3689379556      -0.0000000033     0.999978    0.00002260
  554      -16.3689379589      -0.0000000032     0.999978    0.00002252
  555      -16.3689379621      -0.0000000032     0.999978    0.00002244
  556      -16.3689379653      -0.0000000032     0.999978    0.00002236
  557      -16.3689379684      -0.0000000032     0.999978    0.00002228
  558      -16.3689379716      -0.0000000031     0.999978    0.00002220
  559      -16.3689379747      -0.0000000031     0.999978    0.00002212
  560      -16.3689379778      -0.0000000031     0.999978    0.00002204
  561      -16.3689379809      -0.0000000031     0.999978    0.00002197
  562      -16.3689379839      -0.0000000031     0.999978    0.00002189
  563      -16.3689379870      -0.0000000030     0.999978    0.00002181
  564      -16.3689379900      -0.0000000030     0.999978    0.00002173
  565      -16.3689379930      -0.0000000030     0.999978    0.00002166
  566      -16.3689379960      -0.0000000030     0.999978    0.00002158
  567      -16.3689379989      -0.0000000030     0.999978    0.00002151
  568      -16.3689380018      -0.0000000029     0.999978    0.00002143
  569      -16.3689380048      -0.0000000029     0.999978    0.00002135
  570      -16.3689380077      -0.0000000029     0.999978    0.00002128
  571      -16.3689380105      -0.0000000029     0.999978    0.00002120
  572      -16.3689380134      -0.0000000029     0.999978    0.00002113
  573      -16.3689380162      -0.0000000028     0.999978    0.00002105
  574      -16.3689380190      -0.0000000028     0.999978    0.00002098
  575      -16.3689380218      -0.0000000028     0.999978    0.00002091
  576      -16.3689380246      -0.0000000028     0.999978    0.00002083
  577      -16.3689380273      -0.0000000028     0.999978    0.00002076
  578      -16.3689380301      -0.0000000027     0.999978    0.00002069
  579      -16.3689380328      -0.0000000027     0.999978    0.00002061
  580      -16.3689380355      -0.0000000027     0.999978    0.00002054
  581      -16.3689380381      -0.0000000027     0.999978    0.00002047
  582      -16.3689380408      -0.0000000027     0.999978    0.00002040
  583      -16.3689380434      -0.0000000026     0.999978    0.00002033
  584      -16.3689380461      -0.0000000026     0.999978    0.00002025
  585      -16.3689380487      -0.0000000026     0.999978    0.00002018
  586      -16.3689380512      -0.0000000026     0.999978    0.00002011
  587      -16.3689380538      -0.0000000026     0.999978    0.00002004
  588      -16.3689380564      -0.0000000025     0.999978    0.00001997
  589      -16.3689380589      -0.0000000025     0.999978    0.00001990
  590      -16.3689380614      -0.0000000025     0.999978    0.00001983
  591      -16.3689380639      -0.0000000025     0.999978    0.00001976
  592      -16.3689380664      -0.0000000025     0.999978    0.00001969
  593      -16.3689380688      -0.0000000025     0.999978    0.00001962
  594      -16.3689380713      -0.0000000024     0.999978    0.00001955
  595      -16.3689380737      -0.0000000024     0.999978    0.00001948
  596      -16.3689380761      -0.0000000024     0.999978    0.00001942
  597      -16.3689380785      -0.0000000024     0.999978    0.00001935
  598      -16.3689380809      -0.0000000024     0.999978    0.00001928
  599      -16.3689380832      -0.0000000024     0.999978    0.00001921
  600      -16.3689380856      -0.0000000023     0.999978    0.00001914
  601      -16.3689380879      -0.0000000023     0.999978    0.00001908
  602      -16.3689380902      -0.0000000023     0.999978    0.00001901
  603      -16.3689380925      -0.0000000023     0.999978    0.00001894
  604      -16.3689380948      -0.0000000023     0.999978    0.00001888
  605      -16.3689380970      -0.0000000023     0.999978    0.00001881
  606      -16.3689380993      -0.0000000022     0.999978    0.00001874
  607      -16.3689381015      -0.0000000022     0.999978    0.00001868
  608      -16.3689381037      -0.0000000022     0.999978    0.00001861
  609      -16.3689381059      -0.0000000022     0.999978    0.00001855
  610      -16.3689381081      -0.0000000022     0.999978    0.00001848
  611      -16.3689381103      -0.0000000022     0.999978    0.00001842
  612      -16.3689381124      -0.0000000022     0.999978    0.00001835
  613      -16.3689381146      -0.0000000021     0.999978    0.00001829
  614      -16.3689381167      -0.0000000021     0.999978    0.00001822
  615      -16.3689381188      -0.0000000021     0.999978    0.00001816
  616      -16.3689381209      -0.0000000021     0.999978    0.00001810
  617      -16.3689381230      -0.0000000021     0.999978    0.00001803
  618      -16.3689381250      -0.0000000021     0.999978    0.00001797
  619      -16.3689381271      -0.0000000020     0.999978    0.00001791
  620      -16.3689381291      -0.0000000020     0.999978    0.00001784
  621      -16.3689381311      -0.0000000020     0.999978    0.00001778
  622      -16.3689381331      -0.0000000020     0.999978    0.00001772
  623      -16.3689381351      -0.0000000020     0.999978    0.00001766
  624      -16.3689381371      -0.0000000020     0.999979    0.00001759
  625      -16.3689381391      -0.0000000020     0.999979    0.00001753
  626      -16.3689381410      -0.0000000020     0.999979    0.00001747
  627      -16.3689381430      -0.0000000019     0.999979    0.00001741
  628      -16.3689381449      -0.0000000019     0.999979    0.00001735
  629      -16.3689381468      -0.0000000019     0.999979    0.00001729
  630      -16.3689381487      -0.0000000019     0.999979    0.00001723
  631      -16.3689381506      -0.0000000019     0.999979    0.00001717
  632      -16.3689381525      -0.0000000019     0.999979    0.00001711
  633      -16.3689381543      -0.0000000019     0.999979    0.00001705
  634      -16.3689381562      -0.0000000018     0.999979    0.00001699
  635      -16.3689381580      -0.0000000018     0.999979    0.00001693
  636      -16.3689381598      -0.0000000018     0.999979    0.00001687
  637      -16.3689381616      -0.0000000018     0.999979    0.00001681
  638      -16.3689381634      -0.0000000018     0.999979    0.00001675
  639      -16.3689381652      -0.0000000018     0.999979    0.00001669
  640      -16.3689381670      -0.0000000018     0.999979    0.00001663
  641      -16.3689381687      -0.0000000018     0.999979    0.00001657
  642      -16.3689381705      -0.0000000017     0.999979    0.00001651
  643      -16.3689381722      -0.0000000017     0.999979    0.00001646
  644      -16.3689381739      -0.0000000017     0.999979    0.00001640
  645      -16.3689381756      -0.0000000017     0.999979    0.00001634
  646      -16.3689381773      -0.0000000017     0.999979    0.00001628
  647      -16.3689381790      -0.0000000017     0.999979    0.00001623
  648      -16.3689381807      -0.0000000017     0.999979    0.00001617
  649      -16.3689381823      -0.0000000017     0.999979    0.00001611
  650      -16.3689381840      -0.0000000016     0.999979    0.00001606
  651      -16.3689381856      -0.0000000016     0.999979    0.00001600
  652      -16.3689381872      -0.0000000016     0.999979    0.00001594
  653      -16.3689381889      -0.0000000016     0.999979    0.00001589
  654      -16.3689381905      -0.0000000016     0.999979    0.00001583
  655      -16.3689381921      -0.0000000016     0.999979    0.00001578
  656      -16.3689381936      -0.0000000016     0.999979    0.00001572
  657      -16.3689381952      -0.0000000016     0.999979    0.00001566
  658      -16.3689381968      -0.0000000016     0.999979    0.00001561
  659      -16.3689381983      -0.0000000015     0.999979    0.00001555
  660      -16.3689381999      -0.0000000015     0.999979    0.00001550
  661      -16.3689382014      -0.0000000015     0.999979    0.00001545
  662      -16.3689382029      -0.0000000015     0.999979    0.00001539
  663      -16.3689382044      -0.0000000015     0.999979    0.00001534
  664      -16.3689382059      -0.0000000015     0.999979    0.00001528
  665      -16.3689382074      -0.0000000015     0.999979    0.00001523
  666      -16.3689382089      -0.0000000015     0.999979    0.00001518
  667      -16.3689382103      -0.0000000015     0.999979    0.00001512
  668      -16.3689382118      -0.0000000015     0.999979    0.00001507
  669      -16.3689382132      -0.0000000014     0.999979    0.00001502
  670      -16.3689382146      -0.0000000014     0.999979    0.00001496
  671      -16.3689382161      -0.0000000014     0.999979    0.00001491
  672      -16.3689382175      -0.0000000014     0.999979    0.00001486
  673      -16.3689382189      -0.0000000014     0.999979    0.00001481
  674      -16.3689382203      -0.0000000014     0.999979    0.00001475
  675      -16.3689382217      -0.0000000014     0.999979    0.00001470
  676      -16.3689382230      -0.0000000014     0.999979    0.00001465
  677      -16.3689382244      -0.0000000014     0.999979    0.00001460
  678      -16.3689382258      -0.0000000014     0.999979    0.00001455
  679      -16.3689382271      -0.0000000013     0.999979    0.00001450
  680      -16.3689382284      -0.0000000013     0.999979    0.00001445
  681      -16.3689382298      -0.0000000013     0.999979    0.00001440
  682      -16.3689382311      -0.0000000013     0.999979    0.00001434
  683      -16.3689382324      -0.0000000013     0.999979    0.00001429
  684      -16.3689382337      -0.0000000013     0.999979    0.00001424
  685      -16.3689382350      -0.0000000013     0.999979    0.00001419
  686      -16.3689382363      -0.0000000013     0.999979    0.00001414
  687      -16.3689382375      -0.0000000013     0.999979    0.00001409
  688      -16.3689382388      -0.0000000013     0.999979    0.00001404
  689      -16.3689382400      -0.0000000013     0.999979    0.00001400
  690      -16.3689382413      -0.0000000012     0.999979    0.00001395
  691      -16.3689382425      -0.0000000012     0.999979    0.00001390
  692      -16.3689382438      -0.0000000012     0.999979    0.00001385
  693      -16.3689382450      -0.0000000012     0.999979    0.00001380
  694      -16.3689382462      -0.0000000012     0.999979    0.00001375
  695      -16.3689382474      -0.0000000012     0.999979    0.00001370
  696      -16.3689382486      -0.0000000012     0.999979    0.00001365
  697      -16.3689382498      -0.0000000012     0.999979    0.00001361
  698      -16.3689382509      -0.0000000012     0.999979    0.00001356
  699      -16.3689382521      -0.0000000012     0.999979    0.00001351
  700      -16.3689382533      -0.0000000012     0.999979    0.00001346
  701      -16.3689382544      -0.0000000012     0.999979    0.00001342
  702      -16.3689382556      -0.0000000011     0.999979    0.00001337
  703      -16.3689382567      -0.0000000011     0.999979    0.00001332
  704      -16.3689382578      -0.0000000011     0.999979    0.00001327
  705      -16.3689382590      -0.0000000011     0.999979    0.00001323
  706      -16.3689382601      -0.0000000011     0.999979    0.00001318
  707      -16.3689382612      -0.0000000011     0.999979    0.00001314
  708      -16.3689382623      -0.0000000011     0.999979    0.00001309
  709      -16.3689382634      -0.0000000011     0.999979    0.00001304
  710      -16.3689382644      -0.0000000011     0.999979    0.00001300
  711      -16.3689382655      -0.0000000011     0.999979    0.00001295
  712      -16.3689382666      -0.0000000011     0.999979    0.00001291
  713      -16.3689382676      -0.0000000011     0.999979    0.00001286
  714      -16.3689382687      -0.0000000011     0.999979    0.00001281
  715      -16.3689382697      -0.0000000010     0.999979    0.00001277
  716      -16.3689382708      -0.0000000010     0.999979    0.00001272
  717      -16.3689382718      -0.0000000010     0.999979    0.00001268
  718      -16.3689382728      -0.0000000010     0.999979    0.00001264
  719      -16.3689382739      -0.0000000010     0.999979    0.00001259
  720      -16.3689382749      -0.0000000010     0.999979    0.00001255
  721      -16.3689382759      -0.0000000010     0.999979    0.00001250
  722      -16.3689382769      -0.0000000010     0.999979    0.00001246
  723      -16.3689382778      -0.0000000010     0.999979    0.00001241
  724      -16.3689382788      -0.0000000010     0.999980    0.00001237
  725      -16.3689382798      -0.0000000010     0.999980    0.00001233
  726      -16.3689382808      -0.0000000010     0.999980    0.00001228
  727      -16.3689382817      -0.0000000010     0.999980    0.00001224
  728      -16.3689382827      -0.0000000010     0.999980    0.00001220
  729      -16.3689382836      -0.0000000009     0.999980    0.00001215
  730      -16.3689382846      -0.0000000009     0.999980    0.00001211
  731      -16.3689382855      -0.0000000009     0.999980    0.00001207
  732      -16.3689382864      -0.0000000009     0.999980    0.00001203
  733      -16.3689382873      -0.0000000009     0.999980    0.00001198
  734      -16.3689382883      -0.0000000009     0.999980    0.00001194
  735      -16.3689382892      -0.0000000009     0.999980    0.00001190
  736      -16.3689382901      -0.0000000009     0.999980    0.00001186
  737      -16.3689382910      -0.0000000009     0.999980    0.00001182
  738      -16.3689382918      -0.0000000009     0.999980    0.00001177
  739      -16.3689382927      -0.0000000009     0.999980    0.00001173
  740      -16.3689382936      -0.0000000009     0.999980    0.00001169
  741      -16.3689382945      -0.0000000009     0.999980    0.00001165
  742      -16.3689382953      -0.0000000009     0.999980    0.00001161
  743      -16.3689382962      -0.0000000009     0.999980    0.00001157
  744      -16.3689382971      -0.0000000009     0.999980    0.00001153
  745      -16.3689382979      -0.0000000008     0.999980    0.00001149
  746      -16.3689382987      -0.0000000008     0.999980    0.00001145
  747      -16.3689382996      -0.0000000008     0.999980    0.00001141
  748      -16.3689383004      -0.0000000008     0.999980    0.00001137
  749      -16.3689383012      -0.0000000008     0.999980    0.00001133
  750      -16.3689383020      -0.0000000008     0.999980    0.00001129
  751      -16.3689383028      -0.0000000008     0.999980    0.00001125
  752      -16.3689383037      -0.0000000008     0.999980    0.00001121
  753      -16.3689383045      -0.0000000008     0.999980    0.00001117
  754      -16.3689383052      -0.0000000008     0.999980    0.00001113
  755      -16.3689383060      -0.0000000008     0.999980    0.00001109
  756      -16.3689383068      -0.0000000008     0.999980    0.00001105
  757      -16.3689383076      -0.0000000008     0.999980    0.00001101
  758      -16.3689383084      -0.0000000008     0.999980    0.00001097
  759      -16.3689383091      -0.0000000008     0.999980    0.00001093
  760      -16.3689383099      -0.0000000008     0.999980    0.00001089
  761      -16.3689383106      -0.0000000008     0.999980    0.00001085
  762      -16.3689383114      -0.0000000008     0.999980    0.00001082
  763      -16.3689383121      -0.0000000007     0.999980    0.00001078
  764      -16.3689383129      -0.0000000007     0.999980    0.00001074
  765      -16.3689383136      -0.0000000007     0.999980    0.00001070
  766      -16.3689383143      -0.0000000007     0.999980    0.00001066
  767      -16.3689383151      -0.0000000007     0.999980    0.00001063
  768      -16.3689383158      -0.0000000007     0.999980    0.00001059
  769      -16.3689383165      -0.0000000007     0.999980    0.00001055
  770      -16.3689383172      -0.0000000007     0.999980    0.00001051
  771      -16.3689383179      -0.0000000007     0.999980    0.00001048
  772      -16.3689383186      -0.0000000007     0.999980    0.00001044
  773      -16.3689383193      -0.0000000007     0.999980    0.00001040
  774      -16.3689383200      -0.0000000007     0.999980    0.00001037
  775      -16.3689383207      -0.0000000007     0.999980    0.00001033
  776      -16.3689383214      -0.0000000007     0.999980    0.00001029
  777      -16.3689383220      -0.0000000007     0.999980    0.00001026
  778      -16.3689383227      -0.0000000007     0.999980    0.00001022
  779      -16.3689383234      -0.0000000007     0.999980    0.00001018
  780      -16.3689383240      -0.0000000007     0.999980    0.00001015
  781      -16.3689383247      -0.0000000007     0.999980    0.00001011
  782      -16.3689383253      -0.0000000007     0.999980    0.00001008
  783      -16.3689383260      -0.0000000006     0.999980    0.00001004
  784      -16.3689383266      -0.0000000006     0.999980    0.00001001
  785      -16.3689383273      -0.0000000006     0.999980    0.00000997
  786      -16.3689383279      -0.0000000006     0.999980    0.00000994
  787      -16.3689383285      -0.0000000006     0.999980    0.00000990
  788      -16.3689383292      -0.0000000006     0.999980    0.00000987
  789      -16.3689383298      -0.0000000006     0.999980    0.00000983
  790      -16.3689383304      -0.0000000006     0.999980    0.00000980
  791      -16.3689383310      -0.0000000006     0.999980    0.00000976
  792      -16.3689383316      -0.0000000006     0.999980    0.00000973
  793      -16.3689383322      -0.0000000006     0.999980    0.00000969
  794      -16.3689383328      -0.0000000006     0.999980    0.00000966
  795      -16.3689383334      -0.0000000006     0.999980    0.00000962
  796      -16.3689383340      -0.0000000006     0.999980    0.00000959
  797      -16.3689383346      -0.0000000006     0.999980    0.00000956
  798      -16.3689383352      -0.0000000006     0.999980    0.00000952
  799      -16.3689383357      -0.0000000006     0.999980    0.00000949
  800      -16.3689383363      -0.0000000006     0.999980    0.00000945
  801      -16.3689383369      -0.0000000006     0.999980    0.00000942
  802      -16.3689383374      -0.0000000006     0.999980    0.00000939
  803      -16.3689383380      -0.0000000006     0.999980    0.00000935
  804      -16.3689383386      -0.0000000006     0.999980    0.00000932
  805      -16.3689383391      -0.0000000006     0.999980    0.00000929
  806      -16.3689383397      -0.0000000005     0.999980    0.00000926
  807      -16.3689383402      -0.0000000005     0.999980    0.00000922
  808      -16.3689383408      -0.0000000005     0.999980    0.00000919
  809      -16.3689383413      -0.0000000005     0.999980    0.00000916
  810      -16.3689383418      -0.0000000005     0.999980    0.00000912
  811      -16.3689383424      -0.0000000005     0.999980    0.00000909
  812      -16.3689383429      -0.0000000005     0.999980    0.00000906
  813      -16.3689383434      -0.0000000005     0.999980    0.00000903
  814      -16.3689383439      -0.0000000005     0.999980    0.00000900
  815      -16.3689383444      -0.0000000005     0.999980    0.00000896
  816      -16.3689383450      -0.0000000005     0.999980    0.00000893
  817      -16.3689383455      -0.0000000005     0.999980    0.00000890
  818      -16.3689383460      -0.0000000005     0.999980    0.00000887
  819      -16.3689383465      -0.0000000005     0.999980    0.00000884
  820      -16.3689383470      -0.0000000005     0.999980    0.00000881
  821      -16.3689383475      -0.0000000005     0.999980    0.00000878
  822      -16.3689383480      -0.0000000005     0.999980    0.00000874
  823      -16.3689383484      -0.0000000005     0.999980    0.00000871
  824      -16.3689383489      -0.0000000005     0.999980    0.00000868
  825      -16.3689383494      -0.0000000005     0.999980    0.00000865
  826      -16.3689383499      -0.0000000005     0.999980    0.00000862
  827      -16.3689383504      -0.0000000005     0.999980    0.00000859
  828      -16.3689383508      -0.0000000005     0.999980    0.00000856
  829      -16.3689383513      -0.0000000005     0.999980    0.00000853
  830      -16.3689383518      -0.0000000005     0.999980    0.00000850
  831      -16.3689383522      -0.0000000005     0.999980    0.00000847
  832      -16.3689383527      -0.0000000005     0.999980    0.00000844
  833      -16.3689383531      -0.0000000005     0.999980    0.00000841
  834      -16.3689383536      -0.0000000005     0.999980    0.00000838
  835      -16.3689383540      -0.0000000004     0.999980    0.00000835
  836      -16.3689383545      -0.0000000004     0.999980    0.00000832
  837      -16.3689383549      -0.0000000004     0.999980    0.00000829
  838      -16.3689383553      -0.0000000004     0.999980    0.00000826
  839      -16.3689383558      -0.0000000004     0.999980    0.00000823
  840      -16.3689383562      -0.0000000004     0.999980    0.00000820
  841      -16.3689383566      -0.0000000004     0.999980    0.00000817
  842      -16.3689383571      -0.0000000004     0.999980    0.00000814
  843      -16.3689383575      -0.0000000004     0.999980    0.00000812
  844      -16.3689383579      -0.0000000004     0.999980    0.00000809
  845      -16.3689383583      -0.0000000004     0.999980    0.00000806
  846      -16.3689383587      -0.0000000004     0.999980    0.00000803
  847      -16.3689383592      -0.0000000004     0.999980    0.00000800
  848      -16.3689383596      -0.0000000004     0.999980    0.00000797
  849      -16.3689383600      -0.0000000004     0.999980    0.00000794
  850      -16.3689383604      -0.0000000004     0.999980    0.00000792
  851      -16.3689383608      -0.0000000004     0.999980    0.00000789
  852      -16.3689383612      -0.0000000004     0.999980    0.00000786
  853      -16.3689383616      -0.0000000004     0.999980    0.00000783
  854      -16.3689383620      -0.0000000004     0.999980    0.00000780
  855      -16.3689383623      -0.0000000004     0.999980    0.00000778
  856      -16.3689383627      -0.0000000004     0.999980    0.00000775
  857      -16.3689383631      -0.0000000004     0.999980    0.00000772
  858      -16.3689383635      -0.0000000004     0.999980    0.00000769
  859      -16.3689383639      -0.0000000004     0.999980    0.00000767
  860      -16.3689383642      -0.0000000004     0.999980    0.00000764
  861      -16.3689383646      -0.0000000004     0.999980    0.00000761
  862      -16.3689383650      -0.0000000004     0.999980    0.00000758
  863      -16.3689383653      -0.0000000004     0.999980    0.00000756
  864      -16.3689383657      -0.0000000004     0.999980    0.00000753
  865      -16.3689383661      -0.0000000004     0.999980    0.00000750
  866      -16.3689383664      -0.0000000004     0.999980    0.00000748
  867      -16.3689383668      -0.0000000004     0.999980    0.00000745
  868      -16.3689383671      -0.0000000004     0.999980    0.00000742
  869      -16.3689383675      -0.0000000004     0.999980    0.00000740
  870      -16.3689383678      -0.0000000003     0.999980    0.00000737
  871      -16.3689383682      -0.0000000003     0.999980    0.00000735
  872      -16.3689383685      -0.0000000003     0.999980    0.00000732
  873      -16.3689383689      -0.0000000003     0.999980    0.00000729
  874      -16.3689383692      -0.0000000003     0.999980    0.00000727
  875      -16.3689383696      -0.0000000003     0.999980    0.00000724
  876      -16.3689383699      -0.0000000003     0.999980    0.00000722
  877      -16.3689383702      -0.0000000003     0.999980    0.00000719
  878      -16.3689383705      -0.0000000003     0.999980    0.00000716
  879      -16.3689383709      -0.0000000003     0.999980    0.00000714
  880      -16.3689383712      -0.0000000003     0.999980    0.00000711
  881      -16.3689383715      -0.0000000003     0.999980    0.00000709
  882      -16.3689383718      -0.0000000003     0.999980    0.00000706
  883      -16.3689383722      -0.0000000003     0.999980    0.00000704
  884      -16.3689383725      -0.0000000003     0.999980    0.00000701
  885      -16.3689383728      -0.0000000003     0.999980    0.00000699
  886      -16.3689383731      -0.0000000003     0.999980    0.00000696
  887      -16.3689383734      -0.0000000003     0.999980    0.00000694
  888      -16.3689383737      -0.0000000003     0.999980    0.00000691
  889      -16.3689383740      -0.0000000003     0.999981    0.00000689
  890      -16.3689383743      -0.0000000003     0.999981    0.00000686
  891      -16.3689383746      -0.0000000003     0.999981    0.00000684
  892      -16.3689383749      -0.0000000003     0.999981    0.00000682
  893      -16.3689383752      -0.0000000003     0.999981    0.00000679
  894      -16.3689383755      -0.0000000003     0.999981    0.00000677
  895      -16.3689383758      -0.0000000003     0.999981    0.00000674
  896      -16.3689383761      -0.0000000003     0.999981    0.00000672
  897      -16.3689383764      -0.0000000003     0.999981    0.00000669
  898      -16.3689383767      -0.0000000003     0.999981    0.00000667
  899      -16.3689383770      -0.0000000003     0.999981    0.00000665
  900      -16.3689383772      -0.0000000003     0.999981    0.00000662
  901      -16.3689383775      -0.0000000003     0.999981    0.00000660
  902      -16.3689383778      -0.0000000003     0.999981    0.00000658
  903      -16.3689383781      -0.0000000003     0.999981    0.00000655
  904      -16.3689383783      -0.0000000003     0.999981    0.00000653
  905      -16.3689383786      -0.0000000003     0.999981    0.00000651
  906      -16.3689383789      -0.0000000003     0.999981    0.00000648
  907      -16.3689383792      -0.0000000003     0.999981    0.00000646
  908      -16.3689383794      -0.0000000003     0.999981    0.00000644
  909      -16.3689383797      -0.0000000003     0.999981    0.00000641
  910      -16.3689383799      -0.0000000003     0.999981    0.00000639
  911      -16.3689383802      -0.0000000003     0.999981    0.00000637
  912      -16.3689383805      -0.0000000003     0.999981    0.00000635
  913      -16.3689383807      -0.0000000003     0.999981    0.00000632
  914      -16.3689383810      -0.0000000003     0.999981    0.00000630
  915      -16.3689383812      -0.0000000003     0.999981    0.00000628
  916      -16.3689383815      -0.0000000003     0.999981    0.00000626
  917      -16.3689383817      -0.0000000002     0.999981    0.00000623
  918      -16.3689383820      -0.0000000002     0.999981    0.00000621
  919      -16.3689383822      -0.0000000002     0.999981    0.00000619
  920      -16.3689383825      -0.0000000002     0.999981    0.00000617
  921      -16.3689383827      -0.0000000002     0.999981    0.00000614
  922      -16.3689383830      -0.0000000002     0.999981    0.00000612
  923      -16.3689383832      -0.0000000002     0.999981    0.00000610
  924      -16.3689383834      -0.0000000002     0.999981    0.00000608
  925      -16.3689383837      -0.0000000002     0.999981    0.00000606
  926      -16.3689383839      -0.0000000002     0.999981    0.00000604
  927      -16.3689383841      -0.0000000002     0.999981    0.00000601
  928      -16.3689383844      -0.0000000002     0.999981    0.00000599
  929      -16.3689383846      -0.0000000002     0.999981    0.00000597
  930      -16.3689383848      -0.0000000002     0.999981    0.00000595
  931      -16.3689383850      -0.0000000002     0.999981    0.00000593
  932      -16.3689383853      -0.0000000002     0.999981    0.00000591
  933      -16.3689383855      -0.0000000002     0.999981    0.00000589
  934      -16.3689383857      -0.0000000002     0.999981    0.00000587
  935      -16.3689383859      -0.0000000002     0.999981    0.00000584
  936      -16.3689383862      -0.0000000002     0.999981    0.00000582
  937      -16.3689383864      -0.0000000002     0.999981    0.00000580
  938      -16.3689383866      -0.0000000002     0.999981    0.00000578
  939      -16.3689383868      -0.0000000002     0.999981    0.00000576
  940      -16.3689383870      -0.0000000002     0.999981    0.00000574
  941      -16.3689383872      -0.0000000002     0.999981    0.00000572
  942      -16.3689383874      -0.0000000002     0.999981    0.00000570
  943      -16.3689383876      -0.0000000002     0.999981    0.00000568
  944      -16.3689383878      -0.0000000002     0.999981    0.00000566
  945      -16.3689383880      -0.0000000002     0.999981    0.00000564
  946      -16.3689383883      -0.0000000002     0.999981    0.00000562
  947      -16.3689383885      -0.0000000002     0.999981    0.00000560
  948      -16.3689383887      -0.0000000002     0.999981    0.00000558
  949      -16.3689383889      -0.0000000002     0.999981    0.00000556
  950      -16.3689383890      -0.0000000002     0.999981    0.00000554
  951      -16.3689383892      -0.0000000002     0.999981    0.00000552
  952      -16.3689383894      -0.0000000002     0.999981    0.00000550
  953      -16.3689383896      -0.0000000002     0.999981    0.00000548
  954      -16.3689383898      -0.0000000002     0.999981    0.00000546
  955      -16.3689383900      -0.0000000002     0.999981    0.00000544
  956      -16.3689383902      -0.0000000002     0.999981    0.00000542
  957      -16.3689383904      -0.0000000002     0.999981    0.00000540
  958      -16.3689383906      -0.0000000002     0.999981    0.00000538
  959      -16.3689383908      -0.0000000002     0.999981    0.00000536
  960      -16.3689383909      -0.0000000002     0.999981    0.00000534
  961      -16.3689383911      -0.0000000002     0.999981    0.00000532
  962      -16.3689383913      -0.0000000002     0.999981    0.00000531
  963      -16.3689383915      -0.0000000002     0.999981    0.00000529
  964      -16.3689383917      -0.0000000002     0.999981    0.00000527
  965      -16.3689383918      -0.0000000002     0.999981    0.00000525
  966      -16.3689383920      -0.0000000002     0.999981    0.00000523
  967      -16.3689383922      -0.0000000002     0.999981    0.00000521
  968      -16.3689383924      -0.0000000002     0.999981    0.00000519
  969      -16.3689383925      -0.0000000002     0.999981    0.00000517
  970      -16.3689383927      -0.0000000002     0.999981    0.00000516
  971      -16.3689383929      -0.0000000002     0.999981    0.00000514
  972      -16.3689383930      -0.0000000002     0.999981    0.00000512
  973      -16.3689383932      -0.0000000002     0.999981    0.00000510
  974      -16.3689383934      -0.0000000002     0.999981    0.00000508
  975      -16.3689383935      -0.0000000002     0.999981    0.00000506
  976      -16.3689383937      -0.0000000002     0.999981    0.00000505
  977      -16.3689383939      -0.0000000002     0.999981    0.00000503
  978      -16.3689383940      -0.0000000002     0.999981    0.00000501
  979      -16.3689383942      -0.0000000002     0.999981    0.00000499
  980      -16.3689383944      -0.0000000002     0.999981    0.00000497
  981      -16.3689383945      -0.0000000002     0.999981    0.00000496
  982      -16.3689383947      -0.0000000002     0.999981    0.00000494
  983      -16.3689383948      -0.0000000002     0.999981    0.00000492
  984      -16.3689383950      -0.0000000002     0.999981    0.00000490
  985      -16.3689383951      -0.0000000002     0.999981    0.00000489
  986      -16.3689383953      -0.0000000002     0.999981    0.00000487
  987      -16.3689383954      -0.0000000002     0.999981    0.00000485
  988      -16.3689383956      -0.0000000002     0.999981    0.00000483
  989      -16.3689383957      -0.0000000001     0.999981    0.00000482
  990      -16.3689383959      -0.0000000001     0.999981    0.00000480
  991      -16.3689383960      -0.0000000001     0.999981    0.00000478
  992      -16.3689383962      -0.0000000001     0.999981    0.00000476
  993      -16.3689383963      -0.0000000001     0.999981    0.00000475
  994      -16.3689383965      -0.0000000001     0.999981    0.00000473
  995      -16.3689383966      -0.0000000001     0.999981    0.00000471
  996      -16.3689383967      -0.0000000001     0.999981    0.00000470
  997      -16.3689383969      -0.0000000001     0.999981    0.00000468
  998      -16.3689383970      -0.0000000001     0.999981    0.00000466
  999      -16.3689383972      -0.0000000001     0.999981    0.00000465
 1000      -16.3689383973      -0.0000000001     0.999981    0.00000463

Total Energy:                      -16.3689383973 H         -445.4215 eV
Extrapolated to 0:                 -16.3467285675 H         -444.8171 eV

----------------------------------------------------------------------------------
 Solving CP-REKS equation for  1 state vector...
----------------------------------------------------------------------------------
  CG solver: Constructing Y initial guess
  CG solver: Iteration    1    eps =    0.029019065516
  CG solver: Iteration    2    eps =    0.010738145239
  CG solver: Iteration    3    eps =    0.003385199587
  CG solver: Iteration    4    eps =    0.000716944544
  CG solver: Iteration    5    eps =    0.000350897394
  CG solver: Iteration    6    eps =    0.000036294419
  CG solver: Iteration    7    eps =    0.000014583927
  CG solver: Iteration    8    eps =    0.000001202287
  CG solver: Iteration    9    eps =    0.000000115997
  CG solver: Iteration   10    eps =    0.000000036081
  CG solver: Iteration   11    eps =    0.000000004920
  Convergence reached in CG solver after   11 iterations
  CG solver: Calculating converged R, Z, Q2 matrix
----------------------------------------------------------------------------------

----------------------------------------------------------------------------------
 Solving CP-REKS equation for SI between  1 and  2 state vectors...
----------------------------------------------------------------------------------
  CG solver: Constructing Y initial guess
  CG solver: Iteration    1    eps =    0.049271119777
  CG solver: Iteration    2    eps =    0.006043149472
  CG solver: Iteration    3    eps =    0.008054985280
  CG solver: Iteration    4    eps =    0.092623042682
  CG solver: Iteration    5    eps =    0.216229446553
  CG solver: Iteration    6    eps =    0.061054058441
  CG solver: Iteration    7    eps =    0.023780389647
  CG solver: Iteration    8    eps =    0.002282452939
  CG solver: Iteration    9    eps =    0.000222937000
  CG solver: Iteration   10    eps =    0.000027158746
  CG solver: Iteration   11    eps =    0.000003979669
  CG solver: Iteration   12    eps =    0.000000574832
  CG solver: Iteration   13    eps =    0.000000096421
  CG solver: Iteration   14    eps =    0.000000009243
  Convergence reached in CG solver after   14 iterations
  CG solver: Calculating converged R, Z, Q2 matrix
----------------------------------------------------------------------------------

--------------------------------------------------
 Gradient Information
--------------------------------------------------
           1 st state (SSR)
     0.00000000     0.00000000     0.00000000
     0.00000000     0.00000000     0.00000000
     0.00000000     0.00000000     0.00000000
     0.00000000     0.00000000     0.00000000
     0.00000000     0.00000000     0.00000000
     0.00000000     0.00000000     0.00000000
     0.00000000     0.00000000     0.00000000
     0.00000000     0.00000000     0.00000000
     0.00000000     0.00000000     0.00000000
     0.00000000     0.00000000     0.00000000
     0.00000000     0.00000000     0.00000000
     0.00000000     0.00000000     0.00000000
     0.00000000     0.00000000     0.00000000
     0.00000000     0.00000000     0.00000000

           2 st state (SSR)
     0.00000000     0.00000000     0.00000000
     0.00000000     0.00000000     0.00000000
     0.00000000     0.00000000     0.00000000
     0.00000000     0.00000000     0.00000000
     0.00000000     0.00000000     0.00000000
     0.00000000     0.00000000     0.00000000
     0.00000000     0.00000000     0.00000000
     0.00000000     0.00000000     0.00000000
     0.00000000     0.00000000     0.00000000
     0.00000000     0.00000000     0.00000000
     0.00000000     0.00000000     0.00000000
     0.00000000     0.00000000     0.00000000
     0.00000000     0.00000000     0.00000000
     0.00000000     0.00000000     0.00000000
--------------------------------------------------
 Coupling Information
--------------------------------------------------
 between  1 and  2 states
--------------------------------------------------
 g vector - difference gradient
    -0.13264911     0.21023347    -0.09846448
     0.05578497    -0.12663517    -0.03213759
     0.07482594    -0.13817092    -0.00941297
    -0.04405863     0.24270074    -0.01848570
     0.01245070     0.04400136    -0.02767589
    -0.10246356    -0.06721670     0.29554629
    -0.00223328    -0.22210014    -0.13000899
     0.04697782    -0.12465793     0.08643058
     0.03922913    -0.04593833    -0.17870140
    -0.03958078     0.14126431     0.05302697
     0.01765236    -0.01609348    -0.03671196
     0.13637547     0.09876440     0.08687014
    -0.06799405    -0.05746112    -0.02073780
     0.00568303     0.06130950     0.03046279

 h vector - derivative coupling
    -0.22050370    -0.07190518     0.66457658
     0.67904033    -0.23835069    -0.31466412
     0.07986760    -0.33444498     0.10569493
    -0.16354291     0.45803985    -0.12125746
    -0.05800904    -0.01091329    -0.02741175
     0.47762562    -0.05197989     0.04369738
    -0.61957689     0.14189280    -0.04979903
    -0.13767805     0.13897499    -0.49520060
    -0.02761988     0.05558691    -0.13974902
     0.34918770     0.00376866     0.92237311
    -0.00781340     0.03656701     0.00296867
    -0.36827200    -0.11983995    -0.62040532
     0.04410447    -0.03343245    -0.00177723
    -0.02680985     0.02603623     0.03095386

 G vector - GDV
     0.00000000     0.00000000     0.00000000
     0.00000000     0.00000000     0.00000000
     0.00000000     0.00000000     0.00000000
     0.00000000     0.00000000     0.00000000
     0.00000000     0.00000000     0.00000000
     0.00000000     0.00000000     0.00000000
     0.00000000     0.00000000     0.00000000
     0.00000000     0.00000000     0.00000000
     0.00000000     0.00000000     0.00000000
     0.00000000     0.00000000     0.00000000
     0.00000000     0.00000000     0.00000000
     0.00000000     0.00000000     0.00000000
     0.00000000     0.00000000     0.00000000
     0.00000000     0.00000000     0.00000000

 H vector - DCV - non-adiabatic coupling
     0.00000000     0.00000000     0.00000000
     0.00000000     0.00000000     0.00000000
     0.00000000     0.00000000     0.00000000
     0.00000000     0.00000000     0.00000000
     0.00000000     0.00000000     0.00000000
     0.00000000     0.00000000     0.00000000
     0.00000000     0.00000000     0.00000000
     0.00000000     0.00000000     0.00000000
     0.00000000     0.00000000     0.00000000
     0.00000000     0.00000000     0.00000000
     0.00000000     0.00000000     0.00000000
     0.00000000     0.00000000     0.00000000
     0.00000000     0.00000000     0.00000000
     0.00000000     0.00000000     0.00000000
--------------------------------------------------

WARNING!
-> SCC is NOT converged, maximal SCC iterations exceeded

--------------------------------------------------------------------------------
DFTB+ running times                          cpu [s]             wall clock [s]
--------------------------------------------------------------------------------
SCC                                    +     1.40  ( 80.4%)      1.41  ( 80.3%)
      Sparse to dense                        0.07  (  4.1%)      0.07  (  4.0%)
      Dense to sparse                        0.24  ( 14.0%)      0.26  ( 15.0%)
      Range separated Hamiltonian            0.13  (  7.3%)      0.12  (  7.1%)
  Density matrix creation                    0.15  (  8.7%)      0.15  (  8.6%)
  Force calculation                          0.34  ( 19.5%)      0.34  ( 19.4%)
--------------------------------------------------------------------------------
Missing                                +     0.34  ( 19.6%)      0.35  ( 19.7%)
Total                                  =     1.74  (100.0%)      1.76  (100.0%)
--------------------------------------------------------------------------------
