|===============================================================================
|
|  DFTB+ release 20.1
|
|  Copyright (C) 2006 - 2020  DFTB+ developers group
|
|===============================================================================
|
|  When publishing results obtained with DFTB+, please cite the following
|  reference:
|
|  * DFTB+, a software package for efficient approximate density functional
|    theory based atomistic simulations, J. Chem. Phys. 152, 124101 (2020).
|    [doi: 10.1063/1.5143190]
|
|  You should also cite additional publications crediting the parametrization
|  data you use. Please consult the documentation of the SK-files for the
|  references.
|
|===============================================================================

Reading input file 'dftb_in.hsd'
Parser version: 8

--------------------------------------------------------------------------------
Reading SK-files:
Done.


Processed input in HSD format written to 'dftb_pin.hsd'

Starting initialization...
--------------------------------------------------------------------------------
OpenMP threads:              1
Chosen random seed:          504127457
Mode:                        Static calculation
Self consistent charges:     Yes
SCC-tolerance:                 0.100000E-05
Max. scc iterations:                   1000
Shell resolved Hubbard:      No
Spin polarisation:           No
Nr. of up electrons:            16.000000
Nr. of down electrons:          16.000000
Periodic boundaries:         No
Electronic solver:           Relatively robust
Maximal SCC-cycles:                    1000
Initial charges:             Set automatically (system chrg:   0.100E+01)
Included shells:             C:  s, p
                             H:  s
                             N:  s, p
Spin coupling constants:     C   1(s)-1(s):  -0.455900E-01
                             C   1(s)-2(p):  -0.293000E-01
                             C   2(p)-1(s):  -0.293000E-01
                             C   2(p)-2(p):  -0.275500E-01
                             H   1(s)-1(s):  -0.792500E-01
                             N   1(s)-1(s):  -0.468700E-01
                             N   1(s)-2(p):  -0.317000E-01
                             N   2(p)-1(s):  -0.317000E-01
                             N   2(p)-2(p):  -0.307200E-01
Range separated hybrid:      Yes
  Screening parameter omega:   0.300000E+00
  Range separated algorithm:   MatrixBased
Extra options:
                             Mulliken analysis
                             Force calculation
Force type                   original
                             Eigenvector printing


REKS Calcuation:             Yes
SSR(2,2) Calcuation:         Yes
Energy Functional:           (PPS+OSS)/2
Number of Core Orbitals:                 15
Number of Active Orbitals:                2
Number of Basis:                         32
Number of States:                         2
State-Averaging Weight:          0.500000
                                 0.500000
State of Interest:                        1
Initial Guess:               Diagonalize H0 matrix
Newton-Raphson for FON opt:  Yes
NR max. Iterations:                      50
Level Shifting:              Yes
Shift Value:                     0.300000
W Scale Factor:              C  =    3.200000
                             H  =    3.200000
                             N  =    3.200000
Transition Dipole:           No
Gradient of Microstate:      No
CP-REKS Solver:              Preconditioned Conjugate-Gradient
CG max. Iterations:                     100
CG Tolerance:                  0.100000E-07
Memory for A and Hxc:        Direct Updating Without Saving
Non-Adiabatic Coupling:      Yes

--------------------------------------------------------------------------------

***  Geometry step: 0

  iSCC       reks energy        Diff energy         x_a       SCC error   
    1      -16.3850873272       0.0000000000     0.998554    1.21701211
    2      -16.3983887411      -0.0133014139     0.999703    0.03260015
    3      -16.4015040397      -0.0031152985     0.999876    0.01714798
    4      -16.4026946062      -0.0011905666     0.999930    0.00997234
    5      -16.4032891020      -0.0005944958     0.999954    0.00650153
    6      -16.4036438799      -0.0003547779     0.999966    0.00527463
    7      -16.4038868980      -0.0002430182     0.999973    0.00438750
    8      -16.4040722301      -0.0001853321     0.999978    0.00371889
    9      -16.4042251896      -0.0001529595     0.999981    0.00320138
   10      -16.4043585155      -0.0001333259     0.999984    0.00279269
   11      -16.4044789975      -0.0001204819     0.999986    0.00246433
   12      -16.4045904412      -0.0001114437     0.999988    0.00219629
   13      -16.4046950823      -0.0001046411     0.999989    0.00197413
   14      -16.4047942936      -0.0000992113     0.999990    0.00191059
   15      -16.4048889529      -0.0000946593     0.999991    0.00206789
   16      -16.4049796420      -0.0000906891     0.999992    0.00218805
   17      -16.4050667582      -0.0000871162     0.999993    0.00227870
   18      -16.4051505790      -0.0000838208     0.999994    0.00234562
   19      -16.4052313015      -0.0000807225     0.999995    0.00239319
   20      -16.4053090675      -0.0000777660     0.999995    0.00242477
   21      -16.4053839799      -0.0000749124     0.999996    0.00244294
   22      -16.4054561138      -0.0000721340     0.999996    0.00244975
   23      -16.4055255252      -0.0000694114     0.999997    0.00244678
   24      -16.4055922566      -0.0000667313     0.999997    0.00243536
   25      -16.4056563416      -0.0000640850     0.999997    0.00241653
   26      -16.4057178090      -0.0000614674     0.999998    0.00239121
   27      -16.4057766851      -0.0000588761     0.999998    0.00236015
   28      -16.4058329961      -0.0000563110     0.999998    0.00232403
   29      -16.4058867698      -0.0000537737     0.999998    0.00228345
   30      -16.4059380371      -0.0000512673     0.999999    0.00223895
   31      -16.4059868326      -0.0000487956     0.999999    0.00219103
   32      -16.4060331959      -0.0000463632     0.999999    0.00214015
   33      -16.4060771711      -0.0000439752     0.999999    0.00208676
   34      -16.4061188078      -0.0000416367     0.999999    0.00203127
   35      -16.4061581608      -0.0000393530     0.999999    0.00197406
   36      -16.4061952897      -0.0000371289     0.999999    0.00191549
   37      -16.4062302590      -0.0000349693     0.999999    0.00185592
   38      -16.4062631372      -0.0000328783     0.999999    0.00179567
   39      -16.4062939968      -0.0000308596     0.999999    0.00173504
   40      -16.4063229133      -0.0000289164     1.000000    0.00167430
   41      -16.4063499646      -0.0000270513     1.000000    0.00161372
   42      -16.4063752307      -0.0000252661     1.000000    0.00155354
   43      -16.4063987929      -0.0000235622     1.000000    0.00149396
   44      -16.4064207330      -0.0000219401     1.000000    0.00143518
   45      -16.4064411330      -0.0000204000     1.000000    0.00137736
   46      -16.4064600744      -0.0000189414     1.000000    0.00132067
   47      -16.4064776377      -0.0000175633     1.000000    0.00126521
   48      -16.4064939021      -0.0000162644     1.000000    0.00121111
   49      -16.4065089448      -0.0000150427     1.000000    0.00115845
   50      -16.4065228411      -0.0000138963     1.000000    0.00110730
   51      -16.4065356637      -0.0000128226     1.000000    0.00105773
   52      -16.4065474826      -0.0000118189     1.000000    0.00100977
   53      -16.4065583651      -0.0000108825     1.000000    0.00096344
   54      -16.4065683755      -0.0000100104     1.000000    0.00091878
   55      -16.4065775750      -0.0000091995     1.000000    0.00087577
   56      -16.4065860218      -0.0000084468     1.000000    0.00083648
   57      -16.4065937708      -0.0000077490     1.000000    0.00080244
   58      -16.4066008740      -0.0000071032     1.000000    0.00076933
   59      -16.4066073803      -0.0000065062     1.000000    0.00073718
   60      -16.4066133354      -0.0000059551     1.000000    0.00070600
   61      -16.4066187823      -0.0000054469     1.000000    0.00067582
   62      -16.4066237612      -0.0000049789     1.000000    0.00064662
   63      -16.4066283094      -0.0000045483     1.000000    0.00061842
   64      -16.4066324619      -0.0000041525     1.000000    0.00059121
   65      -16.4066362510      -0.0000037891     1.000000    0.00056499
   66      -16.4066397066      -0.0000034556     1.000000    0.00053973
   67      -16.4066428566      -0.0000031500     1.000000    0.00051544
   68      -16.4066457267      -0.0000028701     1.000000    0.00049209
   69      -16.4066483406      -0.0000026139     1.000000    0.00046966
   70      -16.4066507202      -0.0000023796     1.000000    0.00044813
   71      -16.4066528856      -0.0000021654     1.000000    0.00042748
   72      -16.4066548554      -0.0000019698     1.000000    0.00040769
   73      -16.4066566467      -0.0000017913     1.000000    0.00038873
   74      -16.4066582750      -0.0000016283     1.000000    0.00037058
   75      -16.4066597548      -0.0000014798     1.000000    0.00035321
   76      -16.4066610992      -0.0000013444     1.000000    0.00033659
   77      -16.4066623202      -0.0000012210     1.000000    0.00032070
   78      -16.4066634289      -0.0000011087     1.000000    0.00030552
   79      -16.4066644353      -0.0000010065     1.000000    0.00029101
   80      -16.4066653488      -0.0000009134     1.000000    0.00027716
   81      -16.4066661776      -0.0000008288     1.000000    0.00026393
   82      -16.4066669295      -0.0000007519     1.000000    0.00025131
   83      -16.4066676114      -0.0000006820     1.000000    0.00023926
   84      -16.4066682298      -0.0000006184     1.000000    0.00022777
   85      -16.4066687905      -0.0000005607     1.000000    0.00021681
   86      -16.4066692988      -0.0000005083     1.000000    0.00020636
   87      -16.4066697595      -0.0000004607     1.000000    0.00019640
   88      -16.4066701770      -0.0000004175     1.000000    0.00018691
   89      -16.4066705553      -0.0000003783     1.000000    0.00017786
   90      -16.4066708980      -0.0000003427     1.000000    0.00016924
   91      -16.4066712085      -0.0000003105     1.000000    0.00016103
   92      -16.4066714897      -0.0000002812     1.000000    0.00015321
   93      -16.4066717444      -0.0000002547     1.000000    0.00014576
   94      -16.4066719750      -0.0000002306     1.000000    0.00013867
   95      -16.4066721838      -0.0000002088     1.000000    0.00013191
   96      -16.4066723729      -0.0000001891     1.000000    0.00012548
   97      -16.4066725440      -0.0000001712     1.000000    0.00011936
   98      -16.4066726990      -0.0000001549     1.000000    0.00011353
   99      -16.4066728392      -0.0000001402     1.000000    0.00010798
  100      -16.4066729661      -0.0000001269     1.000000    0.00010271
  101      -16.4066730810      -0.0000001149     1.000000    0.00009768
  102      -16.4066731849      -0.0000001039     1.000000    0.00009290
  103      -16.4066732790      -0.0000000941     1.000000    0.00008835
  104      -16.4066733641      -0.0000000851     1.000000    0.00008403
  105      -16.4066734411      -0.0000000770     1.000000    0.00007991
  106      -16.4066735108      -0.0000000697     1.000000    0.00007599
  107      -16.4066735738      -0.0000000630     1.000000    0.00007226
  108      -16.4066736308      -0.0000000570     1.000000    0.00006872
  109      -16.4066736824      -0.0000000516     1.000000    0.00006535
  110      -16.4066737290      -0.0000000466     1.000000    0.00006214
  111      -16.4066737712      -0.0000000422     1.000000    0.00005909
  112      -16.4066738094      -0.0000000382     1.000000    0.00005618
  113      -16.4066738439      -0.0000000345     1.000000    0.00005342
  114      -16.4066738751      -0.0000000312     1.000000    0.00005080
  115      -16.4066739033      -0.0000000282     1.000000    0.00004830
  116      -16.4066739288      -0.0000000255     1.000000    0.00004592
  117      -16.4066739519      -0.0000000231     1.000000    0.00004367
  118      -16.4066739728      -0.0000000209     1.000000    0.00004152
  119      -16.4066739917      -0.0000000189     1.000000    0.00003948
  120      -16.4066740087      -0.0000000171     1.000000    0.00003753
  121      -16.4066740242      -0.0000000154     1.000000    0.00003569
  122      -16.4066740381      -0.0000000140     1.000000    0.00003393
  123      -16.4066740507      -0.0000000126     1.000000    0.00003226
  124      -16.4066740622      -0.0000000114     1.000000    0.00003067
  125      -16.4066740725      -0.0000000103     1.000000    0.00002916
  126      -16.4066740818      -0.0000000093     1.000000    0.00002773
  127      -16.4066740902      -0.0000000084     1.000000    0.00002636
  128      -16.4066740978      -0.0000000076     1.000000    0.00002506
  129      -16.4066741047      -0.0000000069     1.000000    0.00002383
  130      -16.4066741110      -0.0000000062     1.000000    0.00002265
  131      -16.4066741166      -0.0000000056     1.000000    0.00002154
  132      -16.4066741217      -0.0000000051     1.000000    0.00002048
  133      -16.4066741263      -0.0000000046     1.000000    0.00001947
  134      -16.4066741304      -0.0000000042     1.000000    0.00001851
  135      -16.4066741342      -0.0000000038     1.000000    0.00001760
  136      -16.4066741376      -0.0000000034     1.000000    0.00001673
  137      -16.4066741407      -0.0000000031     1.000000    0.00001590
  138      -16.4066741434      -0.0000000028     1.000000    0.00001512
  139      -16.4066741460      -0.0000000025     1.000000    0.00001437
  140      -16.4066741482      -0.0000000023     1.000000    0.00001367
  141      -16.4066741503      -0.0000000021     1.000000    0.00001299
  142      -16.4066741521      -0.0000000019     1.000000    0.00001235
  143      -16.4066741538      -0.0000000017     1.000000    0.00001174
  144      -16.4066741553      -0.0000000015     1.000000    0.00001116
  145      -16.4066741567      -0.0000000014     1.000000    0.00001061
  146      -16.4066741579      -0.0000000012     1.000000    0.00001009
  147      -16.4066741590      -0.0000000011     1.000000    0.00000959
  148      -16.4066741601      -0.0000000010     1.000000    0.00000912
  149      -16.4066741610      -0.0000000009     1.000000    0.00000867
  150      -16.4066741618      -0.0000000008     1.000000    0.00000824
  151      -16.4066741625      -0.0000000007     1.000000    0.00000784
  152      -16.4066741632      -0.0000000007     1.000000    0.00000745
  153      -16.4066741638      -0.0000000006     1.000000    0.00000708
  154      -16.4066741644      -0.0000000006     1.000000    0.00000673
  155      -16.4066741649      -0.0000000005     1.000000    0.00000640
  156      -16.4066741653      -0.0000000005     1.000000    0.00000608
  157      -16.4066741657      -0.0000000004     1.000000    0.00000578
  158      -16.4066741661      -0.0000000004     1.000000    0.00000550
  159      -16.4066741664      -0.0000000003     1.000000    0.00000523
  160      -16.4066741667      -0.0000000003     1.000000    0.00000497
  161      -16.4066741670      -0.0000000003     1.000000    0.00000472
  162      -16.4066741673      -0.0000000002     1.000000    0.00000449
  163      -16.4066741675      -0.0000000002     1.000000    0.00000427
  164      -16.4066741677      -0.0000000002     1.000000    0.00000406
  165      -16.4066741679      -0.0000000002     1.000000    0.00000386
  166      -16.4066741680      -0.0000000002     1.000000    0.00000367
  167      -16.4066741682      -0.0000000001     1.000000    0.00000349
  168      -16.4066741683      -0.0000000001     1.000000    0.00000332
  169      -16.4066741684      -0.0000000001     1.000000    0.00000315
  170      -16.4066741685      -0.0000000001     1.000000    0.00000300
  171      -16.4066741686      -0.0000000001     1.000000    0.00000285
  172      -16.4066741687      -0.0000000001     1.000000    0.00000271
  173      -16.4066741688      -0.0000000001     1.000000    0.00000257
  174      -16.4066741689      -0.0000000001     1.000000    0.00000245
  175      -16.4066741689      -0.0000000001     1.000000    0.00000233
  176      -16.4066741690      -0.0000000001     1.000000    0.00000221
  177      -16.4066741691      -0.0000000001     1.000000    0.00000210
  178      -16.4066741691      -0.0000000000     1.000000    0.00000200
  179      -16.4066741691      -0.0000000000     1.000000    0.00000190
  180      -16.4066741692      -0.0000000000     1.000000    0.00000181
  181      -16.4066741692      -0.0000000000     1.000000    0.00000172
  182      -16.4066741693      -0.0000000000     1.000000    0.00000163
  183      -16.4066741693      -0.0000000000     1.000000    0.00000155
  184      -16.4066741693      -0.0000000000     1.000000    0.00000148
  185      -16.4066741693      -0.0000000000     1.000000    0.00000140
  186      -16.4066741694      -0.0000000000     1.000000    0.00000133
  187      -16.4066741694      -0.0000000000     1.000000    0.00000127
  188      -16.4066741694      -0.0000000000     1.000000    0.00000121
  189      -16.4066741694      -0.0000000000     1.000000    0.00000115
  190      -16.4066741694      -0.0000000000     1.000000    0.00000109
  191      -16.4066741694      -0.0000000000     1.000000    0.00000104
  192      -16.4066741694      -0.0000000000     1.000000    0.00000098
  
--------------------------------------------------
 Final SA-REKS(2,2) energy:     -16.40667417
  
 State     Energy      FON(1)    FON(2)   Spin
  PPS  -16.46511361   2.000000  0.000000  0.00
  OSS  -16.34823473   1.000000  1.000000  0.00
 Trip  -16.36995615   1.000000  1.000000  1.00
--------------------------------------------------

 Lagrangian Wab:  -0.00147619 -0.00147634

--------------------------------------------------
 SSR: 2SI-2SA-REKS(2,2) Hamiltonian matrix
               PPS           OSS
   PPS   -16.46511361   -0.00208722
   OSS    -0.00208722  -16.34823473
--------------------------------------------------

----------------------------------------------------------------
 SSR: 2SI-2SA-REKS(2,2) states
                    E_n       C_{PPS}    C_{OSS}
 SSR state  1  -16.46515087  -0.999841  -0.017849
 SSR state  2  -16.34819747   0.017849  -0.999841
----------------------------------------------------------------

 unrelaxed SSR FONs for S0:  1.999681  0.000319

Total Energy:                      -16.4651508737 H         -448.0396 eV
Extrapolated to 0:                 -16.4651508737 H         -448.0396 eV

----------------------------------------------------------------------------------
 Solving CP-REKS equation for  1 state vector...
----------------------------------------------------------------------------------
  CG solver: Constructing Y initial guess
  CG solver: Iteration    1    eps =    0.000248802095
  CG solver: Iteration    2    eps =    0.000076916603
  CG solver: Iteration    3    eps =    0.000096408266
  CG solver: Iteration    4    eps =    0.000016503052
  CG solver: Iteration    5    eps =    0.000012026161
  CG solver: Iteration    6    eps =    0.000002252423
  CG solver: Iteration    7    eps =    0.000000168839
  CG solver: Iteration    8    eps =    0.000000029422
  CG solver: Iteration    9    eps =    0.000000004408
  Convergence reached in CG solver after    9 iterations
  CG solver: Calculating converged R, Z, Q2 matrix
----------------------------------------------------------------------------------

----------------------------------------------------------------------------------
 Solving CP-REKS equation for SI between  1 and  2 state vectors...
----------------------------------------------------------------------------------
  CG solver: Constructing Y initial guess
  CG solver: Iteration    1    eps =    0.015817627213
  CG solver: Iteration    2    eps =    0.000704619967
  CG solver: Iteration    3    eps =    0.000111322441
  CG solver: Iteration    4    eps =    0.000265335418
  CG solver: Iteration    5    eps =    0.000119133452
  CG solver: Iteration    6    eps =    0.000028216300
  CG solver: Iteration    7    eps =    0.000016929704
  CG solver: Iteration    8    eps =    0.000001178428
  CG solver: Iteration    9    eps =    0.000000073194
  CG solver: Iteration   10    eps =    0.000000020938
  CG solver: Iteration   11    eps =    0.000000004603
  Convergence reached in CG solver after   11 iterations
  CG solver: Calculating converged R, Z, Q2 matrix
----------------------------------------------------------------------------------

--------------------------------------------------
 Gradient Information
--------------------------------------------------
           1 st state (SSR)
     0.05067897    -0.01232884    -0.02956038
    -0.02508312    -0.01988873     0.00767736
    -0.00856992     0.00746112     0.01934595
     0.00940837     0.02682734    -0.00874567
     0.00595708     0.01586077     0.01053962
    -0.07419757     0.01010899    -0.05947535
     0.00416842     0.03541114     0.02109524
     0.04314802    -0.06095309     0.05036922
     0.00374836    -0.02593009     0.01451867
    -0.08202688     0.04256887    -0.00447765
    -0.00194024     0.00456923    -0.05089185
     0.10553643    -0.04224803     0.05701752
    -0.00839191    -0.00000353     0.00330842
    -0.02243603     0.01854485    -0.03072109

           2 st state (SSR)
     0.11338837    -0.01741297    -0.07205722
    -0.09870457    -0.03376894     0.03712232
    -0.01152547     0.01274343     0.00964742
     0.01896799     0.01796068     0.00076187
     0.00254521     0.02204978     0.00692147
    -0.05195444     0.05395082    -0.02471983
    -0.02080411     0.01089929     0.02294378
     0.04804930    -0.06715549     0.03900743
     0.00719393    -0.02381785     0.01324850
    -0.03873167     0.02708260     0.00122419
    -0.00336379     0.01110635    -0.04906231
     0.06280326    -0.03122372     0.04171502
    -0.00337961     0.00130109    -0.00019149
    -0.02448439     0.01628490    -0.02656115
--------------------------------------------------
 Coupling Information
--------------------------------------------------
 between  1 and  2 states
--------------------------------------------------
 g vector - difference gradient
    -0.03175694     0.00262177     0.02142167
     0.03729044     0.00712419    -0.01495531
     0.00149062    -0.00267014     0.00490257
    -0.00483262     0.00446743    -0.00478754
     0.00177881    -0.00315989     0.00191164
    -0.01111824    -0.02204423    -0.01727765
     0.01240617     0.01217796    -0.00110061
    -0.00245470     0.00309603     0.00573882
    -0.00168476    -0.00110369     0.00055841
    -0.02177297     0.00786229    -0.00286289
     0.00071959    -0.00330227    -0.00092833
     0.02144564    -0.00557205     0.00766970
    -0.00253197    -0.00064870     0.00177918
     0.00102092     0.00115132    -0.00206968

 h vector - derivative coupling
     0.01070259    -0.00218620    -0.00447165
    -0.01277404    -0.00503017     0.00625595
    -0.00033338     0.00076453    -0.00140592
     0.00139314    -0.00087547     0.00086066
    -0.00201000     0.00177537    -0.00283924
    -0.00029163     0.00306141    -0.00311318
     0.00246545     0.00240160     0.00492071
     0.00006981     0.00019997    -0.00152056
    -0.00109539     0.00131303     0.00215811
     0.00312367    -0.00319808     0.00028433
    -0.00020620     0.00088541     0.00036318
    -0.00183208     0.00157863    -0.00038003
     0.00067835    -0.00011264    -0.00078715
     0.00010972    -0.00057738    -0.00032522

 G vector - GDV
    -0.03135470     0.00254207     0.02124842
     0.03681073     0.00694010    -0.01472248
     0.00147777    -0.00264115     0.00484926
    -0.00477981     0.00443333    -0.00475377
     0.00170594    -0.00309451     0.00180908
    -0.01112157    -0.02192091    -0.01737776
     0.01248627     0.01225592    -0.00092427
    -0.00245064     0.00310120     0.00568089
    -0.00172278    -0.00105612     0.00063509
    -0.02164760     0.00774313    -0.00285092
     0.00071177    -0.00326856    -0.00091477
     0.02136659    -0.00551216     0.00765125
    -0.00250615    -0.00065231     0.00174995
     0.00102418     0.00112998    -0.00207997

 H vector - DCV - non-adiabatic coupling
     0.10114523    -0.01948115    -0.04474778
    -0.12053448    -0.04515687     0.05802111
    -0.00330365     0.00734775    -0.01350974
     0.01337922    -0.00884425     0.00881545
    -0.01771823     0.01613483    -0.02484466
     0.00090121     0.03288732    -0.02132904
     0.01728090     0.01680495     0.04238323
     0.00134567     0.00076385    -0.01474457
    -0.00884591     0.01155663     0.01827053
     0.03333658    -0.02972698     0.00330336
    -0.00198161     0.00857364     0.00338670
    -0.02220012     0.01518988    -0.00558810
     0.00656923    -0.00076451    -0.00726917
     0.00062596    -0.00528508    -0.00214733
--------------------------------------------------


--------------------------------------------------------------------------------
DFTB+ running times                          cpu [s]             wall clock [s]
--------------------------------------------------------------------------------
SCC                                    +     0.20  ( 45.7%)      0.20  ( 45.5%)
      Dense to sparse                        0.03  (  7.5%)      0.03  (  6.7%)
      Range separated Hamiltonian            0.02  (  3.7%)      0.02  (  3.6%)
  Density matrix creation                    0.02  (  4.5%)      0.02  (  4.9%)
Post-SCC processing                    +     0.24  ( 53.5%)      0.24  ( 53.1%)
  Force calculation                          0.24  ( 53.4%)      0.24  ( 52.9%)
--------------------------------------------------------------------------------
Missing                                +     0.00  (  0.8%)      0.01  (  1.3%)
Total                                  =     0.44  (100.0%)      0.45  (100.0%)
--------------------------------------------------------------------------------
