     6
  Step:     0            Position(A)                                  Velocity(au)
C        -0.03574712     0.00092320     0.03165274    -0.00004303     0.00001819     0.00015885
N        -0.04323127    -0.04049863     1.28806076     0.00017724     0.00004860    -0.00018748
H         0.91967482     0.04050343    -0.52109389     0.00028969    -0.00027426    -0.00042160
H         0.83857222    -0.17874939     1.83319096    -0.00125057    -0.00000339    -0.00005314
H        -0.94105642    -0.11436909     1.84879991    -0.00116195    -0.00053670     0.00078569
H        -1.00340674     0.13461902    -0.54537691     0.00017263    -0.00007783     0.00040151
     6
  Step:     1            Position(A)                                  Velocity(au)
C        -0.03600233     0.00103962     0.03213375    -0.00004952     0.00002447     0.00001623
N        -0.04226992    -0.04022959     1.28737555     0.00017236     0.00004989    -0.00006227
H         0.92153753     0.03894453    -0.52334983     0.00038556    -0.00029667    -0.00040047
H         0.83171537    -0.17883500     1.83278786    -0.00124429    -0.00003039    -0.00008793
H        -0.94727871    -0.11737252     1.85287889    -0.00109916    -0.00056072     0.00069719
H        -1.00250819     0.13414070    -0.54300650     0.00015282    -0.00009711     0.00046321
     6
  Step:     2            Position(A)                                  Velocity(au)
C        -0.03628871     0.00119079     0.03183023    -0.00005439     0.00003104    -0.00012747
N        -0.04134612    -0.03995296     1.28737968     0.00016368     0.00005154     0.00006397
H         0.92389184     0.03725866    -0.52547402     0.00046878    -0.00032162    -0.00037380
H         0.82496297    -0.17908182     1.83222928    -0.00121230    -0.00006337    -0.00010916
H        -0.95307829    -0.12050191     1.85642531    -0.00100977    -0.00058391     0.00059284
H        -1.00173530     0.13355692    -0.54031064     0.00012692    -0.00011726     0.00052020
     6
  Step:     3            Position(A)                                  Velocity(au)
C        -0.03659707     0.00137900     0.03073983    -0.00005754     0.00003816    -0.00027113
N        -0.04048012    -0.03966597     1.28807504     0.00015138     0.00005383     0.00019004
H         0.92666366     0.03542762    -0.52743733     0.00053752    -0.00035061    -0.00034214
H         0.81845881    -0.17952797     1.83159424    -0.00115362    -0.00010432    -0.00011511
H        -0.95832057    -0.12375758     1.85936166    -0.00089746    -0.00060795     0.00047591
H        -1.00112027     0.13285851    -0.53731808     0.00009564    -0.00013993     0.00057140
     6
  Step:     4            Position(A)                                  Velocity(au)
C        -0.03691779     0.00160799     0.02886585    -0.00005890     0.00004609    -0.00041378
N        -0.03969106    -0.03936442     1.28945740     0.00013566     0.00005698     0.00031490
H         0.92976866     0.03342534    -0.52921471     0.00058945    -0.00038488    -0.00030641
H         0.81235009    -0.18022239     1.83097075    -0.00106789    -0.00015508    -0.00010416
H        -0.96289046    -0.12714880     1.86162856    -0.00076540    -0.00063423     0.00034974
H        -1.00068964     0.13202701    -0.53406338     0.00006061    -0.00016682     0.00061556
     6
  Step:     5            Position(A)                                  Velocity(au)
C        -0.03724106     0.00188289     0.02621585    -0.00005847     0.00005500    -0.00055462
N        -0.03899693    -0.03904303     1.29151791     0.00011675     0.00006107     0.00043769
H         0.93310835     0.03121965    -0.53078745     0.00062147    -0.00042489    -0.00026800
H         0.80678323    -0.18122346     1.83045541    -0.00095572    -0.00021672    -0.00007475
H        -0.96668887    -0.13069176     1.86318543    -0.00061631    -0.00066332     0.00021804
H        -1.00045756     0.13103458    -0.53058792     0.00002497    -0.00019923     0.00065124
     6
  Step:     6            Position(A)                                  Velocity(au)
C        -0.03755725     0.00220955     0.02280028    -0.00005633     0.00006483    -0.00069274
N        -0.03841425    -0.03869651     1.29424426     0.00009497     0.00006591     0.00055750
H         0.93656538     0.02877850    -0.53214575     0.00063024    -0.00046928    -0.00022865
H         0.80189779    -0.18259258     1.83015320    -0.00081885    -0.00028831    -0.00002563
H        -0.96963071    -0.13440326     1.86401313    -0.00045292    -0.00069399     0.00008500
H        -1.00041653     0.12984812    -0.52694111    -0.00000699    -0.00023691     0.00067679
     6
  Step:     7            Position(A)                                  Velocity(au)
C        -0.03785752     0.00259242     0.01863425    -0.00005264     0.00007504    -0.00082630
N        -0.03795754    -0.03832170     1.29761941     0.00007078     0.00007093     0.00067266
H         0.94000589     0.02608371    -0.53328981     0.00061435    -0.00051420    -0.00018994
H         0.79782146    -0.18437881     1.83017485    -0.00065978    -0.00036599     0.00004320
H        -0.97164574    -0.13828704     1.86411567    -0.00027872    -0.00072256    -0.00004525
H        -1.00053410     0.12844172    -0.52318088    -0.00003212    -0.00027712     0.00069073
     6
  Step:     8            Position(A)                                  Velocity(au)
C        -0.03813409     0.00303180     0.01374571    -0.00004758     0.00008481    -0.00095173
N        -0.03763864    -0.03791927     1.30161525     0.00004477     0.00007548     0.00078019
H         0.94329746     0.02314391    -0.53422714     0.00057607    -0.00055487    -0.00015290
H         0.79466791    -0.18660308     1.83062663    -0.00048160    -0.00044446     0.00012941
H        -0.97268492    -0.14232112     1.86351724    -0.00009866    -0.00074450    -0.00016929
H        -1.00076850     0.12681148    -0.51937212    -0.00005098    -0.00031564     0.00069186
     6
  Step:     9            Position(A)                                  Velocity(au)
C        -0.03837989     0.00352349     0.00818537    -0.00004124     0.00009344    -0.00106426
N        -0.03746599    -0.03749305     1.30618499     0.00001771     0.00007914     0.00087624
H         0.94633053     0.01999183    -0.53496852     0.00052033    -0.00058789    -0.00011809
H         0.79253409    -0.18925843     1.83159566    -0.00028854    -0.00051939     0.00022828
H        -0.97272895    -0.14646082     1.86225709     0.00008092    -0.00075675    -0.00028419
H        -1.00109378     0.12497635    -0.51558501    -0.00006736    -0.00034916     0.00067932
     6
  Step:    10            Position(A)                                  Velocity(au)
C        -0.03858808     0.00406032     0.00203052    -0.00003371     0.00010051    -0.00115910
N        -0.03744365    -0.03704812     1.31126069    -0.00000944     0.00008178     0.00095699
H         0.94902513     0.01667249    -0.53552700     0.00045242    -0.00061171    -0.00008602
H         0.79149173    -0.19232046     1.83313953    -0.00008678    -0.00058804     0.00033370
H        -0.97179421    -0.15065126     1.86038898     0.00025290    -0.00075829    -0.00038687
H        -1.00151003     0.12296797    -0.51189433    -0.00008556    -0.00037606     0.00065247
     6
  Step:    11            Position(A)                                  Velocity(au)
C        -0.03875220     0.00463362    -0.00461719    -0.00002511     0.00010582    -0.00123235
N        -0.03757031    -0.03658982     1.31675518    -0.00003560     0.00008338     0.00101940
H         0.95132756     0.01323533    -0.53591865     0.00037705    -0.00062590    -0.00005741
H         0.79157554    -0.19575350     1.83528142     0.00011556    -0.00064844     0.00043899
H        -0.96993562    -0.15483632     1.85798403     0.00040994    -0.00074945    -0.00047394
H        -1.00203886     0.12082266    -0.50837832    -0.00010862    -0.00039584     0.00061122
     6
  Step:    12            Position(A)                                  Velocity(au)
C        -0.03886657     0.00523388    -0.01163675    -0.00001568     0.00010929    -0.00128155
N        -0.03783842    -0.03612342     1.32256624    -0.00005957     0.00008399     0.00106160
H         0.95320673     0.00973097    -0.53616374     0.00029847    -0.00063064    -0.00003316
H         0.79277330    -0.19951194     1.83800815     0.00030925    -0.00069895     0.00053764
H        -0.96724781    -0.15896303     1.85513277     0.00054506    -0.00073138    -0.00054214
H        -1.00271471     0.11857793    -0.50511567    -0.00013804    -0.00040858     0.00055629
     6
  Step:    13            Position(A)                                  Velocity(au)
C        -0.03892689     0.00585127    -0.01889548    -0.00000573     0.00011100    -0.00130635
N        -0.03823405    -0.03565404     1.32858295    -0.00008031     0.00008371     0.00108347
H         0.95465298     0.00620912    -0.53628809     0.00022068    -0.00062672    -0.00001418
H         0.79502108    -0.20354084     1.84127145     0.00048531    -0.00073850     0.00062402
H        -0.96386291    -0.16298488     1.85194382     0.00065243    -0.00070597    -0.00058903
H        -1.00357676     0.11627055    -0.50218050    -0.00017399    -0.00041482     0.00048948
     6
  Step:    14            Position(A)                                  Velocity(au)
C        -0.03893075     0.00647641    -0.02626014     0.00000436     0.00011118    -0.00130891
N        -0.03873745    -0.03518636     1.33469468    -0.00009701     0.00008271     0.00108690
H         0.95567703     0.00271548    -0.53632251     0.00014722    -0.00061568    -0.00000117
H         0.79820588    -0.20777873     1.84499347     0.00063652    -0.00076698     0.00069431
H        -0.95994446    -0.16686574     1.84853911     0.00072826    -0.00067595    -0.00061363
H        -1.00466242     0.11393442    -0.49963644    -0.00021582    -0.00041566     0.00041357
     6
  Step:    15            Position(A)                                  Velocity(au)
C        -0.03887783     0.00710115    -0.03361033     0.00001427     0.00011023    -0.00129375
N        -0.03932469    -0.03472417     1.34080197    -0.00010929     0.00008127     0.00107572
H         0.95630803    -0.00071240    -0.53630129     0.00008094    -0.00059982     0.00000552
H         0.80217690    -0.21216334     1.84907697     0.00075878    -0.00078563     0.00074706
H        -0.95567571    -0.17058400     1.84504538     0.00077144    -0.00064463    -0.00061671
H        -1.00600302     0.11159763    -0.49753111    -0.00026244    -0.00041275     0.00033190
     6
  Step:    16            Position(A)                                  Velocity(au)
C        -0.03876981     0.00771953    -0.04085093     0.00003667     0.00016787    -0.00195752
N        -0.03997000    -0.03426983     1.34682659    -0.00018106     0.00012314     0.00163007
H         0.95658985    -0.00404923    -0.53626023     0.00003662    -0.00089899     0.00000908
H         0.80676333    -0.21663905     1.85341874     0.00131554    -0.00123115     0.00121000
H        -0.95124418    -0.17413585     1.84158389     0.00121046    -0.00095099    -0.00092793
H        -1.00762225     0.10927941    -0.49589329    -0.00048340    -0.00063053     0.00038266
     6
  Step:    17            Position(A)                                  Velocity(au)
C        -0.03854798     0.00862465    -0.05143817     0.00004106     0.00015029    -0.00175940
N        -0.04099256    -0.03358741     1.35567782    -0.00017508     0.00011665     0.00147699
H         0.95693750    -0.00894190    -0.53653144     0.00008900    -0.00082122    -0.00010367
H         0.81436199    -0.22345435     1.86033179     0.00133199    -0.00115905     0.00120477
H        -0.94454405    -0.17935533     1.83651613     0.00112098    -0.00088666    -0.00083930
H        -1.01070194     0.10593779    -0.49430898    -0.00059810    -0.00054495     0.00017862
     6
  Step:    18            Position(A)                                  Velocity(au)
C        -0.03830166     0.00943328    -0.06091335     0.00004516     0.00013410    -0.00156939
N        -0.04196649    -0.03293973     1.36366864    -0.00016436     0.00011098     0.00132981
H         0.95760474    -0.01341352    -0.53744235     0.00014709    -0.00075154    -0.00021453
H         0.82195192    -0.22985567     1.86715665     0.00131477    -0.00108641     0.00118084
H        -0.93846165    -0.18424635     1.83201333     0.00099662    -0.00083612    -0.00073201
H        -1.01444232     0.10306533    -0.49385649    -0.00071250    -0.00046623    -0.00001297
     6
  Step:    19            Position(A)                                  Velocity(au)
C        -0.03803318     0.01015330    -0.06932774     0.00004910     0.00012008    -0.00139825
N        -0.04286616    -0.03232230     1.37083650    -0.00015049     0.00010678     0.00119763
H         0.95861417    -0.01750882    -0.53897693     0.00020898    -0.00069409    -0.00032410
H         0.82934912    -0.23583847     1.87379228     0.00127574    -0.00101975     0.00114812
H        -0.93318351    -0.18888639     1.82817192     0.00084802    -0.00080418    -0.00061385
H        -1.01882381     0.10062323    -0.49445679    -0.00082650    -0.00039683    -0.00019122
     6
  Step:    20            Position(A)                                  Velocity(au)
C        -0.03774413     0.01079678    -0.07679028     0.00005280     0.00010809    -0.00124572
N        -0.04367529    -0.03172722     1.37726756    -0.00013405     0.00010400     0.00108031
H         0.95997767    -0.02129480    -0.54112243     0.00027273    -0.00064816    -0.00043285
H         0.83643777    -0.24143475     1.88019340     0.00121899    -0.00095893     0.00110939
H        -0.92883254    -0.19337767     1.82504311     0.00067946    -0.00079027    -0.00048752
H        -1.02382707     0.09855933    -0.49602775    -0.00093756    -0.00033595    -0.00035728
     6
  Step:    21            Position(A)                                  Velocity(au)
C        -0.03743641     0.01137498    -0.08340725     0.00005606     0.00009768    -0.00110749
N        -0.04438119    -0.03114686     1.38304648    -0.00011521     0.00010229     0.00097427
H         0.96169664    -0.02483448    -0.54386918     0.00033585    -0.00061120    -0.00054013
H         0.84312651    -0.24667656     1.88633092     0.00114459    -0.00090107     0.00106380
H        -0.92550402    -0.19781823     1.82266185     0.00049356    -0.00079137    -0.00035417
H        -1.02942035     0.09682619    -0.49849490    -0.00104093    -0.00028179    -0.00051147
     6
  Step:    22            Position(A)                                  Velocity(au)
C        -0.03711295     0.01189665    -0.08926035     0.00005865     0.00008844    -0.00097960
N        -0.04497253    -0.03057550     1.38823767    -0.00009425     0.00010127     0.00087621
H         0.96375925    -0.02817681    -0.54720414     0.00039556    -0.00058080    -0.00064441
H         0.84932563    -0.25158066     1.89217153     0.00105234    -0.00084346     0.00101015
H        -0.92327513    -0.20228828     1.82105523     0.00029445    -0.00080401    -0.00021580
H        -1.03554774     0.09538640    -0.50178676    -0.00113139    -0.00023288    -0.00065304
     6
  Step:    23            Position(A)                                  Velocity(au)
C        -0.03677773     0.01236824    -0.09440898     0.00006042     0.00008010    -0.00085961
N        -0.04543974    -0.03000955     1.39288701    -0.00007168     0.00010064     0.00078406
H         0.96613906    -0.03135739    -0.55110641     0.00044921    -0.00055522    -0.00074401
H         0.85494521    -0.25614933     1.89767571     0.00094324    -0.00078447     0.00094817
H        -0.92219706    -0.20684794     1.82023825     0.00008834    -0.00082505    -0.00007558
H        -1.04212684     0.09421076    -0.50582915    -0.00120455    -0.00018829    -0.00078099
     6
  Step:    24            Position(A)                                  Velocity(au)
C        -0.03643553     0.01279470    -0.09889861     0.00006127     0.00007248    -0.00074625
N        -0.04577626    -0.02944707     1.39702885    -0.00004818     0.00010019     0.00069682
H         0.96879589    -0.03440215    -0.55554627     0.00049455    -0.00053331    -0.00083747
H         0.85990158    -0.26037643     1.90280270     0.00081946    -0.00072351     0.00087855
H        -0.92228463    -0.21153896     1.82020775    -0.00011724    -0.00085167     0.00006257
H        -1.04905356     0.09327526    -0.51054349    -0.00125735    -0.00014747    -0.00089453
     6
  Step:    25            Position(A)                                  Velocity(au)
C        -0.03609149     0.01318000    -0.10276725     0.00006119     0.00006548    -0.00063891
N        -0.04597934    -0.02888738     1.40069164    -0.00002449     0.00009975     0.00061405
H         0.97167821    -0.03733068    -0.56048632     0.00052986    -0.00051431    -0.00092363
H         0.86412347    -0.26425286     1.90751569     0.00068391    -0.00066064     0.00080258
H        -0.92351023    -0.21638689     1.82093907    -0.00031437    -0.00088134     0.00019461
H        -1.05620958     0.09255900    -0.51584812    -0.00128810    -0.00011010    -0.00099333
     6
  Step:    26            Position(A)                                  Velocity(au)
C        -0.03575073     0.01352751    -0.10604920     0.00006020     0.00005902    -0.00053727
N        -0.04605039    -0.02833071     1.40390123    -0.00000138     0.00009918     0.00053559
H         0.97472597    -0.04015825    -0.56588342     0.00055388    -0.00049765    -0.00100170
H         0.86755585    -0.26777021     1.91178503     0.00053979    -0.00059632     0.00072184
H        -0.92580308    -0.22140284     1.82238585    -0.00049554    -0.00091175     0.00031676
H        -1.06346985     0.09204298    -0.52166077    -0.00129626    -0.00007595    -0.00107755
     6
  Step:    27            Position(A)                                  Velocity(au)
C        -0.03541815     0.01384020    -0.10877674     0.00005837     0.00005306    -0.00044113
N        -0.04599478    -0.02777800     1.40668237     0.00002049     0.00009839     0.00046139
H         0.97787348    -0.04289701    -0.57169053     0.00056587    -0.00048289    -0.00107118
H         0.87016117    -0.27092277     1.91558962     0.00039031    -0.00053118     0.00063797
H        -0.92905300    -0.22658497     1.82448214    -0.00065424    -0.00094078     0.00042580
H        -1.07070851     0.09170947    -0.52790074    -0.00128217    -0.00004483    -0.00114766
     6
  Step:    28            Position(A)                                  Velocity(au)
C        -0.03509815     0.01412072    -0.11098070     0.00005581     0.00004754    -0.00035027
N        -0.04582138    -0.02723072     1.40905920     0.00004053     0.00009731     0.00039135
H         0.98105201    -0.04555659    -0.57785848     0.00056549    -0.00046963    -0.00113183
H         0.87191920    -0.27370843     1.91891711     0.00023849    -0.00046594     0.00055253
H        -0.93311702    -0.23192005     1.82714599    -0.00078530    -0.00096659     0.00051922
H        -1.07780365     0.09154178    -0.53449079    -0.00124690    -0.00001659    -0.00120441
     6
  Step:    29            Position(A)                                  Velocity(au)
C        -0.03479458     0.01437142    -0.11269056     0.00005261     0.00004241    -0.00026448
N        -0.04554189    -0.02669074     1.41105520     0.00005831     0.00009586     0.00032538
H         0.98419201    -0.04814450    -0.58433719     0.00055273    -0.00045754    -0.00118358
H         0.87282599    -0.27612904     1.92176345     0.00008716    -0.00040132     0.00046697
H        -0.93782771    -0.23738524     1.83028370    -0.00088513    -0.00098764     0.00059530
H        -1.08464088     0.09152411    -0.54135838    -0.00119196     0.00000893    -0.00124870
     6
  Step:    30            Position(A)                                  Velocity(au)
C        -0.03451063     0.01459441    -0.11393438     0.00004889     0.00003764    -0.00018348
N        -0.04517013    -0.02616015     1.41269302     0.00007351     0.00009402     0.00026329
H         0.98722497    -0.05066638    -0.59107674     0.00052791    -0.00044629    -0.00122651
H         0.87289259    -0.27819039     1.92413222    -0.00006112    -0.00033800     0.00038258
H        -0.94300217    -0.24295000     1.83379429    -0.00095169    -0.00100273     0.00065308
H        -1.09111547     0.09164153    -0.54843636    -0.00111919     0.00003188    -0.00128152
     6
  Step:    31            Position(A)                                  Velocity(au)
C        -0.03424884     0.01479156    -0.11473865     0.00004477     0.00003317    -0.00010701
N        -0.04472133    -0.02564119     1.41399414     0.00008592     0.00009179     0.00020487
H         0.99008479    -0.05312620    -0.59802809     0.00049153    -0.00043562    -0.00126082
H         0.87214374    -0.27990200     1.92603397    -0.00020399    -0.00027664     0.00030056
H        -0.94845087    -0.24857815     1.83757372    -0.00098442    -0.00101102     0.00069233
H        -1.09713385     0.09187997    -0.55566327    -0.00103058     0.00005241    -0.00130383
     6
  Step:    32            Position(A)                                  Velocity(au)
C        -0.03401115     0.01496452    -0.11512825     0.00004034     0.00002898    -0.00003477
N        -0.04421149    -0.02513607     1.41497868     0.00009545     0.00008916     0.00014985
H         0.99270893    -0.05552653    -0.60514364     0.00044430    -0.00042529    -0.00128679
H         0.87061667    -0.28127684     1.92748550    -0.00033930    -0.00021782     0.00022198
H        -0.95398531    -0.25422986     1.84151853    -0.00098404    -0.00101201     0.00071336
H        -1.10261354     0.09222621    -0.56298307    -0.00092807     0.00007066    -0.00131657
     6
  Step:    33            Position(A)                                  Velocity(au)
C        -0.03379898     0.01511476    -0.11512642     0.00003570     0.00002503     0.00003350
N        -0.04365692    -0.02464687     1.41566519     0.00010208     0.00008618     0.00009796
H         0.99503938    -0.05786876    -0.61237765     0.00038707    -0.00041511    -0.00130476
H         0.86836004    -0.28233105     1.92850937    -0.00046508    -0.00016210     0.00014784
H        -0.95942429    -0.25986350     1.84552868    -0.00095226    -0.00100551     0.00071699
H        -1.10748317     0.09266789    -0.57034490    -0.00081363     0.00008679    -0.00132063
     6
  Step:    34            Position(A)                                  Velocity(au)
C        -0.03361323     0.01524355    -0.11475483     0.00003093     0.00002130     0.00009809
N        -0.04307373    -0.02417549     1.41607060     0.00010586     0.00008288     0.00004891
H         0.99702320    -0.06015336    -0.61968654     0.00032074    -0.00040494    -0.00131509
H         0.86543288    -0.28308360     1.92913335    -0.00057952    -0.00010995     0.00007905
H        -0.96459928    -0.26543733     1.84951009    -0.00089162    -0.00099161     0.00070438
H        -1.11168231     0.09319356    -0.57770286    -0.00068917     0.00010096    -0.00131684
     6
  Step:    35            Position(A)                                  Velocity(au)
C        -0.03345440     0.01535202    -0.11403366     0.00002610     0.00001774     0.00015923
N        -0.04247758    -0.02372352     1.41621013     0.00010689     0.00007932     0.00000241
H         0.99861269    -0.06238009    -0.62702885     0.00024626    -0.00039466    -0.00131817
H         0.86190372    -0.28355597     1.92939003    -0.00068098    -0.00006181     0.00001643
H        -0.96935773    -0.27091082     1.85337608    -0.00080517    -0.00097059     0.00067696
H        -1.11516106     0.09379269    -0.58501562    -0.00055651     0.00011334    -0.00130598
     6
  Step:    36            Position(A)                                  Velocity(au)
C        -0.03332254     0.01544115    -0.11298172     0.00002129     0.00001436     0.00021715
N        -0.04188344    -0.02329221     1.41609738     0.00010531     0.00007556    -0.00004184
H         0.99976556    -0.06454820    -0.63436541     0.00016463    -0.00038419    -0.00131437
H         0.85784964    -0.28377186     1.92931635    -0.00076798    -0.00001804    -0.00003925
H        -0.97356556    -0.27624572     1.85704855    -0.00069634    -0.00094295     0.00063629
H        -1.11787948     0.09445569    -0.59224607    -0.00041738     0.00012408    -0.00128876
     6
  Step:    37            Position(A)                                  Velocity(au)
C        -0.03321742     0.01551182    -0.11161655     0.00001654     0.00001111     0.00027205
N        -0.04130538    -0.02288247     1.41574437     0.00010129     0.00007167    -0.00008410
H         1.00044517    -0.06665658    -0.64165927     0.00007684    -0.00037349    -0.00130408
H         0.85335525    -0.28375677     1.92895315    -0.00083924     0.00002104    -0.00008733
H        -0.97710878    -0.28140692     1.86045867    -0.00056880    -0.00090928     0.00058407
H        -1.11980697     0.09517390    -0.59936095    -0.00027339     0.00013336    -0.00126579
     6
  Step:    38            Position(A)                                  Velocity(au)
C        -0.03313850     0.01556481    -0.10995465     0.00001190     0.00000800     0.00032409
N        -0.04075645    -0.02249478     1.41516166     0.00009501     0.00006771    -0.00012459
H         1.00062055    -0.06870396    -0.64887571    -0.00001607    -0.00036252    -0.00128768
H         0.84851158    -0.28353771     1.92834461    -0.00089369     0.00005521    -0.00012727
H        -0.97989454    -0.28636317     1.86354742    -0.00042635    -0.00087031     0.00052207
H        -1.12092144     0.09593956    -0.60633034    -0.00012603     0.00014132    -0.00123765
     6
  Step:    39            Position(A)                                  Velocity(au)
C        -0.03308503     0.01560080    -0.10801165     0.00000741     0.00000500     0.00037340
N        -0.04024856    -0.02212929     1.41435852     0.00008670     0.00006376    -0.00016353
H         1.00026641    -0.07068896    -0.65598213    -0.00011308    -0.00035128    -0.00126550
H         0.84341470    -0.28314270     1.92753757    -0.00093053     0.00008430    -0.00015863
H        -0.98185110    -0.29108740     1.86626563    -0.00027273    -0.00082679     0.00045201
H        -1.12120878     0.09674577    -0.61312734     0.00002330     0.00014810    -0.00120481
     6
  Step:    40            Position(A)                                  Velocity(au)
C        -0.03305608     0.01562042    -0.10580248     0.00000310     0.00000211     0.00042006
N        -0.03979241    -0.02178577     1.41334318     0.00007656     0.00005987    -0.00020108
H         0.99936311    -0.07261017    -0.66294790    -0.00021315    -0.00033977    -0.00123789
H         0.83816418    -0.28260032     1.92658071    -0.00094929     0.00010826    -0.00018117
H        -0.98292732    -0.29555691     1.86857372    -0.00011160    -0.00077950     0.00037560
H        -1.12066236     0.09758646    -0.61972768     0.00017325     0.00015386    -0.00116772
     6
  Step:    41            Position(A)                                  Velocity(au)
C        -0.03305055     0.01562427    -0.10334166    -0.00000100    -0.00000068     0.00046411
N        -0.03939745    -0.02146370     1.41212303     0.00006483     0.00005609    -0.00023733
H         0.99789667    -0.07446628    -0.66974425    -0.00031525    -0.00032799    -0.00120514
H         0.83286107    -0.28193909     1.92552344    -0.00094984     0.00012716    -0.00019484
H        -0.98309176    -0.29975342     1.87044138     0.00005358    -0.00072923     0.00029448
H        -1.11928273     0.09845629    -0.62610944     0.00032252     0.00015871    -0.00112677
     6
  Step:    42            Position(A)                                  Velocity(au)
C        -0.03306720     0.01561290    -0.10064349    -0.00000487    -0.00000337     0.00050554
N        -0.03907175    -0.02116232     1.41070501     0.00005178     0.00005246    -0.00027234
H         0.99585878    -0.07625604    -0.67634411    -0.00041832    -0.00031597    -0.00116755
H         0.82760587    -0.28118687     1.92441485    -0.00093247     0.00014115    -0.00019982
H        -0.98233176    -0.30366302     1.87184719     0.00021941    -0.00067679     0.00021026
H        -1.11707730     0.09935067    -0.63225280     0.00046984     0.00016278    -0.00108231
     6
  Step:    43            Position(A)                                  Velocity(au)
C        -0.03310467     0.01558684    -0.09772236    -0.00000848    -0.00000596     0.00054431
N        -0.03882187    -0.02088064     1.40909580     0.00003769     0.00004901    -0.00030611
H         0.99324686    -0.07797838    -0.68272209    -0.00052128    -0.00030373    -0.00112541
H         0.82249625    -0.28037016     1.92330232    -0.00089791     0.00015054    -0.00019653
H        -0.98065294    -0.30727626     1.87277848     0.00038260    -0.00062299     0.00012451
H        -1.11406023     0.10026563    -0.63813986     0.00061396     0.00016617    -0.00103468
     6
  Step:    44            Position(A)                                  Velocity(au)
C        -0.03316151     0.01554664    -0.09459291    -0.00001182    -0.00000845     0.00058032
N        -0.03865278    -0.02061755     1.40730221     0.00002287     0.00004577    -0.00033858
H         0.99006413    -0.07963240    -0.68885435    -0.00062305    -0.00029133    -0.00107901
H         0.81762456    -0.27951345     1.92223023    -0.00084733     0.00015575    -0.00018563
H        -0.97807870    -0.31058827     1.87323126     0.00053994    -0.00056867     0.00003883
H        -1.11025244     0.10119781    -0.64375452     0.00075359     0.00016898    -0.00098422
     6