    14
  Step:   600            Position(A)                                  Velocity(au)
C        -5.27593977    -1.00892225    -0.42817981     0.00045940    -0.00021825     0.00027283
C        -4.17497841    -0.49803116     0.08725085     0.00020614     0.00080293    -0.00038030
H        -6.21378070    -0.55628309    -0.28863851     0.00125408    -0.00100559     0.00038243
H        -5.47928832    -1.95578937    -0.89378533    -0.00014253     0.00075039     0.00093308
H        -3.26368662    -1.14528060     0.08589709     0.00226942     0.00208688    -0.00159891
C        -4.16208688     0.93956848     0.52662473    -0.00025893     0.00048928     0.00021811
C        -3.13309687     1.66509639     0.13217850     0.00011453    -0.00111918     0.00012702
H        -5.03637790     1.01741223     1.26242461    -0.00219063     0.00112554    -0.00205992
H        -2.80574404     2.54552966     0.50030638    -0.00246896     0.00174106    -0.00144335
C        -2.00231952     0.99848293    -0.32334914    -0.00064302    -0.00005875     0.00008503
H        -2.10597388     0.56174065    -1.26385534    -0.00029542     0.00289941    -0.00019626
N        -0.76632263     1.10712674     0.31490538     0.00020084    -0.00049118     0.00006991
H        -0.22817132     0.31988103    -0.02033310     0.00059066    -0.00035137    -0.00184913
H        -0.78510427     1.49074991     1.32102690    -0.00035549     0.00081829     0.00101547
