 Fermi distribution function

Calculation with static geometry


********************************************************************************
 iSCC Total electronic   Diff electronic      SCC error    
    9   -0.54049546E+01   -0.56488147E-12    0.19394809E-06
********************************************************************************

 Total charge:     1.00000000

 Atomic gross charges (e)
 Atom           Charge
    1       0.15992452
    2      -0.03796767
    3       0.16467039
    4       0.26923155
    5       0.27204401
    6       0.17209720

Nr. of electrons (up):     12.00000000
Atom populations (up)
 Atom       Population
    1       3.84007548
    2       5.03796767
    3       0.83532961
    4       0.73076845
    5       0.72795599
    6       0.82790280

l-shell populations (up)
 Atom Sh.   l       Population
    1   1   0       1.33105551
    1   2   1       2.50901997
    2   1   0       1.44590951
    2   2   1       3.59205816
    3   1   0       0.83532961
    4   1   0       0.73076845
    5   1   0       0.72795599
    6   1   0       0.82790280

Orbital populations (up)
 Atom Sh.   l   m       Population  Label
    1   1   0   0       1.33105551  s
    1   2   1  -1       0.58524815  p_y
    1   2   1   0       0.87410552  p_z
    1   2   1   1       1.04966630  p_x
    2   1   0   0       1.44590951  s
    2   2   1  -1       1.33070813  p_y
    2   2   1   0       1.10494720  p_z
    2   2   1   1       1.15640282  p_x
    3   1   0   0       0.83532961  s
    4   1   0   0       0.73076845  s
    5   1   0   0       0.72795599  s
    6   1   0   0       0.82790280  s

Fermi level:                        -0.5026018783 H          -13.6765 eV
Band energy:                        -8.9267684778 H         -242.9097 eV
TS:                                  0.0000000000 H            0.0000 eV
Band free energy (E-TS):            -8.9267684778 H         -242.9097 eV
Extrapolated E(0K):                 -8.9267684778 H         -242.9097 eV
Input / Output electrons (q):     12.0000000000     12.0000000000

Energy H0:                          -5.5385729889 H         -150.7122 eV
Energy SCC:                          0.1336183970 H            3.6359 eV
Total Electronic energy:            -5.4049545918 H         -147.0763 eV
Repulsive energy:                    0.1755516111 H            4.7770 eV
Total energy:                       -5.2294029808 H         -142.2993 eV
Extrapolated to 0:                  -5.2294029808 H         -142.2993 eV
Total Mermin free energy:           -5.2294029808 H         -142.2993 eV
Force related energy:               -5.2294029808 H         -142.2993 eV

SCC converged

Excitation Energy:                   0.1555800159 H            4.2335 eV

Total Forces
    1     -0.002563228850     -0.001979540814      0.034505371417
    2      0.007733001051      0.007078580981     -0.042902024612
    3     -0.006487851366     -0.000798276078      0.002458329387
    4     -0.013620126206     -0.002306886248     -0.001800492964
    5      0.005861047381      0.000393560861      0.003855631870
    6      0.009077157990     -0.002387438703      0.003883184903

Maximal derivative component:        0.429020E-01 au


