|===============================================================================
|
|  DFTB+ release 20.1
|
|  Copyright (C) 2006 - 2020  DFTB+ developers group
|
|===============================================================================
|
|  When publishing results obtained with DFTB+, please cite the following
|  reference:
|
|  * DFTB+, a software package for efficient approximate density functional
|    theory based atomistic simulations, J. Chem. Phys. 152, 124101 (2020).
|    [doi: 10.1063/1.5143190]
|
|  You should also cite additional publications crediting the parametrization
|  data you use. Please consult the documentation of the SK-files for the
|  references.
|
|===============================================================================

Reading input file 'dftb_in.hsd'
Parser version: 8

--------------------------------------------------------------------------------
Reading SK-files:
Done.


Processed input in HSD format written to 'dftb_pin.hsd'

Starting initialization...
--------------------------------------------------------------------------------
WARNING!
-> Excited state forces are not implemented yet for fractional occupations, kT=  0.3158E-02K
OpenMP threads:              1
Chosen random seed:          435692357
Mode:                        Static calculation
Self consistent charges:     Yes
SCC-tolerance:                 0.100000E-05
Max. scc iterations:                    100
Shell resolved Hubbard:      No
Spin polarisation:           No
Nr. of up electrons:             6.000000
Nr. of down electrons:           6.000000
Periodic boundaries:         No
Electronic solver:           Relatively robust
Mixer:                       Broyden mixer
Mixing parameter:                  0.200000
Maximal SCC-cycles:                     100
Nr. of chrg. vec. in memory:              0
Electronic temperature:        0.100000E-07 H      0.272114E-06 eV
Initial charges:             Set automatically (system chrg:   0.100E+01)
Included shells:             C:  s, p
                             N:  s, p
                             H:  s
Extra options:
                             Mulliken analysis
                             Force calculation
Force type                   original
                             Eigenvector printing

--------------------------------------------------------------------------------

***  Geometry step: 0

 iSCC Total electronic   Diff electronic      SCC error    
    1   -0.53983624E+01    0.00000000E+00    0.63311951E+00
    2   -0.54021369E+01   -0.37744535E-02    0.42950467E+00
    3   -0.54046814E+01   -0.25445163E-02    0.70562709E-01
    4   -0.54049497E+01   -0.26831261E-03    0.16977834E-01
    5   -0.54049529E+01   -0.32411455E-05    0.39472247E-02
    6   -0.54049546E+01   -0.16557066E-05    0.29419459E-03
    7   -0.54049546E+01   -0.16479271E-08    0.50421067E-05
    8   -0.54049546E+01   -0.45918824E-12    0.36674759E-05
    9   -0.54049546E+01   -0.56488147E-12    0.19394809E-06
>> Charges saved for restart in charges.bin

Total Energy:                       -5.0738229649 H         -138.0657 eV
Extrapolated to 0:                  -5.2294029808 H         -142.2993 eV
Total Mermin free energy:           -5.0738229649 H         -138.0657 eV
Force related energy:               -5.2294029808 H         -142.2993 eV

--------------------------------------------------------------------------------
DFTB+ running times                          cpu [s]             wall clock [s]
--------------------------------------------------------------------------------
SCC                                    +     0.01  ( 49.1%)      0.03  ( 62.0%)
Post-SCC processing                    +     0.01  ( 43.8%)      0.02  ( 32.0%)
--------------------------------------------------------------------------------
Missing                                +     0.00  (  7.2%)      0.00  (  6.0%)
Total                                  =     0.02  (100.0%)      0.05  (100.0%)
--------------------------------------------------------------------------------
