     6
  Step:     0            Position(A)                                  Velocity(au)
C        -0.04493066     0.01725088     0.03596619    -0.00001312     0.00004267     0.00005196
N        -0.04190369    -0.05251998     1.28239688    -0.00013294     0.00005676    -0.00009278
H         0.92638281    -0.02183510    -0.50686951    -0.00033793    -0.00016309     0.00033991
H         0.84572374    -0.12234765     1.85593801     0.00061038    -0.00050138     0.00065383
H        -0.91931239    -0.06695127     1.84494648     0.00134208    -0.00021473    -0.00035100
H        -0.94802706     0.06562959    -0.55118680     0.00038927    -0.00041802     0.00002731
     6
  Step:     1            Position(A)                                  Velocity(au)
C        -0.04498191     0.01749827     0.03601953    -0.00000548     0.00004786    -0.00003237
N        -0.04262014    -0.05222336     1.28213034    -0.00012768     0.00005172    -0.00000473
H         0.92459505    -0.02273374    -0.50519065    -0.00031303    -0.00016576     0.00027236
H         0.84879435    -0.12506807     1.85939623     0.00050529    -0.00049320     0.00060493
H        -0.91187717    -0.06813545     1.84303331     0.00136344    -0.00021872    -0.00033974
H        -0.94617794     0.06336303    -0.55134296     0.00028387    -0.00041133    -0.00008623
     6
  Step:     2            Position(A)                                  Velocity(au)
C        -0.04499054     0.01777415     0.03561222     0.00000240     0.00005315    -0.00011623
N        -0.04329971    -0.05195446     1.28234521    -0.00011969     0.00004674     0.00008282
H         0.92296015    -0.02364751    -0.50389146    -0.00028259    -0.00016890     0.00020143
H         0.85124860    -0.12774037     1.86255239     0.00038727    -0.00048467     0.00054541
H        -0.90440449    -0.06934271     1.84123172     0.00135699    -0.00022361    -0.00030995
H        -0.94492326     0.06113206    -0.55212968     0.00017315    -0.00040573    -0.00020295
     6
  Step:     3            Position(A)                                  Velocity(au)
C        -0.04495574     0.01807898     0.03474976     0.00001035     0.00005852    -0.00019883
N        -0.04392779    -0.05171273     1.28303518    -0.00010907     0.00004188     0.00016886
H         0.92150774    -0.02457898    -0.50299006    -0.00024677    -0.00017251     0.00012703
H         0.85302535    -0.13036309     1.86535486     0.00025937    -0.00047592     0.00047739
H        -0.89705192    -0.07057837     1.83964706     0.00132084    -0.00022954    -0.00026021
H        -0.94428623     0.05893039    -0.55356023     0.00005895    -0.00040130    -0.00032167
     6
  Step:     4            Position(A)                                  Velocity(au)
C        -0.04487754     0.01841296     0.03344174     0.00001823     0.00006390    -0.00027938
N        -0.04449034    -0.05149729     1.28418861    -0.00009590     0.00003719     0.00025240
H         0.92026628    -0.02553071    -0.50250473    -0.00020578    -0.00017655     0.00004917
H         0.85407993    -0.13293566     1.86776373     0.00012450    -0.00046703     0.00040290
H        -0.88998571    -0.07184844     1.83839112     0.00125342    -0.00023659    -0.00018954
H        -0.94427969     0.05675127    -0.55564112    -0.00005675    -0.00039805    -0.00044100
     6
  Step:     5            Position(A)                                  Velocity(au)
C        -0.04475682     0.01877603     0.03170196     0.00002587     0.00006922    -0.00035700
N        -0.04497394    -0.05130700     1.28578867    -0.00008031     0.00003273     0.00033239
H         0.91926287    -0.02650500    -0.50245362    -0.00015990    -0.00018093    -0.00003203
H         0.85438352    -0.13545799     1.86975015    -0.00001436    -0.00045801     0.00032394
H        -0.88337811    -0.07315938     1.83757934     0.00115389    -0.00024478    -0.00009761
H        -0.94490536     0.05458803    -0.55837118    -0.00017179    -0.00039586    -0.00055933
     6
  Step:     6            Position(A)                                  Velocity(au)
C        -0.04459543     0.01916774     0.02954877     0.00003307     0.00007439    -0.00043071
N        -0.04536611    -0.05114043     1.28781317    -0.00006253     0.00002853     0.00040771
H         0.91852268    -0.02750364    -0.50285399    -0.00010957    -0.00018550    -0.00011624
H         0.85392330    -0.13793010     1.87129611    -0.00015408    -0.00044882     0.00024254
H        -0.87740303    -0.07451762     1.83732670     0.00102240    -0.00025401     0.00001496
H        -0.94615295     0.05243459    -0.56174031    -0.00028373    -0.00039454    -0.00067470
     6
  Step:     7            Position(A)                                  Velocity(au)
C        -0.04439625     0.01958713     0.02700562     0.00003962     0.00007929    -0.00049937
N        -0.04565578    -0.05099592     1.29023423    -0.00004289     0.00002464     0.00047716
H         0.91806811    -0.02852765    -0.50372106    -0.00005547    -0.00019008    -0.00020283
H         0.85270350    -0.14035176     1.87239472    -0.00029117    -0.00043935     0.00016087
H        -0.87223021    -0.07592902     1.83774245     0.00086049    -0.00026409     0.00014637
H        -0.94799903     0.05028607    -0.56572790    -0.00038991    -0.00039378    -0.00078485
     6
  Step:     8            Position(A)                                  Velocity(au)
C        -0.04416324     0.02003262     0.02410184     0.00004532     0.00008379    -0.00056169
N        -0.04583393    -0.05087162     1.29301789    -0.00002186     0.00002111     0.00053944
H         0.91791761    -0.02957693    -0.50506637     0.00000147    -0.00019440    -0.00029079
H         0.85074728    -0.14272233     1.87305087    -0.00042175    -0.00042947     0.00008131
H        -0.86801706    -0.07739820     1.83892329     0.00067152    -0.00027467     0.00029338
H        -0.95040597     0.04813933    -0.57030118    -0.00048746    -0.00039318    -0.00088716
     6
  Step:     9            Position(A)                                  Velocity(au)
C        -0.04390142     0.02050189     0.02087336     0.00004997     0.00008772    -0.00061627
N        -0.04589445    -0.05076550     1.29612361    -0.00000010     0.00001795     0.00059319
H         0.91808419    -0.03064999    -0.50689575     0.00006001    -0.00019816    -0.00037869
H         0.84809905    -0.14504055     1.87328244    -0.00054145    -0.00041907     0.00000645
H        -0.86489884    -0.07892777     1.84094543     0.00046087    -0.00028528     0.00045114
H        -0.95332089     0.04599357    -0.57541349    -0.00057336    -0.00039222    -0.00097874
     6
  Step:    10            Position(A)                                  Velocity(au)
C        -0.04361690     0.02099175     0.01736344     0.00005336     0.00009091    -0.00066163
N        -0.04583503    -0.05067534     1.29950397     0.00002158     0.00001521     0.00063705
H         0.91857374    -0.03174362    -0.50920698     0.00011854    -0.00020101    -0.00046463
H         0.84482702    -0.14730456     1.87312144    -0.00064554    -0.00040804    -0.00006091
H        -0.86297778    -0.08051747     1.84385618     0.00023603    -0.00029526     0.00061329
H        -0.95667518     0.04385075    -0.58100293    -0.00064459    -0.00039035    -0.00105655
     6
  Step:    11            Position(A)                                  Velocity(au)
C        -0.04331672     0.02149806     0.01362304     0.00005534     0.00009317    -0.00069632
N        -0.04565802    -0.05059878     1.30310460     0.00004221     0.00001292     0.00066974
H         0.91938320    -0.03285268    -0.51198736     0.00017519    -0.00020257    -0.00054635
H         0.84102503    -0.14951200     1.87261502    -0.00072918    -0.00039631    -0.00011790
H        -0.86231232    -0.08216332     1.84766605     0.00000635    -0.00030386     0.00077217
H        -0.96038454     0.04171604    -0.58699154    -0.00069836    -0.00038696    -0.00111759
     6
  Step:    12            Position(A)                                  Velocity(au)
C        -0.04300866     0.02201572     0.00971057     0.00005582     0.00009435    -0.00071913
N        -0.04537109    -0.05053338     1.30686471     0.00006079     0.00001108     0.00069025
H         0.92049912    -0.03396995    -0.51521160     0.00022786    -0.00020249    -0.00062129
H         0.83681299    -0.15166021     1.87182570    -0.00078781    -0.00038391    -0.00016179
H        -0.86290802    -0.08385704     1.85234261    -0.00021754    -0.00031027     0.00091941
H        -0.96435047     0.03959790    -0.59328574    -0.00073238    -0.00038150    -0.00115922
     6
  Step:    13            Position(A)                                  Velocity(au)
C        -0.04270095     0.02253876     0.00569076     0.00005478     0.00009432    -0.00072922
N        -0.04498749    -0.05047661     1.31071835     0.00007631     0.00000970     0.00069797
H         0.92189656    -0.03508628    -0.51884048     0.00027442    -0.00020049    -0.00068689
H         0.83233510    -0.15374667     1.87083041    -0.00081771    -0.00037095    -0.00019027
H        -0.86471190    -0.08558575     1.85780760    -0.00042464    -0.00031371     0.00104681
H        -0.96846307     0.03750794    -0.59977832    -0.00074523    -0.00037352    -0.00117957
     6
  Step:    14            Position(A)                                  Velocity(au)
C        -0.04240182     0.02306058     0.00163248     0.00005229     0.00009304    -0.00072647
N        -0.04452574    -0.05042597     1.31459663     0.00008795     0.00000877     0.00069299
H         0.92353907    -0.03619090    -0.52282078     0.00031299    -0.00019640    -0.00074097
H         0.82775473    -0.15576951     1.86971792    -0.00081667    -0.00035774    -0.00020182
H        -0.86761204    -0.08733226     1.86393876    -0.00060485    -0.00031361     0.00114734
H        -0.97260584     0.03546017    -0.60635260    -0.00073667    -0.00036282    -0.00117796
     6
  Step:    15            Position(A)                                  Velocity(au)
C        -0.04211898     0.02357434    -0.00239488     0.00004853     0.00009058    -0.00071166
N        -0.04400859    -0.05037902     1.31843129     0.00009518     0.00000827     0.00067624
H         0.92538009    -0.03727218    -0.52708744     0.00034218    -0.00019027    -0.00078216
H         0.82324552    -0.15772828     1.86858411    -0.00078470    -0.00034473    -0.00019603
H        -0.87144392    -0.08907627     1.87057751    -0.00075039    -0.00030974     0.00121642
H        -0.97666222     0.03346979    -0.61288899    -0.00070796    -0.00034952    -0.00115537
     6
  Step:    16            Position(A)                                  Velocity(au)
C        -0.04185909     0.02407355    -0.00632654     0.00004377     0.00008710    -0.00068667
N        -0.04346127    -0.05033346     1.32215948     0.00009787     0.00000818     0.00064970
H         0.92736596    -0.03831877    -0.53156824     0.00036149    -0.00018240    -0.00081046
H         0.81897884    -0.15962491     1.86752556    -0.00072427    -0.00033265    -0.00017375
H        -0.87600416    -0.09079625     1.87754286    -0.00085703    -0.00030233     0.00125284
H        -0.98052343     0.03155126    -0.61927395    -0.00066185    -0.00033419    -0.00111471
     6
  Step:    17            Position(A)                                  Velocity(au)
C        -0.04162728     0.02455276    -0.01010810     0.00003983     0.00008538    -0.00071253
N        -0.04290919    -0.05028718     1.32572916     0.00009603     0.00000644     0.00066297
H         0.92944060    -0.03932098    -0.53619115     0.00033484    -0.00015082    -0.00078336
H         0.81510998    -0.16146488     1.86663247    -0.00066221    -0.00034562    -0.00016208
H        -0.88107072    -0.09247222     1.88465036    -0.00090458    -0.00027287     0.00123566
H        -0.98409657     0.02971594    -0.62541024    -0.00057720    -0.00033763    -0.00101258
     6
  Step:    18            Position(A)                                  Velocity(au)
C        -0.04141005     0.02503599    -0.01435865     0.00003685     0.00008543    -0.00078690
N        -0.04237871    -0.05026082     1.32963287     0.00009020     0.00000325     0.00071467
H         0.93114048    -0.04001886    -0.54039875     0.00026644    -0.00010526    -0.00070659
H         0.81151395    -0.16352099     1.86569851    -0.00060071    -0.00037427    -0.00016086
H        -0.88620115    -0.09387218     1.89147202    -0.00089789    -0.00023194     0.00117014
H        -0.98702999     0.02774531    -0.63068836    -0.00046033    -0.00035170    -0.00085738
     6
  Step:    19            Position(A)                                  Velocity(au)
C        -0.04121079     0.02551826    -0.01900127     0.00003348     0.00008481    -0.00084878
N        -0.04188983    -0.05025044     1.33380606     0.00008126     0.00000078     0.00075612
H         0.93245182    -0.04051057    -0.54417679     0.00019819    -0.00007217    -0.00063055
H         0.80832100    -0.16569471     1.86481449    -0.00051904    -0.00039230    -0.00014466
H        -0.89121827    -0.09509352     1.89787481    -0.00086448    -0.00020321     0.00108734
H        -0.98929898     0.02574115    -0.63509997    -0.00034289    -0.00035379    -0.00070546
     6
  Step:    20            Position(A)                                  Velocity(au)
C        -0.04103113     0.02599571    -0.02396353     0.00002999     0.00008378    -0.00090041
N        -0.04145912    -0.05025198     1.33818925     0.00006990    -0.00000098     0.00078939
H         0.93338318    -0.04083549    -0.54753416     0.00013305    -0.00004479    -0.00055869
H         0.80564045    -0.16796029     1.86406147    -0.00042105    -0.00040850    -0.00011547
H        -0.89598374    -0.09617174     1.90377645    -0.00081151    -0.00017981     0.00099528
H        -0.99091023     0.02374179    -0.63867143    -0.00022918    -0.00035161    -0.00056153
     6
  Step:    21            Position(A)                                  Velocity(au)
C        -0.04087149     0.02646608    -0.02918793     0.00002653     0.00008256    -0.00094444
N        -0.04109903    -0.05026153     1.34273673     0.00005671    -0.00000208     0.00081683
H         0.93395710    -0.04101727    -0.55049749     0.00007270    -0.00002097    -0.00049309
H         0.80355752    -0.17031619     1.86350813    -0.00031022    -0.00042601    -0.00007532
H        -0.90039915    -0.09712774     1.90913476    -0.00074501    -0.00015982     0.00089942
H        -0.99189178     0.02176327    -0.64145271    -0.00012164    -0.00034804    -0.00042800
     6
  Step:    22            Position(A)                                  Velocity(au)
C        -0.04073146     0.02692836    -0.03463231     0.00002318     0.00008126    -0.00098251
N        -0.04081847    -0.05027553     1.34741645     0.00004217    -0.00000259     0.00083986
H         0.93420448    -0.04107243    -0.55310425     0.00001806     0.00000039    -0.00043451
H         0.80213608    -0.17277262     1.86321066    -0.00018939    -0.00044604    -0.00002615
H        -0.90439963    -0.09797710     1.91393663    -0.00066924    -0.00014231     0.00080286
H        -0.99228436     0.01981016    -0.64350624    -0.00002161    -0.00034432    -0.00030562
     6
  Step:    23            Position(A)                                  Velocity(au)
C        -0.04061021     0.02738215    -0.04026381     0.00001997     0.00007986    -0.00101474
N        -0.04062362    -0.05029078     1.35220452     0.00002667    -0.00000257     0.00085864
H         0.93416070    -0.04101285    -0.55539574    -0.00003024     0.00001997    -0.00038287
H         0.80142255    -0.17534437     1.86321334    -0.00006126    -0.00046853     0.00003002
H        -0.90794357    -0.09873203     1.91818539    -0.00058692    -0.00012664     0.00070692
H        -0.99213542     0.01788169    -0.64489795     0.00006996    -0.00034070    -0.00019434
     6
  Step:    24            Position(A)                                  Velocity(au)
C        -0.04050678     0.02782695    -0.04605060     0.00001691     0.00007825    -0.00104016
N        -0.04051841    -0.05030443     1.35707819     0.00001060    -0.00000206     0.00087241
H         0.93386422    -0.04084776    -0.55741248    -0.00007152     0.00003809    -0.00033776
H         0.80144674    -0.17804467     1.86354846     0.00007088    -0.00049257     0.00009088
H        -0.91100388    -0.09940215     1.92189124    -0.00050005    -0.00011234     0.00061225
H        -0.99149719     0.01597650    -0.64569305     0.00015190    -0.00033688    -0.00009417
     6
  Step:    25            Position(A)                                  Velocity(au)
C        -0.04042011     0.02826169    -0.05195571     0.00001404     0.00007632    -0.00105737
N        -0.04050447    -0.05031398     1.36201084    -0.00000555    -0.00000114     0.00088014
H         0.93335683    -0.04058472    -0.55919238    -0.00010500     0.00005490    -0.00029883
H         0.80221924    -0.18088115     1.86423491     0.00020288    -0.00051686     0.00015373
H        -0.91356442    -0.09999481     1.92506745    -0.00041072    -0.00009909     0.00051957
H        -0.99042803     0.01409493    -0.64595648     0.00022270    -0.00033248    -0.00000551
     6
  Step:    26            Position(A)                                  Velocity(au)
C        -0.04034900     0.02868471    -0.05793476     0.00001139     0.00007399    -0.00106526
N        -0.04058076    -0.05031728     1.36697032    -0.00002123     0.00000012     0.00088102
H         0.93268411    -0.04023068    -0.56077108    -0.00012995     0.00007042    -0.00026587
H         0.80372695    -0.18385381     1.86527631     0.00032992    -0.00053998     0.00021561
H        -0.91562005    -0.10051584     1.92773090    -0.00032133    -0.00008673     0.00043004
H        -0.98899420     0.01223970    -0.64575493     0.00028072    -0.00032713     0.00007093
     6
  Step:    27            Position(A)                                  Velocity(au)
C        -0.04029202     0.02909395    -0.06393734     0.00000902     0.00007125    -0.00106330
N        -0.04074325    -0.05031261     1.37192018    -0.00003587     0.00000165     0.00087476
H         0.93189516    -0.03979260    -0.56218280    -0.00014586     0.00008460    -0.00023884
H         0.80593010    -0.18695465     1.86665997     0.00044704    -0.00056069     0.00027356
H        -0.91717864    -0.10097034     1.92990440    -0.00023460    -0.00007525     0.00034518
H        -0.98727056     0.01041551    -0.64515868     0.00032451    -0.00032069     0.00013437
     6
  Step:    28            Position(A)                                  Velocity(au)
C        -0.04024743     0.02948723    -0.06991041     0.00000699     0.00006813    -0.00105175
N        -0.04098482    -0.05029867     1.37682254    -0.00004896     0.00000336     0.00086170
H         0.93104138    -0.03927782    -0.56346113    -0.00015252     0.00009739    -0.00021773
H         0.80876184    -0.19016871     1.86835732     0.00054972    -0.00057806     0.00032499
H        -0.91826227    -0.10136342     1.93161858    -0.00015327    -0.00006473     0.00026667
H        -0.98533928     0.00862784    -0.64424153     0.00035307    -0.00031323     0.00018428
     6
  Step:    29            Position(A)                                  Velocity(au)
C        -0.04021312     0.02986258    -0.07580251     0.00000538     0.00006471    -0.00103163
N        -0.04129555    -0.05027466     1.38164131    -0.00006005     0.00000518     0.00084273
H         0.93017454    -0.03869387    -0.56463914    -0.00015016     0.00010882    -0.00020248
H         0.81213162    -0.19347591     1.87032629     0.00063447    -0.00059157     0.00036794
H        -0.91890768    -0.10170063     1.93291277    -0.00007987    -0.00005529     0.00019610
H        -0.98328745     0.00688184    -0.64307979     0.00036599    -0.00030501     0.00022049
     6
  Step:    30            Position(A)                                  Velocity(au)
C        -0.04018666     0.03021845    -0.08156774     0.00000422     0.00006109    -0.00100445
N        -0.04166338    -0.05024016     1.38634530    -0.00006887     0.00000703     0.00081911
H         0.92934461    -0.03804821    -0.56574919    -0.00013935     0.00011896    -0.00019293
H         0.81593135    -0.19685341     1.87251502     0.00069915    -0.00060112     0.00040121
H        -0.91916482    -0.10198816     1.93383446    -0.00001649    -0.00004703     0.00013475
H        -0.98120363     0.00518130    -0.64174998     0.00036351    -0.00029639     0.00024335
     6
  Step:    31            Position(A)                                  Velocity(au)
C        -0.04016536     0.03055386    -0.08716862     0.00000356     0.00005738    -0.00097201
N        -0.04207490    -0.05019516     1.39091018    -0.00007528     0.00000885     0.00079228
H         0.92859769    -0.03734780    -0.56682233    -0.00012097     0.00012797    -0.00018880
H         0.82004304    -0.20027803     1.87486627     0.00074293    -0.00060694     0.00042436
H        -0.91909423    -0.10223279     1.93443751     0.00003542    -0.00004005     0.00008345
H        -0.97917408     0.00352796    -0.64032607     0.00034645    -0.00028781     0.00025365
     6
  Step:    32            Position(A)                                  Velocity(au)
C        -0.04014638     0.03086843    -0.09257755     0.00000340     0.00005369    -0.00093608
N        -0.04251611    -0.05013987     1.39531936    -0.00007927     0.00001063     0.00076361
H         0.92797444    -0.03659870    -0.56788771    -0.00009604     0.00013607    -0.00018969
H         0.82434635    -0.20372812     1.87732167     0.00076612    -0.00060947     0.00043759
H        -0.91876360    -0.10244178     1.93477968     0.00007499    -0.00003440     0.00004259
H        -0.97727950     0.00192127    -0.63887692     0.00031603    -0.00027967     0.00025251
     6
  Step:    33            Position(A)                                  Velocity(au)
C        -0.04012686     0.03116228    -0.09777658     0.00000374     0.00005008    -0.00089818
N        -0.04297320    -0.05007470     1.39956361    -0.00008091     0.00001233     0.00073421
H         0.92750934    -0.03580578    -0.56897200    -0.00006567     0.00014348    -0.00019512
H         0.82872494    -0.20718474     1.87982520     0.00076985    -0.00060923     0.00044154
H        -0.91824447    -0.10262261     1.93492018     0.00010190    -0.00003009     0.00001214
H        -0.97559273     0.00035861    -0.63746456     0.00027373    -0.00027230     0.00024124
     6
  Step:    34            Position(A)                                  Velocity(au)
C        -0.04010399     0.03143598    -0.10275608     0.00000457     0.00004662    -0.00085950
N        -0.04343302    -0.05000013     1.40363978    -0.00008035     0.00001395     0.00070495
H         0.92723027    -0.03497278    -0.57009890    -0.00003098     0.00015035    -0.00020451
H         0.83307056    -0.21063220     1.88232544     0.00075568    -0.00060674     0.00043712
H        -0.91760884    -0.10278279     1.93491727     0.00011634    -0.00002712    -0.00000828
H        -0.97417745    -0.00116452    -0.63614312     0.00022115    -0.00026593     0.00022123
     6
  Step:    35            Position(A)                                  Velocity(au)
C        -0.04007513     0.03169043    -0.10751296     0.00000584     0.00004334    -0.00082089
N        -0.04388342    -0.04991667     1.40754926    -0.00007777     0.00001549     0.00067637
H         0.92715843    -0.03410261    -0.57128866     0.00000693     0.00015689    -0.00021725
H         0.83728528    -0.21405785     1.88477685     0.00072549    -0.00060244     0.00042533
H        -0.91692655    -0.10292985     1.93482642     0.00011879    -0.00002543    -0.00001924
H        -0.97308758    -0.00265386    -0.63495843     0.00015994    -0.00026070     0.00019388
     6
  Step:    36            Position(A)                                  Velocity(au)
C        -0.04003786     0.03192659    -0.11204870     0.00000752     0.00004023    -0.00078292
N        -0.04431341    -0.04982479     1.41129635    -0.00007338     0.00001695     0.00064878
H         0.92730877    -0.03319672    -0.57255818     0.00004701     0.00016330    -0.00023272
H         0.84128328    -0.21745188     1.88714027     0.00068131    -0.00059673     0.00040726
H        -0.91626416    -0.10307071     1.93469943     0.00010996    -0.00002493    -0.00002149
H        -0.97236690    -0.00411572    -0.63394833     0.00009185    -0.00025665     0.00016055
     6
  Step:    37            Position(A)                                  Velocity(au)
C        -0.03999010     0.03214547    -0.11636783     0.00000953     0.00003730    -0.00074595
N        -0.04471333    -0.04972492     1.41488702    -0.00006739     0.00001835     0.00062235
H         0.92769010    -0.03225570    -0.57392077     0.00008821     0.00016970    -0.00025031
H         0.84499096    -0.22080686     1.88938303     0.00062519    -0.00058996     0.00038400
H        -0.91568293    -0.10321177     1.93458332     0.00009087    -0.00002551    -0.00001591
H        -0.97204872    -0.00555660    -0.63314261     0.00001870    -0.00025376     0.00012258
     6
  Step:    38            Position(A)                                  Velocity(au)
C        -0.03993015     0.03234802    -0.12047688     0.00001181     0.00003453    -0.00071022
N        -0.04507487    -0.04961741     1.41832803    -0.00006006     0.00001971     0.00059714
H         0.92830541    -0.03127936    -0.57538628     0.00012954     0.00017621    -0.00026939
H         0.84834696    -0.22411754     1.89147885     0.00055918    -0.00058246     0.00035659
H        -0.91523750    -0.10335888     1.93451962     0.00006275    -0.00002706    -0.00000350
H        -0.97215560    -0.00698284    -0.63256330    -0.00005764    -0.00025197     0.00008131
     6
  Step:    39            Position(A)                                  Velocity(au)
C        -0.03985675     0.03253516    -0.12438356     0.00001429     0.00003190    -0.00067587
N        -0.04539117    -0.04950252     1.42162642    -0.00005162     0.00002102     0.00057312
H         0.92915213    -0.03026692    -0.57696115     0.00017005     0.00018293    -0.00028938
H         0.85130195    -0.22738061     1.89340762     0.00048533    -0.00057453     0.00032609
H        -0.91497477    -0.10351723     1.93454386     0.00002702    -0.00002949     0.00001469
H        -0.97269923    -0.00840038    -0.63222497    -0.00013526    -0.00025119     0.00003799
     6
  Step:    40            Position(A)                                  Velocity(au)
C        -0.03976909     0.03270766    -0.12809630     0.00001686     0.00002940    -0.00064297
N        -0.04565683    -0.04938041     1.42478911    -0.00004234     0.00002232     0.00055025
H         0.93022247    -0.02921710    -0.57864866     0.00020884     0.00018993    -0.00030975
H         0.85381836    -0.23059459     1.89515510     0.00040565    -0.00056650     0.00029349
H        -0.91493292    -0.10369130     1.93468520    -0.00001473    -0.00003264     0.00003750
H        -0.97368049    -0.00981461    -0.63213505    -0.00021228    -0.00025130    -0.00000616
     6
  Step:    41            Position(A)                                  Velocity(au)
C        -0.03966686     0.03286622    -0.13162393     0.00001946     0.00002700    -0.00061158
N        -0.04586798    -0.04925115     1.42782276    -0.00003248     0.00002362     0.00052849
H         0.93150387    -0.02812817    -0.58044920     0.00024510     0.00019728    -0.00032999
H         0.85586991    -0.23375987     1.89671261     0.00032207    -0.00055866     0.00025973
H        -0.91514068    -0.10388482     1.93496618    -0.00006080    -0.00003640     0.00006378
H        -0.97508969    -0.01123030    -0.63229432    -0.00028685    -0.00025221    -0.00005000
     6
  Step:    42            Position(A)                                  Velocity(au)
C        -0.03955020     0.03301139    -0.13497553     0.00002199     0.00002469    -0.00058172
N        -0.04602221    -0.04911473     1.43073371    -0.00002230     0.00002493     0.00050776
H         0.93297941    -0.02699806    -0.58236048     0.00027808     0.00020503    -0.00034965
H         0.85744111    -0.23687857     1.89807665     0.00023645    -0.00055133     0.00022569
H        -0.91561680    -0.10410073     1.93540259    -0.00010940    -0.00004062     0.00009232
H        -0.97690713    -0.01265152    -0.63269742    -0.00035726    -0.00025377    -0.00009249
     6
  Step:    43            Position(A)                                  Velocity(au)
C        -0.03941973     0.03314365    -0.13816020     0.00002439     0.00002245    -0.00055341
N        -0.04611859    -0.04897102     1.43352792    -0.00001206     0.00002628     0.00048799
H         0.93462838    -0.02582446    -0.58437791     0.00030714     0.00021323    -0.00036835
H         0.85852671    -0.23995459     1.89924851     0.00015056    -0.00054481     0.00019220
H        -0.91636988    -0.10434119     1.93600354    -0.00015873    -0.00004515     0.00012198
H        -0.97910387    -0.01408168    -0.63333352    -0.00042192    -0.00025587    -0.00013271
     6
  Step:    44            Position(A)                                  Velocity(au)
C        -0.03927648     0.03326333    -0.14118701     0.00002657     0.00002025    -0.00052662
N        -0.04615761    -0.04881980     1.43621095    -0.00000201     0.00002767     0.00046913
H         0.93642680    -0.02460481    -0.58649487     0.00033174     0.00022191    -0.00038573
H         0.85913105    -0.24299356     1.90023395     0.00006606    -0.00053942     0.00016002
H        -0.91739838    -0.10460754     1.93677168    -0.00020701    -0.00004987     0.00015162
H        -0.98164276    -0.01552347    -0.63418702    -0.00047944    -0.00025841    -0.00016988
     6