     6
  Step:     0            Position(A)                                  Velocity(au)
C        -0.03947411     0.02170220     0.02528776    -0.00005735     0.00010403     0.00035821
N        -0.04261671    -0.07003140     1.28625444    -0.00013492    -0.00003110    -0.00022013
H         0.89875750    -0.02944965    -0.52506659     0.00060936    -0.00052885    -0.00053190
H         0.83073937    -0.03571243     1.93875243     0.00042002     0.00020393    -0.00011782
H        -0.89330432     0.01175593     1.80826895     0.00111784    -0.00002863    -0.00063321
H        -0.98653753     0.09820512    -0.50548773     0.00041104    -0.00045392     0.00007356
     6
  Step:     1            Position(A)                                  Velocity(au)
C        -0.03978457     0.02228109     0.02684943    -0.00005519     0.00010781     0.00021210
N        -0.04330246    -0.07025174     1.28541638    -0.00011454    -0.00004976    -0.00008651
H         0.90234679    -0.03223329    -0.52804864     0.00069683    -0.00048968    -0.00055255
H         0.83270756    -0.03445750     1.93766859     0.00029767     0.00025551    -0.00028044
H        -0.88767067     0.01177423     1.80503408     0.00092642     0.00003702    -0.00054090
H        -0.98449988     0.09587926    -0.50514949     0.00032836    -0.00039604     0.00004874
     6
  Step:     2            Position(A)                                  Velocity(au)
C        -0.04007772     0.02288125     0.02760736    -0.00005109     0.00011188     0.00006488
N        -0.04386934    -0.07057560     1.28530836    -0.00009180    -0.00006893     0.00004636
H         0.90637845    -0.03480511    -0.53110960     0.00077090    -0.00045172    -0.00056148
H         0.83399480    -0.03291798     1.93568538     0.00017264     0.00030803    -0.00044532
H        -0.88317247     0.01216084     1.80235332     0.00070550     0.00010582    -0.00043181
H        -0.98294635     0.09387378    -0.50495471     0.00023546    -0.00033736     0.00002125
     6
  Step:     3            Position(A)                                  Velocity(au)
C        -0.04034313     0.02350412     0.02755873    -0.00004514     0.00011617    -0.00008258
N        -0.04430602    -0.07100530     1.28592321    -0.00006729    -0.00008850     0.00017768
H         0.91077429    -0.03717154    -0.53418672     0.00083000    -0.00041473    -0.00055941
H         0.83459486    -0.03109010     1.93280037     0.00004774     0.00036124    -0.00060914
H        -0.87995813     0.01293101     1.80031359     0.00046013     0.00017725    -0.00030792
H        -0.98192587     0.09219124    -0.50491718     0.00013505    -0.00027836    -0.00000861
     6
  Step:     4            Position(A)                                  Velocity(au)
C        -0.04057096     0.02415068     0.02670504    -0.00003745     0.00012058    -0.00022950
N        -0.04460458    -0.07154258     1.28724989    -0.00004164    -0.00010832     0.00030674
H         0.91544774    -0.03933685    -0.53722218     0.00087241    -0.00037813    -0.00054718
H         0.83451641    -0.02897073     1.92902934    -0.00007432     0.00041495    -0.00076838
H        -0.87814467     0.01409764     1.79898877     0.00019643     0.00025083    -0.00017185
H        -0.98147072     0.09083217    -0.50504875     0.00003028    -0.00021927    -0.00004044
     6
  Step:     5            Position(A)                                  Velocity(au)
C        -0.04075217     0.02482119     0.02505192    -0.00002818     0.00012491    -0.00037490
N        -0.04476081    -0.07218845     1.28927379    -0.00001557    -0.00012819     0.00043269
H         0.92030358    -0.04130186    -0.54016353     0.00089641    -0.00034125    -0.00052571
H         0.83378301    -0.02655757     1.92440740    -0.00019061     0.00046875    -0.00091904
H        -0.87781251     0.01567082     1.79843644    -0.00007828     0.00032576    -0.00002698
H        -0.98159507     0.08979616    -0.50535893    -0.00007540    -0.00016030    -0.00007377
     6
  Step:     6            Position(A)                                  Velocity(au)
C        -0.04087874     0.02551500     0.02261031    -0.00001755     0.00012898    -0.00051736
N        -0.04477464    -0.07294276     1.29197589     0.00001009    -0.00014780     0.00055433
H         0.92523864    -0.04306406    -0.54296418     0.00090058    -0.00030359    -0.00049605
H         0.83243450    -0.02385087     1.91899130    -0.00029772     0.00052178    -0.00105661
H        -0.87899971     0.01765571     1.79869411    -0.00035544     0.00040071     0.00012252
H        -0.98229431     0.08908127    -0.50585449    -0.00017853    -0.00010196    -0.00010801
     6
  Step:     7            Position(A)                                  Velocity(au)
C        -0.04094389     0.02623052     0.01939894    -0.00000582     0.00013259    -0.00065484
N        -0.04465061    -0.07380342     1.29533066     0.00003439    -0.00016667     0.00066990
H         0.93014376    -0.04461904    -0.54558359     0.00088402    -0.00026500    -0.00045925
H         0.83052995    -0.02085633     1.91286239    -0.00039153     0.00057261    -0.00117592
H        -0.88169620     0.02004913     1.79977510    -0.00062530     0.00047364     0.00027158
H        -0.98354574     0.08868213    -0.50653906    -0.00027580    -0.00004512    -0.00014246
     6
  Step:     8            Position(A)                                  Velocity(au)
C        -0.04094235     0.02696515     0.01544814     0.00000668     0.00013550    -0.00078448
N        -0.04439852    -0.07476564     1.29930282     0.00005630    -0.00018418     0.00077701
H         0.93490742    -0.04596241    -0.54798711     0.00084672    -0.00022563    -0.00041637
H         0.82815220    -0.01758808     1.90612998    -0.00046706     0.00061940    -0.00127130
H        -0.88583873     0.02283601     1.80166444    -0.00087726     0.00054197     0.00041442
H        -0.98531085     0.08858782    -0.50741264    -0.00036443     0.00000900    -0.00017635
     6
  Step:     9            Position(A)                                  Velocity(au)
C        -0.04087069     0.02771511     0.01080408     0.00001955     0.00013747    -0.00090277
N        -0.04403377    -0.07582130     1.30384363     0.00007474    -0.00019966     0.00087266
H         0.93942050    -0.04709108    -0.55014536     0.00078974    -0.00018585    -0.00036842
H         0.82541286    -0.01407012     1.89893398    -0.00051872     0.00066028    -0.00133698
H        -0.89130752     0.02598699     1.80431553    -0.00110045     0.00060288     0.00054485
H        -0.98753847     0.08878078    -0.50847111    -0.00044222     0.00005913    -0.00020880
     6
  Step:    10            Position(A)                                  Velocity(au)
C        -0.04072764     0.02847513     0.00553232     0.00003233     0.00013821    -0.00100581
N        -0.04357753    -0.07695870     1.30888797     0.00008870    -0.00021246     0.00095362
H         0.94358176    -0.04800372    -0.55203371     0.00071533    -0.00014605    -0.00031661
H         0.82245471    -0.01033569     1.89144488    -0.00054109     0.00069369    -0.00136777
H        -0.89792583     0.02945790     1.80764893    -0.00128452     0.00065367     0.00065683
H        -0.99016808     0.08923734    -0.50970601    -0.00050755     0.00010420    -0.00023897
     6
  Step:    11            Position(A)                                  Velocity(au)
C        -0.04051441     0.02923828    -0.00028080     0.00004453     0.00013744    -0.00108993
N        -0.04305625    -0.07816280     1.31435337     0.00009732    -0.00022203     0.00101690
H         0.94730410    -0.04870067    -0.55363465     0.00062690    -0.00010665    -0.00026259
H         0.81944957    -0.00642506     1.88385990    -0.00052986     0.00071865    -0.00135996
H        -0.90546402     0.03319104     1.81155435    -0.00142081     0.00069215     0.00074525
H        -0.99313209     0.08992917    -0.51110480    -0.00055927     0.00014346    -0.00026617
     6
  Step:    12            Position(A)                                  Velocity(au)
C        -0.04023489     0.02999611    -0.00652963     0.00005565     0.00013498    -0.00115234
N        -0.04250049    -0.07941579     1.32014172     0.00010011    -0.00022802     0.00106036
H         0.95051954    -0.04918400    -0.55493975     0.00052872    -0.00006810    -0.00020833
H         0.81659093    -0.00238256     1.87639454    -0.00048273     0.00073493    -0.00131218
H        -0.91364950     0.03711775     1.81589638    -0.00150363     0.00071691     0.00080666
H        -0.99635742     0.09082498    -0.51265161    -0.00059673     0.00017651    -0.00028988
     6
  Step:    13            Position(A)                                  Velocity(au)
C        -0.03989562     0.03073913    -0.01309410     0.00006528     0.00013080    -0.00119188
N        -0.04194306    -0.08069823     1.32614390     0.00009701    -0.00023041     0.00108334
H         0.95318316    -0.04945791    -0.55595111     0.00042563    -0.00003090    -0.00015591
H         0.81408194     0.00174688     1.86926928    -0.00040020     0.00074311    -0.00122620
H        -0.92218350     0.04116265     1.82052395    -0.00153150     0.00072768     0.00083996
H        -0.99976736     0.09189185    -0.51432806    -0.00061989     0.00020329    -0.00030985
     6
  Step:    14            Position(A)                                  Velocity(au)
C        -0.03950540     0.03145783    -0.01984886     0.00007313     0.00012511    -0.00120967
N        -0.04141642    -0.08199060     1.33224808     0.00008844    -0.00022954     0.00108723
H         0.95527592    -0.04952929    -0.55668209     0.00032263     0.00000447    -0.00010739
H         0.81211873     0.00592166     1.86269178    -0.00028583     0.00074471    -0.00110726
H        -0.93076399     0.04524955     1.82528296    -0.00150772     0.00072556     0.00084671
H        -1.00328472     0.09309671    -0.51611419    -0.00062961     0.00022412    -0.00032609
     6
  Step:    15            Position(A)                                  Velocity(au)
C        -0.03907451     0.03214385    -0.02667567     0.00007915     0.00011831    -0.00120929
N        -0.04095007    -0.08327536     1.33835080     0.00007527    -0.00022614     0.00107552
H         0.95680549    -0.04940776    -0.55715680     0.00022433     0.00003767    -0.00006444
H         0.81087280     0.01010805     1.85683760    -0.00014567     0.00074213    -0.00096343
H        -0.93911140     0.04930883     1.83003031    -0.00144008     0.00071306     0.00083094
H        -1.00683632     0.09440821    -0.51798924    -0.00062769     0.00023979    -0.00033887
     6
  Step:    16            Position(A)                                  Velocity(au)
C        -0.03861351     0.03279111    -0.03347629     0.00008345     0.00011092    -0.00119606
N        -0.04056820    -0.08453895     1.34436808     0.00005859    -0.00022120     0.00105317
H         0.95780387    -0.04910480    -0.55740824     0.00013427     0.00006868    -0.00002819
H         0.81047720     0.01428468     1.85183484     0.00001308     0.00073829    -0.00080407
H        -0.94699221     0.05328504     1.83464682    -0.00133913     0.00069367     0.00079835
H        -1.01035821     0.09579886    -0.51993292    -0.00061678     0.00025142    -0.00034898
     6
  Step:    17            Position(A)                                  Velocity(au)
C        -0.03813221     0.03339646    -0.04018206     0.00013654     0.00016369    -0.00186049
N        -0.04028844    -0.08577323     1.35024365     0.00006253    -0.00034136     0.00162267
H         0.95832177    -0.04863216    -0.55747514     0.00008646     0.00015479     0.00000136
H         0.81102045     0.01844513     1.84775770     0.00029015     0.00116456    -0.00100921
H        -0.95423342     0.05714209     1.83904564    -0.00192348     0.00106179     0.00119448
H        -1.01380130     0.09724740    -0.52193012    -0.00094910     0.00041200    -0.00056600
     6
  Step:    18            Position(A)                                  Velocity(au)
C        -0.03736587     0.03429033    -0.05024133     0.00013202     0.00015050    -0.00167613
N        -0.03999096    -0.08764180     1.35903632     0.00004081    -0.00031573     0.00146859
H         0.95883536    -0.04783814    -0.55772759     0.00009883     0.00012448    -0.00009023
H         0.81315083     0.02491770     1.84264846     0.00046171     0.00111432    -0.00078666
H        -0.96465263     0.06291834     1.84561254    -0.00172591     0.00096813     0.00110765
H        -1.01929184     0.09951942    -0.52545433    -0.00097492     0.00038719    -0.00066592
     6
  Step:    19            Position(A)                                  Velocity(au)
C        -0.03662892     0.03511021    -0.05926806     0.00012650     0.00013801    -0.00150122
N        -0.03982373    -0.08936844     1.36696642     0.00001741    -0.00029202     0.00132270
H         0.95944711    -0.04721476    -0.55850253     0.00011977     0.00009497    -0.00018175
H         0.81627795     0.03113384     1.83880005     0.00063632     0.00107558    -0.00057059
H        -0.97388622     0.06816614     1.85165845    -0.00151310     0.00087782     0.00101502
H        -1.02490271     0.10165635    -0.52951295    -0.00099231     0.00036508    -0.00075480
     6
  Step:    20            Position(A)                                  Velocity(au)
C        -0.03592674     0.03586039    -0.06731996     0.00012072     0.00012693    -0.00134329
N        -0.03979292    -0.09096395     1.37408409    -0.00000664    -0.00027149     0.00119176
H         0.96019796    -0.04675769    -0.55979530     0.00014739     0.00006645    -0.00027352
H         0.82038995     0.03715402     1.83615707     0.00080884     0.00105184    -0.00036824
H        -0.98186647     0.07290486     1.85715996    -0.00129745     0.00079486     0.00092424
H        -1.03058093     0.10367279    -0.53404129    -0.00100514     0.00034717    -0.00083681
     6
  Step:    21            Position(A)                                  Velocity(au)
C        -0.03526047     0.03654895    -0.07449472     0.00003963     0.00004045    -0.00041465
N        -0.03989897    -0.09244592     1.38047542    -0.00001057    -0.00008763     0.00037106
H         0.96111788    -0.04646150    -0.56160294     0.00006196     0.00001329    -0.00012619
H         0.82544641     0.04305680     1.83462588     0.00033576     0.00035939    -0.00006284
H        -0.98859323     0.07717612     1.86213504    -0.00037342     0.00024803     0.00028890
H        -1.03629625     0.10559162    -0.53899847    -0.00034962     0.00011499    -0.00031517
     6
  Step:    22            Position(A)                                  Velocity(au)
C        -0.03504663     0.03676200    -0.07682583     0.00003656     0.00003579    -0.00041818
N        -0.04003138    -0.09293844     1.38254081    -0.00003602    -0.00008836     0.00036720
H         0.96135333    -0.04628362    -0.56228956     0.00002419     0.00004970    -0.00012009
H         0.82786265     0.04515345     1.83471500     0.00051979     0.00038899     0.00008936
H        -0.99014542     0.07854078     1.86357588    -0.00018368     0.00024000     0.00022691
H        -1.03810391     0.10625796    -0.54076543    -0.00029548     0.00012266    -0.00031581
     6
  Step:    23            Position(A)                                  Velocity(au)
C        -0.03485150     0.03694931    -0.07917224     0.00003324     0.00003151    -0.00042365
N        -0.04030185    -0.09343424     1.38458267    -0.00006008    -0.00008953     0.00036577
H         0.96138844    -0.04590559    -0.56294617    -0.00000956     0.00008559    -0.00011650
H         0.83126049     0.04740781     1.83562546     0.00068936     0.00041868     0.00023112
H        -0.99064773     0.07986064     1.86467306     0.00000020     0.00023428     0.00016825
H        -1.03960127     0.10696359    -0.54253089    -0.00024116     0.00013016    -0.00031749
     6
  Step:    24            Position(A)                                  Velocity(au)
C        -0.03467640     0.03711293    -0.08154455     0.00002955     0.00002743    -0.00042970
N        -0.04070060    -0.09393566     1.38661485    -0.00008219    -0.00009083     0.00036567
H         0.96124684    -0.04533029    -0.56358718    -0.00003929     0.00012117    -0.00011515
H         0.83554088     0.04981685     1.83728924     0.00083837     0.00044632     0.00036034
H        -0.99014321     0.08115031     1.86544985     0.00017706     0.00023067     0.00011322
H        -1.04078999     0.10770771    -0.54430169    -0.00018608     0.00013723    -0.00031957
     6
  Step:    25            Position(A)                                  Velocity(au)
C        -0.03452326     0.03725400    -0.08394592     0.00002544     0.00002346    -0.00043551
N        -0.04121493    -0.09444331     1.38864503    -0.00010176    -0.00009206     0.00036627
H         0.96095194    -0.04455949    -0.56422535    -0.00006480     0.00015648    -0.00011590
H         0.84057425     0.05236614     1.83962864     0.00096149     0.00047025     0.00047482
H        -0.98868069     0.08242325     1.86593086     0.00034457     0.00022931     0.00006270
H        -1.04166853     0.10848808    -0.54608110    -0.00013037     0.00014370    -0.00032182
     6
  Step:    26            Position(A)                                  Velocity(au)
C        -0.03439420     0.03737318    -0.08637498     0.00002093     0.00001957    -0.00044056
N        -0.04182925    -0.09495678     1.39067727    -0.00011827    -0.00009311     0.00036716
H         0.96052814    -0.04359468    -0.56487271    -0.00008582     0.00019152    -0.00011873
H         0.84620515     0.05503264     1.84255566     0.00105456     0.00048923     0.00057267
H        -0.98632140     0.08369372     1.86614531     0.00049988     0.00023055     0.00001784
H        -1.04223597     0.10930156    -0.54787111    -0.00007450     0.00014949    -0.00032422
     6
  Step:    27            Position(A)                                  Velocity(au)
C        -0.03429131     0.03747082    -0.08882757     0.00001605     0.00001571    -0.00044453
N        -0.04252545    -0.09547506     1.39271336    -0.00013132    -0.00009392     0.00036808
H         0.96000099    -0.04243738    -0.56554091    -0.00010213     0.00022623    -0.00012358
H         0.85225940     0.05778702     1.84597419     0.00111495     0.00050235     0.00065266
H        -0.98314180     0.08497789     1.86612854     0.00063996     0.00023484    -0.00002012
H        -1.04249407     0.11014451    -0.54967360    -0.00001917     0.00015454    -0.00032688
     6
  Step:    28            Position(A)                                  Velocity(au)
C        -0.03421650     0.03754714    -0.09129772     0.00001083     0.00001187    -0.00044719
N        -0.04328346    -0.09599687     1.39475342    -0.00014059    -0.00009446     0.00036880
H         0.95939709    -0.04108933    -0.56624131    -0.00011357     0.00026059    -0.00013043
H         0.85855228     0.06059573     1.84978334     0.00114148     0.00050907     0.00071421
H        -0.97923436     0.08629435     1.86592249     0.00076189     0.00024267    -0.00004994
H        -1.04244829     0.11101301    -0.55149108     0.00003484     0.00015884    -0.00033001
     6
  Step:    29            Position(A)                                  Velocity(au)
C        -0.03417140     0.03760227    -0.09377834     0.00000535     0.00000805    -0.00044844
N        -0.04408191    -0.09652081     1.39679625    -0.00014592    -0.00009474     0.00036914
H         0.95874370    -0.03955241    -0.56698491    -0.00012006     0.00029456    -0.00013920
H         0.86489649     0.06342278     1.85388103     0.00113437     0.00050912     0.00075739
H        -0.97470703     0.08766443     1.86557563     0.00086298     0.00025456    -0.00007048
H        -1.04210837     0.11190301    -0.55332703     0.00008671     0.00016238    -0.00033380
     6
  Step:    30            Position(A)                                  Velocity(au)
C        -0.03415726     0.03763628    -0.09626166    -0.00000032     0.00000424    -0.00044821
N        -0.04489873    -0.09704561     1.39883959    -0.00014725    -0.00009480     0.00036895
H         0.95806815    -0.03782872    -0.56778217    -0.00012163     0.00032812    -0.00014978
H         0.87110907     0.06623133     1.85816720     0.00109505     0.00050251     0.00078288
H        -0.96968169     0.08911219     1.86514231     0.00094095     0.00027100    -0.00008076
H        -1.04148844     0.11281047    -0.55518608     0.00013564     0.00016519    -0.00033851
     6
  Step:    31            Position(A)                                  Velocity(au)
C        -0.03417493     0.03764925    -0.09873963    -0.00000610     0.00000044    -0.00044649
N        -0.04571183    -0.09757019     1.40088022    -0.00014463    -0.00009469     0.00036809
H         0.95739734    -0.03592035    -0.56864283    -0.00011844     0.00036129    -0.00016202
H         0.87701786     0.06898516     1.86254687     0.00102596     0.00048948     0.00079182
H        -0.96429149     0.09066423     1.86468172     0.00099409     0.00029243    -0.00008004
H        -1.04060692     0.11373148    -0.55707412     0.00018087     0.00016729    -0.00034438
     6
  Step:    32            Position(A)                                  Velocity(au)
C        -0.03422481     0.03764120    -0.10120422    -0.00001191    -0.00000335    -0.00044335
N        -0.04649969    -0.09809376     1.40291422    -0.00013821    -0.00009446     0.00036646
H         0.95675709    -0.03382938    -0.56957571    -0.00011073     0.00039409    -0.00017575
H         0.88246619     0.07164978     1.86693239     0.00093027     0.00047047     0.00078573
H        -0.95867741     0.09234935     1.86425632     0.00102139     0.00031921    -0.00006789
H        -1.03948625     0.11466231    -0.55899825     0.00022172     0.00016874    -0.00035162
     6
  Step:    33            Position(A)                                  Velocity(au)
C        -0.03430683     0.03761218    -0.10364766    -0.00001767    -0.00000714    -0.00043884
N        -0.04724191    -0.09861587     1.40493711    -0.00012826    -0.00009418     0.00036400
H         0.95617154    -0.03155762    -0.57058848    -0.00009885     0.00042660    -0.00019076
H         0.88731635     0.07419342     1.87124520     0.00081167     0.00044602     0.00076639
H        -0.95298431     0.09419800     1.86393016     0.00102258     0.00035158    -0.00004422
H        -1.03815241     0.11559953    -0.56096674     0.00025760     0.00016961    -0.00036046
     6
  Step:    34            Position(A)                                  Velocity(au)
C        -0.03442048     0.03756219    -0.10606261    -0.00002330    -0.00001093    -0.00043308
N        -0.04791968    -0.09913642     1.40694408    -0.00011510    -0.00009392     0.00036067
H         0.95566268    -0.02910655    -0.57168757    -0.00008326     0.00045890    -0.00020679
H         0.89145212     0.07658770     1.87541703     0.00067418     0.00041684     0.00073575
H        -0.94735651     0.09624164     1.86376680     0.00099816     0.00038966    -0.00000928
H        -1.03663436     0.11654006    -0.56298887     0.00028805     0.00016997    -0.00037106
     6
  Step:    35            Position(A)                                  Velocity(au)
C        -0.03456478     0.03749121    -0.10844234    -0.00002871    -0.00001472    -0.00042619
N        -0.04851622    -0.09965568     1.40893013    -0.00009913    -0.00009374     0.00035646
H         0.95524977    -0.02647712    -0.57287791    -0.00006446     0.00049110    -0.00022359
H         0.89478023     0.07880826     1.87939075     0.00052197     0.00038365     0.00069585
H        -0.94193352     0.09851199     1.86382743     0.00094947     0.00043343     0.00003629
H        -1.03496336     0.11748129    -0.56507481     0.00031272     0.00016990    -0.00038358
     6
  Step:    36            Position(A)                                  Velocity(au)
C        -0.03473834     0.03739922    -0.11078080    -0.00003384    -0.00001853    -0.00041829
N        -0.04901714    -0.10017422     1.41089036    -0.00008081    -0.00009369     0.00035140
H         0.95494904    -0.02366973    -0.57416290    -0.00004304     0.00052332    -0.00024087
H         0.89723072     0.08083497     1.88312056     0.00035919     0.00034724     0.00064870
H        -0.93684520     0.10104005     1.86416852     0.00087864     0.00048267     0.00009143
H        -1.03317235     0.11842103    -0.56723534     0.00033137     0.00016951    -0.00039809
     6
  Step:    37            Position(A)                                  Velocity(au)
C        -0.03493939     0.03728612    -0.11307271    -0.00003862    -0.00002236    -0.00040953
N        -0.04941072    -0.10069282     1.41282006    -0.00006063    -0.00009380     0.00034555
H         0.95477331    -0.02068411    -0.57554426    -0.00001963     0.00055567    -0.00025831
H         0.89875641     0.08265211     1.88657174     0.00018984     0.00030840     0.00059627
H        -0.93220722     0.10385506     1.86483957     0.00078859     0.00053697     0.00015472
H        -1.03129521     0.11935767    -0.56948160     0.00034389     0.00016887    -0.00041465
     6
  Step:    38            Position(A)                                  Velocity(au)
C        -0.03516579     0.03715178    -0.11531350    -0.00004298    -0.00002621    -0.00040002
N        -0.04968819    -0.10121244     1.41471498    -0.00003914    -0.00009410     0.00033899
H         0.95473182    -0.01751945    -0.57702194     0.00000513     0.00058825    -0.00027560
H         0.89933193     0.08424835     1.88972018     0.00001774     0.00026790     0.00054040
H        -0.92811690     0.10698330     1.86588102     0.00068293     0.00059568     0.00022437
H        -1.02936609     0.12029013    -0.57182479     0.00035029     0.00016810    -0.00043323
     6
  Step:    39            Position(A)                                  Velocity(au)
C        -0.03541507     0.03699605    -0.11749934    -0.00004688    -0.00003011    -0.00038989
N        -0.04984382    -0.10173409     1.41657134    -0.00001690    -0.00009457     0.00033181
H         0.95483007    -0.01417440    -0.57859407     0.00003054     0.00062113    -0.00029239
H         0.89895267     0.08561673     1.89255192    -0.00015350     0.00022653     0.00048286
H        -0.92464986     0.11044698     1.86732251     0.00056578     0.00065797     0.00029829
H        -1.02741886     0.12121792    -0.57427579     0.00035066     0.00016731    -0.00045373
     6
  Step:    40            Position(A)                                  Velocity(au)
C        -0.03568450     0.03681869    -0.11962712    -0.00005027    -0.00003405    -0.00037925
N        -0.04987513    -0.10225875     1.41838601     0.00000551    -0.00009521     0.00032412
H         0.95506970    -0.01064737    -0.58025692     0.00005591     0.00065433    -0.00030835
H         0.89763362     0.08675464     1.89506245    -0.00032041     0.00018507     0.00042529
H        -0.92185724     0.11426299     1.86918127     0.00044170     0.00072277     0.00037416
H        -1.02548643     0.12214126    -0.57684477     0.00034523     0.00016663    -0.00047598
     6
  Step:    41            Position(A)                                  Velocity(au)
C        -0.03597109     0.03661946    -0.12169436    -0.00005309    -0.00003803    -0.00036822
N        -0.04978288    -0.10278727     1.42015651     0.00002749    -0.00009599     0.00031604
H         0.95544849    -0.00693669    -0.58200482     0.00008053     0.00068780    -0.00032311
H         0.89540849     0.08766385     1.89725621    -0.00047967     0.00014432     0.00036927
H        -0.91976407     0.11844181     1.87146119     0.00031545     0.00078882     0.00044951
H        -1.02360017     0.12306105    -0.57954072     0.00033431     0.00016619    -0.00049970
     6
  Step:    42            Position(A)                                  Velocity(au)
C        -0.03627163     0.03639808    -0.12369920    -0.00005531    -0.00004207    -0.00035688
N        -0.04957112    -0.10332031     1.42188102     0.00004846    -0.00009687     0.00030766
H         0.95596028    -0.00304102    -0.58383018     0.00010369     0.00072145    -0.00033632
H         0.89232892     0.08835066     1.89914614    -0.00062809     0.00010512     0.00031628
H        -0.91836867     0.12298656     1.87415233     0.00019180     0.00085470     0.00052185
H        -1.02178934     0.12397909    -0.58237093     0.00031832     0.00016616    -0.00052454
     6
  Step:    43            Position(A)                                  Velocity(au)
C        -0.03658269     0.03615428    -0.12564037    -0.00005690    -0.00004616    -0.00034536
N        -0.04924708    -0.10385831     1.42355829     0.00006785    -0.00009779     0.00029910
H         0.95659494     0.00104020    -0.58572349     0.00012466     0.00075506    -0.00034764
H         0.88846385     0.08882610     1.90075326    -0.00076255     0.00006836     0.00026776
H        -0.91764341     0.12789212     1.87723115     0.00007527     0.00091886     0.00058879
H        -1.02008059     0.12489827    -0.58534046     0.00029778     0.00016678    -0.00055003
     6
  Step:    44            Position(A)                                  Velocity(au)
C        -0.03690066     0.03588774    -0.12751718    -0.00005781    -0.00005030    -0.00033376
N        -0.04882104    -0.10440142     1.42518764     0.00008513    -0.00009872     0.00029045
H         0.95733835     0.00530629    -0.58767336     0.00014270     0.00078835    -0.00035672
H         0.88389882     0.08910635     1.90210621    -0.00088011     0.00003502     0.00022503
H        -0.91753652     0.13314461     1.88066142    -0.00003000     0.00097963     0.00064814
H        -1.01849739     0.12582281    -0.58845152     0.00027329     0.00016832    -0.00057558
     6