     6
  Step:   300            Position(A)                                  Velocity(au)
C        -0.04629685    -0.00344650     0.01938384    -0.00010466     0.00008278    -0.00006145
N        -0.04097690    -0.04142598     1.29592010     0.00000514    -0.00019180     0.00002041
H         0.91450789     0.13926267    -0.46330485     0.00040028    -0.00079697     0.00057916
H         0.83851627    -0.23508333     1.78595253     0.00040368     0.00168877     0.00022588
H        -0.87235629     0.16375676     1.86047392     0.00029503     0.00025097     0.00025212
H        -0.97250635    -0.12098861    -0.53061050     0.00007663     0.00053618    -0.00060858
