 Fermi distribution function

Calculation with static geometry


********************************************************************************
 iSCC Total electronic   Diff electronic      SCC error    
    9   -0.54301343E+01   -0.12668089E-10    0.96113275E-06
********************************************************************************

 Total charge:     1.00000000

 Atomic gross charges (e)
 Atom           Charge
    1       0.20839131
    2      -0.09011935
    3       0.16421027
    4       0.28839539
    5       0.27236732
    6       0.15675507

Nr. of electrons (up):     12.00000000
Atom populations (up)
 Atom       Population
    1       3.79160869
    2       5.09011935
    3       0.83578973
    4       0.71160461
    5       0.72763268
    6       0.84324493

l-shell populations (up)
 Atom Sh.   l       Population
    1   1   0       1.30383118
    1   2   1       2.48777751
    2   1   0       1.41635228
    2   2   1       3.67376706
    3   1   0       0.83578973
    4   1   0       0.71160461
    5   1   0       0.72763268
    6   1   0       0.84324493

Orbital populations (up)
 Atom Sh.   l   m       Population  Label
    1   1   0   0       1.30383118  s
    1   2   1  -1       0.58428580  p_y
    1   2   1   0       0.88351512  p_z
    1   2   1   1       1.01997660  p_x
    2   1   0   0       1.41635228  s
    2   2   1  -1       1.35654088  p_y
    2   2   1   0       1.09360563  p_z
    2   2   1   1       1.22362055  p_x
    3   1   0   0       0.83578973  s
    4   1   0   0       0.71160461  s
    5   1   0   0       0.72763268  s
    6   1   0   0       0.84324493  s

Fermi level:                        -0.4838999754 H          -13.1676 eV
Band energy:                        -8.9300850921 H         -243.0000 eV
TS:                                  0.0000000000 H            0.0000 eV
Band free energy (E-TS):            -8.9300850921 H         -243.0000 eV
Extrapolated E(0K):                 -8.9300850921 H         -243.0000 eV
Input / Output electrons (q):     12.0000000000     12.0000000000

Energy H0:                          -5.5627832810 H         -151.3710 eV
Energy SCC:                          0.1326490069 H            3.6096 eV
Total Electronic energy:            -5.4301342741 H         -147.7615 eV
Repulsive energy:                    0.1948691263 H            5.3027 eV
Total energy:                       -5.2352651478 H         -142.4588 eV
Extrapolated to 0:                  -5.2352651478 H         -142.4588 eV
Total Mermin free energy:           -5.2352651478 H         -142.4588 eV
Force related energy:               -5.2352651478 H         -142.4588 eV

SCC converged

Excitation Energy:                   0.1508290600 H            4.1043 eV

Total Forces
    1      0.001592736684      0.000425772365      0.001543249090
    2      0.009397589341     -0.005518445841     -0.029043994659
    3     -0.010777798697      0.008761429501      0.007372679517
    4     -0.013490668673     -0.005794122657      0.003690457422
    5      0.003325466521      0.010402261363      0.009334901360
    6      0.009952674823     -0.008276894732      0.007102707269

Maximal derivative component:        0.290440E-01 au


