     6
  Step:   300            Position(A)                                  Velocity(au)
C        -0.06722300     0.02392134     0.02005948    -0.00002937     0.00000416    -0.00010346
N         0.00892409    -0.05908523     1.30170123     0.00003807    -0.00000605     0.00011521
H         0.19924149     0.90851669    -0.56603026     0.00123547    -0.00011751     0.00045046
H        -0.26603526    -0.92920544     1.76583659     0.00126018    -0.00061944    -0.00012791
H        -0.12342233     0.76695221     1.89389374    -0.00138700     0.00045612    -0.00088142
H        -0.34568254    -0.88003832    -0.52959538    -0.00128773     0.00031537     0.00019070
