    14
  Step:   600            Position(A)                                  Velocity(au)
C        -5.04009829     0.13888694     0.82151592    -0.00038745    -0.00013319     0.00018035
C        -4.41459020    -0.61363474    -0.12520902    -0.00011470    -0.00012976     0.00014519
H        -5.49938109     1.11342792     0.68939680    -0.00137131    -0.00032558     0.00128361
H        -5.25720591    -0.16691022     1.88839909     0.00113499     0.00248846     0.00049195
H        -4.27159150    -1.70859315     0.15609217     0.00165296     0.00003556     0.00071874
C        -3.89564504     0.26517418    -1.31926601     0.00004317    -0.00008840    -0.00057036
C        -2.87278896     0.98319234    -0.81320801     0.00016228    -0.00022255    -0.00064881
H        -4.18034723     0.16830621    -2.35322065     0.00050602     0.00251162     0.00141640
H        -2.59639068     1.93800335    -1.28725129     0.00048345     0.00022563     0.00307611
C        -2.27227519     1.31211005     0.64735016     0.00025431     0.00019522     0.00022803
H        -2.95339890     1.82335624     1.39275951    -0.00173564    -0.00008838     0.00131257
N        -0.99409830     0.92062694     0.87385782     0.00002892    -0.00008047     0.00001845
H        -0.55310276     1.45410232     1.62219332     0.00004688     0.00005544    -0.00072983
H        -0.45424355     0.37192864     0.16176299    -0.00061397     0.00072798     0.00010549
