     6
  Step:   120            Position(A)                                  Velocity(au)
C        -0.04886452    -0.07154978    -0.01917462    -0.00007165    -0.00019398    -0.00031883
N        -0.04890968     0.00273933     1.34703329    -0.00001543     0.00004211     0.00015755
H         0.90464369     0.11919960    -0.64282909     0.00042134    -0.00007588     0.00058667
H         0.87371884    -0.12052714     1.82748621    -0.00001640     0.00098627    -0.00004368
H        -0.89379225    -0.43935988     1.81078289     0.00026241    -0.00062421     0.00027242
H        -0.83555257     0.58542078    -0.59378349     0.00040081     0.00144010     0.00079438
