     6
  Step:     0            Position(A)                                  Velocity(au)
C        -0.03798585     0.01136431     0.03833338     0.00009597    -0.00007567    -0.00019919
N        -0.03198207    -0.06311270     1.28384279     0.00008605    -0.00004687     0.00022193
H         0.88391258     0.03629064    -0.53414654     0.00000556     0.00030409    -0.00006492
H         0.79195545    -0.08353771     1.85109725    -0.00035823     0.00042454    -0.00034294
H        -0.99968507     0.02789384     1.81234457    -0.00085836     0.00019132     0.00025314
H        -0.99204554     0.09119424    -0.53476773    -0.00112839     0.00063312    -0.00055569
     6
  Step:     1            Position(A)                                  Velocity(au)
C        -0.03748118     0.01096617     0.03700515     0.00008788    -0.00007002    -0.00028523
N        -0.03158183    -0.06338218     1.28528453     0.00005937    -0.00005155     0.00030357
H         0.88420546     0.03797933    -0.53479248     0.00010129     0.00031361    -0.00017179
H         0.79031150    -0.08121126     1.84954414    -0.00023537     0.00042650    -0.00021919
H        -1.00373103     0.02890888     1.81349680    -0.00061606     0.00017921     0.00016581
H        -0.99822435     0.09465338    -0.53792830    -0.00112217     0.00063139    -0.00059451
     6
  Step:     2            Position(A)                                  Velocity(au)
C        -0.03702460     0.01059847     0.03521358     0.00007853    -0.00006457    -0.00036817
N        -0.03133269    -0.06367651     1.28716320     0.00003106    -0.00005596     0.00038133
H         0.88502053     0.03972084    -0.53602558     0.00019563     0.00032340    -0.00027903
H         0.78938107    -0.07887277     1.84869981    -0.00009908     0.00042906    -0.00008521
H        -1.00642338     0.02985398     1.81415820    -0.00036546     0.00016593     0.00007489
H        -1.00431966     0.09810026    -0.54127036    -0.00109862     0.00062868    -0.00062257
     6
  Step:     3            Position(A)                                  Velocity(au)
C        -0.03662223     0.01025994     0.03297838     0.00006819    -0.00005936    -0.00044691
N        -0.03124209    -0.06399418     1.28945524     0.00000167    -0.00006006     0.00045427
H         0.88634518     0.04151641    -0.53784431     0.00028668     0.00033324    -0.00038523
H         0.78922782    -0.07651852     1.84861217     0.00004674     0.00043222     0.00005583
H        -1.00772812     0.03072372     1.81431587    -0.00011057     0.00015178    -0.00001721
H        -1.01024030     0.10152941    -0.54473753    -0.00105875     0.00062475    -0.00064059
     6
  Step:     4            Position(A)                                  Velocity(au)
C        -0.03627865     0.00994917     0.03032492     0.00005714    -0.00005440    -0.00052035
N        -0.03131439    -0.06433349     1.29213234    -0.00002818    -0.00006382     0.00052147
H         0.88815647     0.04336608    -0.54023947     0.00037244     0.00034287    -0.00048882
H         0.78989236    -0.07414487     1.84931058     0.00019746     0.00043587     0.00020023
H        -1.00763293     0.03151427     1.81396992     0.00014432     0.00013706    -0.00010801
H        -1.01590110     0.10493420    -0.54827764    -0.00100364     0.00061932    -0.00064928
     6
  Step:     5            Position(A)                                  Velocity(au)
C        -0.03599694     0.00966469     0.02728427     0.00004566    -0.00004970    -0.00058737
N        -0.03155041    -0.06469255     1.29516154    -0.00005778    -0.00006719     0.00058199
H         0.89042074     0.04526839    -0.54319337     0.00045086     0.00035196    -0.00058809
H         0.79138853    -0.07174887     1.85080322     0.00034778     0.00043983     0.00034379
H        -1.00614884     0.03222351     1.81313390     0.00039450     0.00012210    -0.00019490
H        -1.02122294     0.10830647    -0.55184242    -0.00093441     0.00061207    -0.00064926
     6
  Step:     6            Position(A)                                  Velocity(au)
C        -0.03577868     0.00940500     0.02389326     0.00003403    -0.00004526    -0.00064684
N        -0.03194702    -0.06506924     1.29850518    -0.00008634    -0.00007013     0.00063493
H         0.89309342     0.04722007    -0.54667910     0.00051989     0.00036013    -0.00068121
H         0.79370059    -0.06932872     1.85307506     0.00049203     0.00044380     0.00048204
H        -1.00331314     0.03285122     1.81183574     0.00063461     0.00010729    -0.00027507
H        -1.02613287     0.11163636    -0.55538709    -0.00085229     0.00060267    -0.00064118
     6
  Step:     7            Position(A)                                  Velocity(au)
C        -0.03562394     0.00916860     0.02019439     0.00002254    -0.00004109    -0.00069770
N        -0.03249674    -0.06546120     1.30212090    -0.00011301    -0.00007258     0.00067938
H         0.89611919     0.04921576    -0.55066001     0.00057758     0.00036698    -0.00076628
H         0.79678165    -0.06688439     1.85608681     0.00062440     0.00044743     0.00061045
H        -0.99919300     0.03339947     1.81011888     0.00085862     0.00009310    -0.00034552
H        -1.03056479     0.11491225    -0.55887027    -0.00075875     0.00059081    -0.00062566
     6
  Step:     8            Position(A)                                  Velocity(au)
C        -0.03553133     0.00895401     0.01623558     0.00001146    -0.00003719    -0.00073901
N        -0.03318739    -0.06586586     1.30596176    -0.00013692    -0.00007452     0.00071454
H         0.89943268     0.05124792    -0.55508948     0.00062220     0.00037211    -0.00084147
H         0.80055382    -0.06441795     1.85977517     0.00073936     0.00045027     0.00072472
H        -0.99388925     0.03387300     1.80804342     0.00105999     0.00008006    -0.00040314
H        -1.03446057     0.11812084    -0.56225405    -0.00065550     0.00057623    -0.00060341
     6
  Step:     9            Position(A)                                  Velocity(au)
C        -0.03549797     0.00875978     0.01206953     0.00000106    -0.00003354    -0.00077003
N        -0.03400203    -0.06628046     1.30997667    -0.00015720    -0.00007591     0.00073976
H         0.90295982     0.05330683    -0.55991135     0.00065241     0.00037516    -0.00090514
H         0.80491039    -0.06193398     1.86405452     0.00083206     0.00045191     0.00082105
H        -0.98753921     0.03427966     1.80568666     0.00123192     0.00006878    -0.00044485
H        -1.03777154     0.12124751    -0.56550431    -0.00054459     0.00055880    -0.00057525
     6
  Step:    10            Position(A)                                  Velocity(au)
C        -0.03551968     0.00858447     0.00775253    -0.00000843    -0.00003017    -0.00079033
N        -0.03491913    -0.06670213     1.31411132    -0.00017308    -0.00007676     0.00075466
H         0.90661997     0.05538087    -0.56506095     0.00066738     0.00037586    -0.00095599
H         0.80972021    -0.05943951     1.86882029     0.00089875     0.00045194     0.00089654
H        -0.98031782     0.03463075     1.80314279     0.00136781     0.00005992    -0.00046778
H        -1.04046004     0.12427689    -0.56859126    -0.00042833     0.00053852    -0.00054211
     6
  Step:    11            Position(A)                                  Velocity(au)
C        -0.03559106     0.00842670     0.00334299    -0.00001681    -0.00002705    -0.00079985
N        -0.03591311    -0.06712804     1.31830934    -0.00018395    -0.00007710     0.00075916
H         0.91032873     0.05745692    -0.57046705     0.00066688     0.00037405    -0.00099322
H         0.81483404    -0.05694382     1.87395381     0.00093709     0.00045007     0.00094936
H        -0.97243641     0.03494127     1.80052160     0.00146183     0.00005412    -0.00046957
H        -1.04250098     0.12719363    -0.57149013    -0.00030925     0.00051556    -0.00050510
     6
  Step:    12            Position(A)                                  Velocity(au)
C        -0.03570575     0.00828504    -0.00110072    -0.00002394    -0.00002421    -0.00079900
N        -0.03695524    -0.06755551     1.32251424    -0.00018942    -0.00007698     0.00075363
H         0.91400147     0.05952109    -0.57605459     0.00065143     0.00036974    -0.00101668
H         0.82009249    -0.05445784     1.87932845     0.00094638     0.00044616     0.00097898
H        -0.96413736     0.03522981     1.79794524     0.00150966     0.00005200    -0.00044862
H        -1.04388297     0.12998339    -0.57418199    -0.00018997     0.00049029    -0.00046542
     6
  Step:    13            Position(A)                                  Velocity(au)
C        -0.03585671     0.00815810    -0.00552270    -0.00002974    -0.00002163    -0.00078866
N        -0.03801493    -0.06798217     1.32667160    -0.00018936    -0.00007649     0.00073884
H         0.91755704     0.06155958    -0.58174818     0.00062220     0.00036312    -0.00102693
H         0.82533510    -0.05199326     1.88481662     0.00092762     0.00044026     0.00098621
H        -0.95568522     0.03551822     1.79554371     0.00150901     0.00005405    -0.00040426
H        -1.04460884     0.13263393    -0.57665445    -0.00007302     0.00046330    -0.00042442
     6
  Step:    14            Position(A)                                  Velocity(au)
C        -0.03603653     0.00804443    -0.00987207    -0.00003571    -0.00001602    -0.00082665
N        -0.03906127    -0.06840617     1.33073146    -0.00018416    -0.00007922     0.00076016
H         0.92092141     0.06355965    -0.58747589     0.00055788     0.00038809    -0.00097519
H         0.83040932    -0.04956137     1.89029691     0.00086558     0.00040254     0.00095664
H        -0.94735453     0.03583093     1.79344912     0.00148697     0.00010523    -0.00034990
H        -1.04469505     0.13513613    -0.57890225     0.00007421     0.00039605    -0.00034456
     6
  Step:    15            Position(A)                                  Velocity(au)
C        -0.03625473     0.00797951    -0.01473597    -0.00004146    -0.00000729    -0.00091290
N        -0.04006743    -0.06886515     1.33514382    -0.00017434    -0.00008509     0.00081796
H         0.92377483     0.06588496    -0.59261696     0.00046023     0.00042262    -0.00086631
H         0.83498220    -0.04750683     1.89547865     0.00076386     0.00035586     0.00089128
H        -0.93911244     0.03669109     1.79164395     0.00144356     0.00018012    -0.00028734
H        -1.04378178     0.13704803    -0.58049463     0.00024905     0.00031068    -0.00022603
     6
  Step:    16            Position(A)                                  Velocity(au)
C        -0.03649949     0.00796305    -0.02006701    -0.00004539     0.00000107    -0.00098768
N        -0.04100828    -0.06935638     1.33986610    -0.00016008    -0.00009042     0.00086566
H         0.92606108     0.06827926    -0.59715050     0.00035639     0.00042755    -0.00075569
H         0.83893987    -0.04558728     1.90025035     0.00064561     0.00033602     0.00081109
H        -0.93123342     0.03784239     1.79024018     0.00135139     0.00022752    -0.00020447
H        -1.04191378     0.13860569    -0.58142643     0.00041204     0.00025270    -0.00011123
     6
  Step:    17            Position(A)                                  Velocity(au)
C        -0.03676259     0.00799152    -0.02578627    -0.00004794     0.00000872    -0.00104848
N        -0.04185845    -0.06987682     1.34482899    -0.00014172    -0.00009526     0.00090127
H         0.92776215     0.07066848    -0.60107175     0.00025170     0.00042262    -0.00064625
H         0.84220538    -0.04374733     1.90455323     0.00051707     0.00032338     0.00072336
H        -0.92399287     0.03923666     1.78935629     0.00121326     0.00026956    -0.00010191
H        -1.03917175     0.13987533    -0.58173914     0.00055870     0.00020439    -0.00000577
     6
  Step:    18            Position(A)                                  Velocity(au)
C        -0.03703669     0.00806073    -0.03181494    -0.00004926     0.00001558    -0.00109628
N        -0.04259626    -0.07042375     1.34996456    -0.00012007    -0.00009971     0.00092583
H         0.92888127     0.07301454    -0.60439151     0.00014950     0.00041267    -0.00054063
H         0.84473347    -0.04196393     1.90835537     0.00038368     0.00031405     0.00063261
H        -0.91763918     0.04086274     1.78909829     0.00103550     0.00031092     0.00001758
H        -1.03565374     0.14089576    -0.58149104     0.00068683     0.00016240     0.00008809
     6
  Step:    19            Position(A)                                  Velocity(au)
C        -0.03731509     0.00816622    -0.03808110    -0.00004947     0.00002165    -0.00113277
N        -0.04320502    -0.07099508     1.35521225    -0.00009602    -0.00010391     0.00094105
H         0.92943883     0.07529666    -0.60713497     0.00005235     0.00040024    -0.00044102
H         0.84650839    -0.04022528     1.91164806     0.00025017     0.00030667     0.00054257
H        -0.91237962     0.04272362     1.78955345     0.00082612     0.00035346     0.00015050
H        -1.03146893     0.14169672    -0.58075116     0.00079519     0.00012558     0.00016899
     6
  Step:    20            Position(A)                                  Velocity(au)
C        -0.03759164     0.00830363    -0.04452294    -0.00004864     0.00002697    -0.00115985
N        -0.04367351    -0.07158942     1.36052171    -0.00007053    -0.00010796     0.00094878
H         0.92946855     0.07750466    -0.60933908    -0.00003788     0.00038687    -0.00034900
H         0.84754001    -0.03852351     1.91444224     0.00012044     0.00030078     0.00045619
H        -0.90837134     0.04482807     1.79078672     0.00059403     0.00039791     0.00029295
H        -1.02673296     0.14230453    -0.57959523     0.00088305     0.00009338     0.00023614
     6
  Step:    21            Position(A)                                  Velocity(au)
C        -0.03786061     0.00846873    -0.05108927    -0.00004683     0.00003158    -0.00117907
N        -0.04399600    -0.07220594     1.36585319    -0.00004448    -0.00011195     0.00095061
H         0.92901395     0.07963555    -0.61104911    -0.00011978     0.00037350    -0.00026559
H         0.84785913    -0.03685193     1.91676441    -0.00000233     0.00029617     0.00037569
H        -0.90571738     0.04718636     1.79283900     0.00034842     0.00044423     0.00044073
H        -1.02156515     0.14274403    -0.57810272     0.00094972     0.00006555     0.00028905
     6
  Step:    22            Position(A)                                  Velocity(au)
C        -0.03811645     0.00865760    -0.05773768    -0.00004403     0.00003552    -0.00119142
N        -0.04417200    -0.07284418     1.37117591    -0.00001875    -0.00011588     0.00094766
H         0.92812603     0.08169076    -0.61231573    -0.00019221     0.00036066    -0.00019139
H         0.84751385    -0.03520406     1.91865292    -0.00011546     0.00029276     0.00030272
H        -0.90446635     0.04980691     1.79572634     0.00009863     0.00049181     0.00058938
H        -1.01608869     0.14303923    -0.57635559     0.00099421     0.00004193     0.00032729
     6
  Step:    23            Position(A)                                  Velocity(au)
C        -0.03835364     0.00886648    -0.06443137    -0.00004023     0.00003880    -0.00119735
N        -0.04420598    -0.07350367     1.37646557     0.00000580    -0.00011970     0.00094063
H         0.92686149     0.08367441    -0.61319244    -0.00025411     0.00034861    -0.00012679
H         0.84656616    -0.03357347     1.92015444    -0.00021654     0.00029044     0.00023853
H        -0.90461292     0.05269384     1.79943910    -0.00014595     0.00053956     0.00073416
H        -1.01043153     0.14321359    -0.57443757     0.00101528     0.00002243     0.00035045
     6
  Step:    24            Position(A)                                  Velocity(au)
C        -0.03856658     0.00909175    -0.07113605    -0.00003540     0.00004143    -0.00119689
N        -0.04410707    -0.07418358     1.38170161     0.00002836    -0.00012328     0.00092986
H         0.92528248     0.08559170    -0.61373447    -0.00030445     0.00033741    -0.00007205
H         0.84509074    -0.03195400     1.92132204    -0.00030328     0.00028912     0.00018415
H        -0.90609949     0.05584459     1.80394155    -0.00037607     0.00058605     0.00087026
H        -1.00472775     0.14329027    -0.57243405     0.00101153     0.00000703     0.00035815
     6
  Step:    25            Position(A)                                  Velocity(au)
C        -0.03874953     0.00932979    -0.07781762    -0.00002954     0.00004339    -0.00118990
N        -0.04388885    -0.07488251     1.38686536     0.00004813    -0.00012653     0.00091554
H         0.92345651     0.08744811    -0.61399830    -0.00034218     0.00032707    -0.00002745
H         0.84317422    -0.03033984     1.92221396    -0.00037351     0.00028872     0.00014046
H        -0.90881895     0.05924831     1.80917227    -0.00058309     0.00062966     0.00099309
H        -0.99911832     0.14329227    -0.57043200     0.00098183    -0.00000427     0.00035016
     6
  Step:    26            Position(A)                                  Velocity(au)
C        -0.03889685     0.00957699    -0.08444140    -0.00002268     0.00004470    -0.00117632
N        -0.04356885    -0.07559837     1.39193910     0.00006447    -0.00012930     0.00089785
H         0.92145625     0.08924901    -0.61404142    -0.00036643     0.00031759     0.00000682
H         0.84091422    -0.02872551     1.92289266    -0.00042536     0.00028921     0.00010818
H        -0.91261957     0.06288535     1.81504617    -0.00075953     0.00066882     0.00109866
H        -0.99374898     0.14324247    -0.56851859     0.00092570    -0.00001153     0.00032665
     6
  Step:    27            Position(A)                                  Velocity(au)
C        -0.03900317     0.00982972    -0.09097234    -0.00001492     0.00004537    -0.00115627
N        -0.04316791    -0.07632843     1.39690593     0.00007684    -0.00013151     0.00087704
H         0.91935870     0.09099967    -0.61392201    -0.00037659     0.00030896     0.00003068
H         0.83841747    -0.02710561     1.92342374    -0.00045742     0.00029059     0.00008778
H        -0.91731272     0.06672773     1.82145848    -0.00089964     0.00070219     0.00118392
H        -0.98876623     0.14316330    -0.56677909     0.00084358    -0.00001486     0.00028822
     6
  Step:    28            Position(A)                                  Velocity(au)
C        -0.03906377     0.01008450    -0.09737620    -0.00000641     0.00004541    -0.00113015
N        -0.04270923    -0.07706949     1.40175020     0.00008495    -0.00013310     0.00085348
H         0.91724352     0.09270524    -0.61369817    -0.00037240     0.00030125     0.00004424
H         0.83579718    -0.02547474     1.92387464    -0.00046896     0.00029294     0.00007942
H        -0.92268348     0.07074053     1.82829026    -0.00099978     0.00072877     0.00124703
H        -0.98431211     0.14307627    -0.56529439     0.00073703    -0.00001446     0.00023602
     6
  Step:    29            Position(A)                                  Velocity(au)
C        -0.03907488     0.01033797    -0.10362095     0.00000266     0.00004488    -0.00109861
N        -0.04221721    -0.07781808     1.40645803     0.00008867    -0.00013407     0.00082764
H         0.91519085     0.09437124    -0.61342685    -0.00035406     0.00029453     0.00004784
H         0.83316889    -0.02382703     1.92431262    -0.00046002     0.00029639     0.00008287
H        -0.92850232     0.07488417     1.83541520    -0.00105860     0.00074802     0.00128741
H        -0.98051743     0.14300144    -0.56413754     0.00060878    -0.00001067     0.00017179
     6
  Step:    30            Position(A)                                  Velocity(au)
C        -0.03903401     0.01058706    -0.10967832     0.00001202     0.00004384    -0.00106254
N        -0.04171630    -0.07857074     1.41101805     0.00008813    -0.00013444     0.00080009
H         0.91327878     0.09600339    -0.61316249    -0.00032221     0.00028890     0.00004203
H         0.83064598    -0.02215583     1.92480265    -0.00043142     0.00030104     0.00009753
H        -0.93453758     0.07911672     1.84270647    -0.00107690     0.00075982     0.00130564
H        -0.97749506     0.14295678    -0.56337068     0.00046260    -0.00000397     0.00009769
     6
  Step:    31            Position(A)                                  Velocity(au)
C        -0.03894022     0.01082914    -0.11552481     0.00002140     0.00004239    -0.00102291
N        -0.04122987    -0.07932422     1.41542168     0.00008361    -0.00013428     0.00077141
H         0.91158110     0.09760788    -0.61295603    -0.00027783     0.00028444     0.00002756
H         0.82833557    -0.02045437     1.92540529    -0.00038476     0.00030698     0.00012240
H        -0.94056703     0.08339663     1.85004255    -0.00105727     0.00076450     0.00130324
H        -0.97533484     0.14295698    -0.56304314     0.00030300     0.00000503     0.00001615
     6
  Step:    32            Position(A)                                  Velocity(au)
C        -0.03879422     0.01106209    -0.12114241     0.00003049     0.00004061    -0.00098077
N        -0.04077925    -0.08007566     1.41966344     0.00007555    -0.00013368     0.00074215
H         0.91016504     0.09919125    -0.61285366    -0.00022229     0.00028122     0.00000536
H         0.82633380    -0.01871545     1.92617437    -0.00032234     0.00031426     0.00015611
H        -0.94638671     0.08768475     1.85731228    -0.00100360     0.00076267     0.00128243
H        -0.97409925     0.14301311    -0.56318965     0.00013505     0.00001564    -0.00007016
     6
  Step:    33            Position(A)                                  Velocity(au)
C        -0.03859846     0.01128434    -0.12651882     0.00003900     0.00003861    -0.00093710
N        -0.04038300    -0.08082270     1.42374087     0.00006447    -0.00013273     0.00071283
H         0.90908936     0.10076022    -0.61289591    -0.00015720     0.00027924    -0.00002348
H         0.82472222    -0.01693166     1.92715519    -0.00024700     0.00032291     0.00019703
H        -0.95181691     0.09194583     1.86441802    -0.00092054     0.00075513     0.00124579
H        -0.97382100     0.14313225    -0.56382962    -0.00003597     0.00002714    -0.00015859
     6
  Step:    34            Position(A)                                  Velocity(au)
C        -0.03835703     0.01149490    -0.13164710     0.00004666     0.00003649    -0.00089277
N        -0.04005650    -0.08156354     1.42765416     0.00005097    -0.00013152     0.00068387
H         0.90840285     0.10232147    -0.61311686    -0.00008442     0.00027847    -0.00005780
H         0.82356495    -0.01509571     1.92838300    -0.00016197     0.00033287     0.00024329
H        -0.95670582     0.09614960     1.87127740    -0.00081313     0.00074279     0.00119606
H        -0.97450244     0.14331732    -0.56496736    -0.00020482     0.00003880    -0.00024655
     6
  Step:    35            Position(A)                                  Velocity(au)
C        -0.03807549     0.01169330    -0.13652512     0.00005323     0.00003433    -0.00084853
N        -0.03981170    -0.08229685     1.43140579     0.00003565    -0.00013014     0.00065559
H         0.90814322     0.10388139    -0.61354374    -0.00000592     0.00027884    -0.00009637
H         0.82290687    -0.01320077     1.92988206    -0.00007072     0.00034403     0.00029292
H        -0.96093065     0.10027120     1.87782366    -0.00068640     0.00072662     0.00113590
H        -0.97611670     0.14356717    -0.56659303    -0.00036659     0.00004992    -0.00033171
     6
  Step:    36            Position(A)                                  Velocity(au)
C        -0.03776065     0.01187961    -0.14115472     0.00005851     0.00003224    -0.00080495
N        -0.03965707    -0.08302177     1.43499999     0.00001910    -0.00012866     0.00062823
H         0.90833646     0.10544589    -0.61419662     0.00007617     0.00028022    -0.00013792
H         0.82277257    -0.01124095     1.93166514     0.00002317     0.00035617     0.00034385
H        -0.96439685     0.10429131     1.88400495    -0.00054515     0.00070753     0.00106778
H        -0.97861004     0.14387663    -0.56868409    -0.00051684     0.00005985    -0.00041198
     6
  Step:    37            Position(A)                                  Velocity(au)
C        -0.03742021     0.01205434    -0.14554083     0.00006237     0.00003026    -0.00076249
N        -0.03959773    -0.08373784     1.43844219     0.00000192    -0.00012712     0.00060194
H         0.90899640     0.10701991    -0.61508850     0.00015973     0.00028240    -0.00018122
H         0.82316634    -0.00921152     1.93373332     0.00011614     0.00036907     0.00039405
H        -0.96703653     0.10819569     1.88978309    -0.00039390     0.00068636     0.00099397
H        -0.98190544     0.14423746    -0.57120737    -0.00065178     0.00006807    -0.00048566
     6
  Step:    38            Position(A)                                  Velocity(au)
C        -0.03706247     0.01221840    -0.14969069     0.00006473     0.00002848    -0.00072145
N        -0.03963561    -0.08444485     1.44173861    -0.00001537    -0.00012557     0.00057679
H         0.91012465     0.10860736    -0.61622533     0.00024259     0.00028519    -0.00022503
H         0.82407273    -0.00710929     1.93607644     0.00020481     0.00038240     0.00044155
H        -0.96880646     0.11197500     1.89513228    -0.00023678     0.00066393     0.00091649
H        -0.98590662     0.14463865    -0.57412103    -0.00076835     0.00007414    -0.00055138
     6
  Step:    39            Position(A)                                  Velocity(au)
C        -0.03669596     0.01237299    -0.15361316     0.00006558     0.00002693    -0.00068205
N        -0.03976971    -0.08514286     1.44489586    -0.00003226    -0.00012405     0.00055280
H         0.91171078     0.11021094    -0.61760632     0.00032265     0.00028836    -0.00026817
H         0.82545798    -0.00493288     1.93867381     0.00028608     0.00039582     0.00048457
H        -0.96968589     0.11562436     1.90003774    -0.00007763     0.00064098     0.00083719
H        -0.99050252     0.14506704    -0.57737675    -0.00086429     0.00007774    -0.00060813
     6
  Step:    40            Position(A)                                  Velocity(au)
C        -0.03632908     0.01251956    -0.15731812     0.00006497     0.00002565    -0.00064443
N        -0.03999637    -0.08583206     1.44792061    -0.00004830    -0.00012257     0.00052997
H         0.91373281     0.11183207    -0.61922427     0.00039789     0.00029166    -0.00030954
H         0.82727199    -0.00268278     1.94149545     0.00035724     0.00040900     0.00052157
H        -0.96967456     0.11914308     1.90449453     0.00008008     0.00061822     0.00075769
H        -0.99557197     0.14550802    -0.58092178    -0.00093814     0.00007866    -0.00065529
     6
  Step:    41            Position(A)                                  Velocity(au)
C        -0.03596982     0.01265973    -0.16081602     0.00006298     0.00002467    -0.00060865
N        -0.04030959    -0.08651279     1.45081938    -0.00006311    -0.00012116     0.00050824
H         0.91615800     0.11347084    -0.62106611     0.00046647     0.00029485    -0.00034816
H         0.82945090    -0.00036141     1.94450345     0.00041607     0.00042163     0.00055125
H        -0.96879086     0.12253431     1.90850653     0.00023313     0.00059632     0.00067950
H        -1.00098822     0.14594618    -0.58470102    -0.00098925     0.00007686    -0.00069259
     6
  Step:    42            Position(A)                                  Velocity(au)
C        -0.03562547     0.01279520    -0.16411755     0.00005977     0.00002400    -0.00057473
N        -0.04070135    -0.08718557     1.45359835    -0.00007634    -0.00011984     0.00048754
H         0.91894392     0.11512602    -0.62311370     0.00052677     0.00029773    -0.00038315
H         0.83192010     0.00202739     1.94765364     0.00046090     0.00043338     0.00057265
H        -0.96707019     0.12580487     1.91208553     0.00037859     0.00057593     0.00060400
H        -1.00662332     0.14636662    -0.58865896    -0.00101765     0.00007234    -0.00072002
     6
  Step:    43            Position(A)                                  Velocity(au)
C        -0.03530247     0.01292773    -0.16723349     0.00005548     0.00002365    -0.00054269
N        -0.04116197    -0.08785096     1.45626330    -0.00008772    -0.00011864     0.00046780
H         0.92203991     0.11679529    -0.62534435     0.00057743     0.00030009    -0.00041377
H         0.83459732     0.00447774     1.95089766     0.00049063     0.00044396     0.00058517
H        -0.96456346     0.12896515     1.91525077     0.00051380     0.00055767     0.00053245
H        -1.01235133     0.14675398    -0.59274083    -0.00102397     0.00006514    -0.00073785
     6
  Step:    44            Position(A)                                  Velocity(au)
C        -0.03500623     0.01305910    -0.17017449     0.00005032     0.00002360    -0.00051249
N        -0.04168042    -0.08850965     1.45881946    -0.00009705    -0.00011756     0.00044892
H         0.92538860     0.11847533    -0.62773176     0.00061741     0.00030179    -0.00043947
H         0.83739594     0.00698235     1.95418473     0.00050473     0.00045313     0.00058854
H        -0.96133569     0.13202902     1.91802821     0.00063634     0.00054218     0.00046605
H        -1.01805181     0.14709364    -0.59689408    -0.00100942     0.00005541    -0.00074657
     6