     6
  Step:   120            Position(A)                                  Velocity(au)
C        -0.03175889     0.07068522    -0.20676901    -0.00000672     0.00000586     0.00003472
N        -0.04123690     0.01781403     1.51996537     0.00001031     0.00000960     0.00000130
H         0.92713443    -0.21367432    -0.68305634     0.00064477     0.00070265     0.00004079
H         0.71227257    -0.71840298     1.69674228    -0.00052712    -0.00074068    -0.00120418
H        -0.92508648    -0.44472241     1.79320229    -0.00023585     0.00087433    -0.00014707
H        -0.97576177    -0.38282272    -0.57297215     0.00005505    -0.00103947     0.00087856
