|===============================================================================
|
|  DFTB+ release 20.1
|
|  Copyright (C) 2006 - 2020  DFTB+ developers group
|
|===============================================================================
|
|  When publishing results obtained with DFTB+, please cite the following
|  reference:
|
|  * DFTB+, a software package for efficient approximate density functional
|    theory based atomistic simulations, J. Chem. Phys. 152, 124101 (2020).
|    [doi: 10.1063/1.5143190]
|
|  You should also cite additional publications crediting the parametrization
|  data you use. Please consult the documentation of the SK-files for the
|  references.
|
|===============================================================================

Reading input file 'dftb_in.hsd'
Parser version: 8

--------------------------------------------------------------------------------
Reading SK-files:
Done.


Processed input in HSD format written to 'dftb_pin.hsd'

Starting initialization...
--------------------------------------------------------------------------------
OpenMP threads:              1
Chosen random seed:          502490792
Mode:                        Static calculation
Self consistent charges:     Yes
SCC-tolerance:                 0.100000E-05
Max. scc iterations:                   1000
Shell resolved Hubbard:      No
Spin polarisation:           No
Nr. of up electrons:            16.000000
Nr. of down electrons:          16.000000
Periodic boundaries:         No
Electronic solver:           Relatively robust
Maximal SCC-cycles:                    1000
Initial charges:             Set automatically (system chrg:   0.100E+01)
Included shells:             C:  s, p
                             H:  s
                             N:  s, p
Spin coupling constants:     C   1(s)-1(s):  -0.455900E-01
                             C   1(s)-2(p):  -0.293000E-01
                             C   2(p)-1(s):  -0.293000E-01
                             C   2(p)-2(p):  -0.275500E-01
                             H   1(s)-1(s):  -0.792500E-01
                             N   1(s)-1(s):  -0.468700E-01
                             N   1(s)-2(p):  -0.317000E-01
                             N   2(p)-1(s):  -0.317000E-01
                             N   2(p)-2(p):  -0.307200E-01
Range separated hybrid:      Yes
  Screening parameter omega:   0.300000E+00
  Range separated algorithm:   MatrixBased
Extra options:
                             Mulliken analysis
                             Force calculation
Force type                   original
                             Eigenvector printing


REKS Calcuation:             Yes
SSR(2,2) Calcuation:         Yes
Energy Functional:           (PPS+OSS)/2
Number of Core Orbitals:                 15
Number of Active Orbitals:                2
Number of Basis:                         32
Number of States:                         2
State-Averaging Weight:          0.500000
                                 0.500000
State of Interest:                        1
Initial Guess:               Diagonalize H0 matrix
Newton-Raphson for FON opt:  Yes
NR max. Iterations:                      50
Level Shifting:              Yes
Shift Value:                     0.300000
W Scale Factor:              C  =    3.200000
                             H  =    3.200000
                             N  =    3.200000
Transition Dipole:           No
Gradient of Microstate:      No
CP-REKS Solver:              Preconditioned Conjugate-Gradient
CG max. Iterations:                     100
CG Tolerance:                  0.100000E-07
Memory for A and Hxc:        Direct Updating Without Saving
Non-Adiabatic Coupling:      Yes

--------------------------------------------------------------------------------

***  Geometry step: 0

  iSCC       reks energy        Diff energy         x_a       SCC error   
    1      -16.4017984645       0.0000000000     0.989027    1.21959571
    2      -16.4238987978      -0.0221003333     0.998847    0.04577251
    3      -16.4286437796      -0.0047449818     0.999637    0.02320153
    4      -16.4302928797      -0.0016491001     0.999810    0.01222651
    5      -16.4310147236      -0.0007218439     0.999874    0.00709737
    6      -16.4313668295      -0.0003521059     0.999904    0.00486185
    7      -16.4315510197      -0.0001841902     0.999920    0.00358914
    8      -16.4316525665      -0.0001015468     0.999930    0.00267968
    9      -16.4317111175      -0.0000585509     0.999936    0.00199296
   10      -16.4317463301      -0.0000352126     0.999939    0.00148273
   11      -16.4317684020      -0.0000220719     0.999942    0.00110715
   12      -16.4317828156      -0.0000144137     0.999943    0.00085484
   13      -16.4317926140      -0.0000097983     0.999944    0.00066933
   14      -16.4317995388      -0.0000069248     0.999945    0.00052815
   15      -16.4318046181      -0.0000050793     0.999946    0.00041951
   16      -16.4318084773      -0.0000038592     0.999946    0.00033506
   17      -16.4318115082      -0.0000030309     0.999946    0.00026876
   18      -16.4318139630      -0.0000024548     0.999947    0.00021784
   19      -16.4318160080      -0.0000020451     0.999947    0.00020180
   20      -16.4318177558      -0.0000017477     0.999947    0.00020046
   21      -16.4318192835      -0.0000015277     0.999947    0.00019852
   22      -16.4318206454      -0.0000013619     0.999948    0.00019624
   23      -16.4318218800      -0.0000012346     0.999948    0.00019382
   24      -16.4318230152      -0.0000011351     0.999948    0.00019134
   25      -16.4318240710      -0.0000010559     0.999948    0.00018887
   26      -16.4318250626      -0.0000009915     0.999948    0.00018645
   27      -16.4318260009      -0.0000009383     0.999949    0.00018408
   28      -16.4318268945      -0.0000008935     0.999949    0.00018178
   29      -16.4318277496      -0.0000008551     0.999949    0.00017955
   30      -16.4318285711      -0.0000008216     0.999949    0.00017738
   31      -16.4318293630      -0.0000007918     0.999949    0.00017527
   32      -16.4318301281      -0.0000007651     0.999950    0.00017321
   33      -16.4318308689      -0.0000007408     0.999950    0.00017121
   34      -16.4318315873      -0.0000007184     0.999950    0.00016925
   35      -16.4318322850      -0.0000006976     0.999950    0.00016734
   36      -16.4318329632      -0.0000006782     0.999951    0.00016546
   37      -16.4318336230      -0.0000006598     0.999951    0.00016362
   38      -16.4318342654      -0.0000006424     0.999951    0.00016182
   39      -16.4318348913      -0.0000006259     0.999951    0.00016004
   40      -16.4318355014      -0.0000006101     0.999952    0.00015830
   41      -16.4318360964      -0.0000005950     0.999952    0.00015658
   42      -16.4318366768      -0.0000005804     0.999952    0.00015498
   43      -16.4318372432      -0.0000005664     0.999952    0.00015382
   44      -16.4318377962      -0.0000005530     0.999953    0.00015261
   45      -16.4318383361      -0.0000005399     0.999953    0.00015135
   46      -16.4318388635      -0.0000005274     0.999953    0.00015006
   47      -16.4318393787      -0.0000005152     0.999953    0.00014875
   48      -16.4318398822      -0.0000005035     0.999953    0.00014742
   49      -16.4318403743      -0.0000004921     0.999954    0.00014608
   50      -16.4318408554      -0.0000004811     0.999954    0.00014473
   51      -16.4318413258      -0.0000004704     0.999954    0.00014338
   52      -16.4318417858      -0.0000004600     0.999954    0.00014203
   53      -16.4318422358      -0.0000004500     0.999954    0.00014069
   54      -16.4318426760      -0.0000004402     0.999955    0.00013936
   55      -16.4318431068      -0.0000004308     0.999955    0.00013803
   56      -16.4318435284      -0.0000004216     0.999955    0.00013672
   57      -16.4318439411      -0.0000004127     0.999955    0.00013542
   58      -16.4318443451      -0.0000004040     0.999956    0.00013413
   59      -16.4318447407      -0.0000003956     0.999956    0.00013286
   60      -16.4318451281      -0.0000003874     0.999956    0.00013160
   61      -16.4318455076      -0.0000003795     0.999956    0.00013036
   62      -16.4318458794      -0.0000003718     0.999956    0.00012913
   63      -16.4318462437      -0.0000003643     0.999956    0.00012792
   64      -16.4318466007      -0.0000003570     0.999957    0.00012673
   65      -16.4318469506      -0.0000003499     0.999957    0.00012555
   66      -16.4318472935      -0.0000003430     0.999957    0.00012439
   67      -16.4318476298      -0.0000003363     0.999957    0.00012324
   68      -16.4318479595      -0.0000003297     0.999957    0.00012212
   69      -16.4318482829      -0.0000003234     0.999958    0.00012100
   70      -16.4318486000      -0.0000003172     0.999958    0.00011991
   71      -16.4318489112      -0.0000003111     0.999958    0.00011883
   72      -16.4318492164      -0.0000003053     0.999958    0.00011777
   73      -16.4318495160      -0.0000002995     0.999958    0.00011672
   74      -16.4318498100      -0.0000002940     0.999958    0.00011569
   75      -16.4318500985      -0.0000002886     0.999959    0.00011467
   76      -16.4318503818      -0.0000002833     0.999959    0.00011367
   77      -16.4318506599      -0.0000002781     0.999959    0.00011269
   78      -16.4318509330      -0.0000002731     0.999959    0.00011171
   79      -16.4318512012      -0.0000002682     0.999959    0.00011076
   80      -16.4318514646      -0.0000002634     0.999959    0.00010981
   81      -16.4318517234      -0.0000002588     0.999960    0.00010889
   82      -16.4318519776      -0.0000002542     0.999960    0.00010797
   83      -16.4318522274      -0.0000002498     0.999960    0.00010707
   84      -16.4318524729      -0.0000002455     0.999960    0.00010618
   85      -16.4318527142      -0.0000002413     0.999960    0.00010531
   86      -16.4318529513      -0.0000002372     0.999960    0.00010445
   87      -16.4318531845      -0.0000002332     0.999960    0.00010360
   88      -16.4318534137      -0.0000002292     0.999961    0.00010276
   89      -16.4318536391      -0.0000002254     0.999961    0.00010194
   90      -16.4318538608      -0.0000002217     0.999961    0.00010113
   91      -16.4318540789      -0.0000002180     0.999961    0.00010032
   92      -16.4318542933      -0.0000002145     0.999961    0.00009954
   93      -16.4318545044      -0.0000002110     0.999961    0.00009876
   94      -16.4318547120      -0.0000002076     0.999961    0.00009799
   95      -16.4318549162      -0.0000002043     0.999962    0.00009724
   96      -16.4318551173      -0.0000002010     0.999962    0.00009649
   97      -16.4318553152      -0.0000001979     0.999962    0.00009576
   98      -16.4318555100      -0.0000001948     0.999962    0.00009503
   99      -16.4318557017      -0.0000001918     0.999962    0.00009432
  100      -16.4318558905      -0.0000001888     0.999962    0.00009362
  101      -16.4318560764      -0.0000001859     0.999962    0.00009292
  102      -16.4318562595      -0.0000001831     0.999963    0.00009224
  103      -16.4318564398      -0.0000001803     0.999963    0.00009157
  104      -16.4318566174      -0.0000001776     0.999963    0.00009090
  105      -16.4318567924      -0.0000001750     0.999963    0.00009025
  106      -16.4318569648      -0.0000001724     0.999963    0.00008960
  107      -16.4318571346      -0.0000001698     0.999963    0.00008896
  108      -16.4318573020      -0.0000001674     0.999963    0.00008833
  109      -16.4318574669      -0.0000001649     0.999963    0.00008771
  110      -16.4318576295      -0.0000001626     0.999964    0.00008710
  111      -16.4318577898      -0.0000001603     0.999964    0.00008650
  112      -16.4318579478      -0.0000001580     0.999964    0.00008590
  113      -16.4318581035      -0.0000001558     0.999964    0.00008531
  114      -16.4318582571      -0.0000001536     0.999964    0.00008473
  115      -16.4318584085      -0.0000001514     0.999964    0.00008416
  116      -16.4318585579      -0.0000001494     0.999964    0.00008360
  117      -16.4318587052      -0.0000001473     0.999964    0.00008304
  118      -16.4318588505      -0.0000001453     0.999964    0.00008249
  119      -16.4318589938      -0.0000001433     0.999965    0.00008195
  120      -16.4318591352      -0.0000001414     0.999965    0.00008142
  121      -16.4318592748      -0.0000001395     0.999965    0.00008089
  122      -16.4318594124      -0.0000001377     0.999965    0.00008037
  123      -16.4318595483      -0.0000001359     0.999965    0.00007985
  124      -16.4318596824      -0.0000001341     0.999965    0.00007934
  125      -16.4318598148      -0.0000001324     0.999965    0.00007884
  126      -16.4318599454      -0.0000001307     0.999965    0.00007835
  127      -16.4318600744      -0.0000001290     0.999965    0.00007786
  128      -16.4318602018      -0.0000001273     0.999965    0.00007738
  129      -16.4318603275      -0.0000001257     0.999966    0.00007690
  130      -16.4318604517      -0.0000001242     0.999966    0.00007643
  131      -16.4318605743      -0.0000001226     0.999966    0.00007597
  132      -16.4318606954      -0.0000001211     0.999966    0.00007551
  133      -16.4318608150      -0.0000001196     0.999966    0.00007506
  134      -16.4318609332      -0.0000001182     0.999966    0.00007461
  135      -16.4318610499      -0.0000001167     0.999966    0.00007417
  136      -16.4318611653      -0.0000001153     0.999966    0.00007374
  137      -16.4318612792      -0.0000001140     0.999966    0.00007331
  138      -16.4318613919      -0.0000001126     0.999966    0.00007288
  139      -16.4318615031      -0.0000001113     0.999967    0.00007247
  140      -16.4318616131      -0.0000001100     0.999967    0.00007205
  141      -16.4318617218      -0.0000001087     0.999967    0.00007164
  142      -16.4318618293      -0.0000001075     0.999967    0.00007124
  143      -16.4318619355      -0.0000001062     0.999967    0.00007084
  144      -16.4318620405      -0.0000001050     0.999967    0.00007045
  145      -16.4318621443      -0.0000001038     0.999967    0.00007006
  146      -16.4318622470      -0.0000001027     0.999967    0.00006967
  147      -16.4318623485      -0.0000001015     0.999967    0.00006929
  148      -16.4318624489      -0.0000001004     0.999967    0.00006892
  149      -16.4318625482      -0.0000000993     0.999967    0.00006855
  150      -16.4318626464      -0.0000000982     0.999968    0.00006818
  151      -16.4318627436      -0.0000000972     0.999968    0.00006782
  152      -16.4318628397      -0.0000000961     0.999968    0.00006746
  153      -16.4318629348      -0.0000000951     0.999968    0.00006711
  154      -16.4318630289      -0.0000000941     0.999968    0.00006676
  155      -16.4318631219      -0.0000000931     0.999968    0.00006642
  156      -16.4318632141      -0.0000000921     0.999968    0.00006608
  157      -16.4318633052      -0.0000000912     0.999968    0.00006574
  158      -16.4318633954      -0.0000000902     0.999968    0.00006541
  159      -16.4318634847      -0.0000000893     0.999968    0.00006508
  160      -16.4318635731      -0.0000000884     0.999968    0.00006475
  161      -16.4318636606      -0.0000000875     0.999968    0.00006443
  162      -16.4318637472      -0.0000000866     0.999969    0.00006412
  163      -16.4318638329      -0.0000000857     0.999969    0.00006380
  164      -16.4318639178      -0.0000000849     0.999969    0.00006349
  165      -16.4318640019      -0.0000000841     0.999969    0.00006319
  166      -16.4318640852      -0.0000000832     0.999969    0.00006288
  167      -16.4318641676      -0.0000000824     0.999969    0.00006259
  168      -16.4318642493      -0.0000000817     0.999969    0.00006229
  169      -16.4318643301      -0.0000000809     0.999969    0.00006200
  170      -16.4318644102      -0.0000000801     0.999969    0.00006171
  171      -16.4318644896      -0.0000000794     0.999969    0.00006143
  172      -16.4318645682      -0.0000000786     0.999969    0.00006114
  173      -16.4318646461      -0.0000000779     0.999969    0.00006086
  174      -16.4318647233      -0.0000000772     0.999970    0.00006059
  175      -16.4318647997      -0.0000000765     0.999970    0.00006032
  176      -16.4318648755      -0.0000000758     0.999970    0.00006005
  177      -16.4318649506      -0.0000000751     0.999970    0.00005978
  178      -16.4318650250      -0.0000000744     0.999970    0.00005952
  179      -16.4318650987      -0.0000000738     0.999970    0.00005926
  180      -16.4318651719      -0.0000000731     0.999970    0.00005900
  181      -16.4318652443      -0.0000000725     0.999970    0.00005875
  182      -16.4318653162      -0.0000000718     0.999970    0.00005850
  183      -16.4318653874      -0.0000000712     0.999970    0.00005825
  184      -16.4318654580      -0.0000000706     0.999970    0.00005800
  185      -16.4318655280      -0.0000000700     0.999970    0.00005776
  186      -16.4318655974      -0.0000000694     0.999970    0.00005752
  187      -16.4318656662      -0.0000000688     0.999970    0.00005728
  188      -16.4318657345      -0.0000000683     0.999971    0.00005705
  189      -16.4318658022      -0.0000000677     0.999971    0.00005682
  190      -16.4318658694      -0.0000000671     0.999971    0.00005659
  191      -16.4318659360      -0.0000000666     0.999971    0.00005636
  192      -16.4318660020      -0.0000000661     0.999971    0.00005614
  193      -16.4318660676      -0.0000000655     0.999971    0.00005592
  194      -16.4318661326      -0.0000000650     0.999971    0.00005570
  195      -16.4318661971      -0.0000000645     0.999971    0.00005548
  196      -16.4318662611      -0.0000000640     0.999971    0.00005527
  197      -16.4318663246      -0.0000000635     0.999971    0.00005505
  198      -16.4318663876      -0.0000000630     0.999971    0.00005484
  199      -16.4318664501      -0.0000000625     0.999971    0.00005464
  200      -16.4318665122      -0.0000000621     0.999971    0.00005443
  201      -16.4318665738      -0.0000000616     0.999971    0.00005423
  202      -16.4318666349      -0.0000000611     0.999971    0.00005403
  203      -16.4318666956      -0.0000000607     0.999972    0.00005383
  204      -16.4318667558      -0.0000000602     0.999972    0.00005364
  205      -16.4318668156      -0.0000000598     0.999972    0.00005344
  206      -16.4318668749      -0.0000000594     0.999972    0.00005325
  207      -16.4318669339      -0.0000000589     0.999972    0.00005306
  208      -16.4318669924      -0.0000000585     0.999972    0.00005288
  209      -16.4318670505      -0.0000000581     0.999972    0.00005269
  210      -16.4318671082      -0.0000000577     0.999972    0.00005251
  211      -16.4318671655      -0.0000000573     0.999972    0.00005233
  212      -16.4318672223      -0.0000000569     0.999972    0.00005215
  213      -16.4318672789      -0.0000000565     0.999972    0.00005197
  214      -16.4318673350      -0.0000000561     0.999972    0.00005180
  215      -16.4318673907      -0.0000000557     0.999972    0.00005163
  216      -16.4318674461      -0.0000000554     0.999972    0.00005146
  217      -16.4318675011      -0.0000000550     0.999972    0.00005129
  218      -16.4318675557      -0.0000000546     0.999972    0.00005112
  219      -16.4318676100      -0.0000000543     0.999972    0.00005096
  220      -16.4318676639      -0.0000000539     0.999973    0.00005079
  221      -16.4318677175      -0.0000000536     0.999973    0.00005063
  222      -16.4318677708      -0.0000000532     0.999973    0.00005047
  223      -16.4318678237      -0.0000000529     0.999973    0.00005031
  224      -16.4318678762      -0.0000000526     0.999973    0.00005016
  225      -16.4318679285      -0.0000000523     0.999973    0.00005000
  226      -16.4318679804      -0.0000000519     0.999973    0.00004985
  227      -16.4318680320      -0.0000000516     0.999973    0.00004970
  228      -16.4318680833      -0.0000000513     0.999973    0.00004955
  229      -16.4318681343      -0.0000000510     0.999973    0.00004941
  230      -16.4318681850      -0.0000000507     0.999973    0.00004926
  231      -16.4318682354      -0.0000000504     0.999973    0.00004912
  232      -16.4318682855      -0.0000000501     0.999973    0.00004897
  233      -16.4318683353      -0.0000000498     0.999973    0.00004883
  234      -16.4318683848      -0.0000000495     0.999973    0.00004869
  235      -16.4318684341      -0.0000000492     0.999973    0.00004856
  236      -16.4318684831      -0.0000000490     0.999973    0.00004842
  237      -16.4318685317      -0.0000000487     0.999974    0.00004829
  238      -16.4318685802      -0.0000000484     0.999974    0.00004815
  239      -16.4318686283      -0.0000000482     0.999974    0.00004802
  240      -16.4318686762      -0.0000000479     0.999974    0.00004789
  241      -16.4318687239      -0.0000000476     0.999974    0.00004777
  242      -16.4318687712      -0.0000000474     0.999974    0.00004764
  243      -16.4318688184      -0.0000000471     0.999974    0.00004751
  244      -16.4318688652      -0.0000000469     0.999974    0.00004739
  245      -16.4318689119      -0.0000000466     0.999974    0.00004727
  246      -16.4318689583      -0.0000000464     0.999974    0.00004715
  247      -16.4318690045      -0.0000000462     0.999974    0.00004703
  248      -16.4318690504      -0.0000000459     0.999974    0.00004691
  249      -16.4318690961      -0.0000000457     0.999974    0.00004680
  250      -16.4318691416      -0.0000000455     0.999974    0.00004668
  251      -16.4318691868      -0.0000000453     0.999974    0.00004657
  252      -16.4318692319      -0.0000000450     0.999974    0.00004645
  253      -16.4318692767      -0.0000000448     0.999974    0.00004634
  254      -16.4318693213      -0.0000000446     0.999974    0.00004623
  255      -16.4318693657      -0.0000000444     0.999974    0.00004613
  256      -16.4318694099      -0.0000000442     0.999975    0.00004602
  257      -16.4318694539      -0.0000000440     0.999975    0.00004591
  258      -16.4318694977      -0.0000000438     0.999975    0.00004581
  259      -16.4318695413      -0.0000000436     0.999975    0.00004571
  260      -16.4318695846      -0.0000000434     0.999975    0.00004561
  261      -16.4318696279      -0.0000000432     0.999975    0.00004550
  262      -16.4318696709      -0.0000000430     0.999975    0.00004541
  263      -16.4318697137      -0.0000000428     0.999975    0.00004531
  264      -16.4318697563      -0.0000000426     0.999975    0.00004521
  265      -16.4318697988      -0.0000000425     0.999975    0.00004512
  266      -16.4318698411      -0.0000000423     0.999975    0.00004502
  267      -16.4318698832      -0.0000000421     0.999975    0.00004493
  268      -16.4318699251      -0.0000000419     0.999975    0.00004484
  269      -16.4318699669      -0.0000000418     0.999975    0.00004475
  270      -16.4318700085      -0.0000000416     0.999975    0.00004466
  271      -16.4318700500      -0.0000000414     0.999975    0.00004457
  272      -16.4318700912      -0.0000000413     0.999975    0.00004448
  273      -16.4318701323      -0.0000000411     0.999975    0.00004440
  274      -16.4318701733      -0.0000000410     0.999975    0.00004431
  275      -16.4318702141      -0.0000000408     0.999975    0.00004423
  276      -16.4318702548      -0.0000000407     0.999976    0.00004414
  277      -16.4318702953      -0.0000000405     0.999976    0.00004406
  278      -16.4318703356      -0.0000000404     0.999976    0.00004398
  279      -16.4318703758      -0.0000000402     0.999976    0.00004390
  280      -16.4318704159      -0.0000000401     0.999976    0.00004383
  281      -16.4318704558      -0.0000000399     0.999976    0.00004375
  282      -16.4318704956      -0.0000000398     0.999976    0.00004367
  283      -16.4318705353      -0.0000000397     0.999976    0.00004360
  284      -16.4318705748      -0.0000000395     0.999976    0.00004353
  285      -16.4318706142      -0.0000000394     0.999976    0.00004345
  286      -16.4318706534      -0.0000000393     0.999976    0.00004338
  287      -16.4318706926      -0.0000000391     0.999976    0.00004331
  288      -16.4318707316      -0.0000000390     0.999976    0.00004324
  289      -16.4318707704      -0.0000000389     0.999976    0.00004317
  290      -16.4318708092      -0.0000000388     0.999976    0.00004310
  291      -16.4318708478      -0.0000000386     0.999976    0.00004304
  292      -16.4318708864      -0.0000000385     0.999976    0.00004297
  293      -16.4318709248      -0.0000000384     0.999976    0.00004291
  294      -16.4318709631      -0.0000000383     0.999976    0.00004285
  295      -16.4318710013      -0.0000000382     0.999976    0.00004278
  296      -16.4318710393      -0.0000000381     0.999976    0.00004272
  297      -16.4318710773      -0.0000000380     0.999976    0.00004266
  298      -16.4318711152      -0.0000000379     0.999977    0.00004260
  299      -16.4318711529      -0.0000000378     0.999977    0.00004254
  300      -16.4318711906      -0.0000000377     0.999977    0.00004249
  301      -16.4318712281      -0.0000000376     0.999977    0.00004243
  302      -16.4318712656      -0.0000000375     0.999977    0.00004237
  303      -16.4318713030      -0.0000000374     0.999977    0.00004232
  304      -16.4318713402      -0.0000000373     0.999977    0.00004227
  305      -16.4318713774      -0.0000000372     0.999977    0.00004221
  306      -16.4318714145      -0.0000000371     0.999977    0.00004216
  307      -16.4318714515      -0.0000000370     0.999977    0.00004211
  308      -16.4318714884      -0.0000000369     0.999977    0.00004206
  309      -16.4318715253      -0.0000000368     0.999977    0.00004201
  310      -16.4318715620      -0.0000000367     0.999977    0.00004196
  311      -16.4318715987      -0.0000000367     0.999977    0.00004192
  312      -16.4318716353      -0.0000000366     0.999977    0.00004187
  313      -16.4318716718      -0.0000000365     0.999977    0.00004182
  314      -16.4318717082      -0.0000000364     0.999977    0.00004178
  315      -16.4318717446      -0.0000000364     0.999977    0.00004174
  316      -16.4318717808      -0.0000000363     0.999977    0.00004169
  317      -16.4318718170      -0.0000000362     0.999977    0.00004165
  318      -16.4318718532      -0.0000000361     0.999977    0.00004161
  319      -16.4318718893      -0.0000000361     0.999977    0.00004157
  320      -16.4318719253      -0.0000000360     0.999977    0.00004153
  321      -16.4318719612      -0.0000000359     0.999978    0.00004149
  322      -16.4318719971      -0.0000000359     0.999978    0.00004146
  323      -16.4318720329      -0.0000000358     0.999978    0.00004142
  324      -16.4318720687      -0.0000000358     0.999978    0.00004138
  325      -16.4318721043      -0.0000000357     0.999978    0.00004135
  326      -16.4318721400      -0.0000000356     0.999978    0.00004131
  327      -16.4318721756      -0.0000000356     0.999978    0.00004128
  328      -16.4318722111      -0.0000000355     0.999978    0.00004125
  329      -16.4318722466      -0.0000000355     0.999978    0.00004122
  330      -16.4318722820      -0.0000000354     0.999978    0.00004119
  331      -16.4318723174      -0.0000000354     0.999978    0.00004116
  332      -16.4318723527      -0.0000000353     0.999978    0.00004113
  333      -16.4318723880      -0.0000000353     0.999978    0.00004110
  334      -16.4318724232      -0.0000000352     0.999978    0.00004107
  335      -16.4318724584      -0.0000000352     0.999978    0.00004105
  336      -16.4318724936      -0.0000000351     0.999978    0.00004102
  337      -16.4318725287      -0.0000000351     0.999978    0.00004100
  338      -16.4318725637      -0.0000000351     0.999978    0.00004097
  339      -16.4318725988      -0.0000000350     0.999978    0.00004095
  340      -16.4318726338      -0.0000000350     0.999978    0.00004093
  341      -16.4318726687      -0.0000000350     0.999978    0.00004090
  342      -16.4318727036      -0.0000000349     0.999978    0.00004088
  343      -16.4318727385      -0.0000000349     0.999978    0.00004086
  344      -16.4318727734      -0.0000000349     0.999978    0.00004084
  345      -16.4318728082      -0.0000000348     0.999978    0.00004083
  346      -16.4318728430      -0.0000000348     0.999979    0.00004081
  347      -16.4318728778      -0.0000000348     0.999979    0.00004079
  348      -16.4318729126      -0.0000000348     0.999979    0.00004078
  349      -16.4318729473      -0.0000000347     0.999979    0.00004076
  350      -16.4318729820      -0.0000000347     0.999979    0.00004075
  351      -16.4318730167      -0.0000000347     0.999979    0.00004073
  352      -16.4318730514      -0.0000000347     0.999979    0.00004072
  353      -16.4318730860      -0.0000000346     0.999979    0.00004071
  354      -16.4318731206      -0.0000000346     0.999979    0.00004070
  355      -16.4318731552      -0.0000000346     0.999979    0.00004069
  356      -16.4318731899      -0.0000000346     0.999979    0.00004068
  357      -16.4318732244      -0.0000000346     0.999979    0.00004067
  358      -16.4318732590      -0.0000000346     0.999979    0.00004066
  359      -16.4318732936      -0.0000000346     0.999979    0.00004065
  360      -16.4318733281      -0.0000000346     0.999979    0.00004065
  361      -16.4318733627      -0.0000000346     0.999979    0.00004064
  362      -16.4318733972      -0.0000000345     0.999979    0.00004063
  363      -16.4318734318      -0.0000000345     0.999979    0.00004063
  364      -16.4318734663      -0.0000000345     0.999979    0.00004063
  365      -16.4318735008      -0.0000000345     0.999979    0.00004062
  366      -16.4318735354      -0.0000000345     0.999979    0.00004062
  367      -16.4318735699      -0.0000000345     0.999979    0.00004062
  368      -16.4318736044      -0.0000000345     0.999979    0.00004062
  369      -16.4318736390      -0.0000000345     0.999979    0.00004062
  370      -16.4318736735      -0.0000000345     0.999979    0.00004062
  371      -16.4318737081      -0.0000000345     0.999980    0.00004062
  372      -16.4318737426      -0.0000000346     0.999980    0.00004063
  373      -16.4318737772      -0.0000000346     0.999980    0.00004063
  374      -16.4318738118      -0.0000000346     0.999980    0.00004063
  375      -16.4318738464      -0.0000000346     0.999980    0.00004064
  376      -16.4318738810      -0.0000000346     0.999980    0.00004065
  377      -16.4318739156      -0.0000000346     0.999980    0.00004065
  378      -16.4318739502      -0.0000000346     0.999980    0.00004066
  379      -16.4318739848      -0.0000000346     0.999980    0.00004067
  380      -16.4318740195      -0.0000000347     0.999980    0.00004068
  381      -16.4318740542      -0.0000000347     0.999980    0.00004069
  382      -16.4318740889      -0.0000000347     0.999980    0.00004070
  383      -16.4318741236      -0.0000000347     0.999980    0.00004071
  384      -16.4318741584      -0.0000000347     0.999980    0.00004072
  385      -16.4318741931      -0.0000000348     0.999980    0.00004073
  386      -16.4318742279      -0.0000000348     0.999980    0.00004075
  387      -16.4318742628      -0.0000000348     0.999980    0.00004076
  388      -16.4318742976      -0.0000000349     0.999980    0.00004077
  389      -16.4318743325      -0.0000000349     0.999980    0.00004079
  390      -16.4318743674      -0.0000000349     0.999980    0.00004081
  391      -16.4318744024      -0.0000000349     0.999980    0.00004082
  392      -16.4318744374      -0.0000000350     0.999980    0.00004084
  393      -16.4318744724      -0.0000000350     0.999980    0.00004086
  394      -16.4318745074      -0.0000000351     0.999980    0.00004088
  395      -16.4318745425      -0.0000000351     0.999980    0.00004090
  396      -16.4318745777      -0.0000000351     0.999980    0.00004092
  397      -16.4318746128      -0.0000000352     0.999980    0.00004094
  398      -16.4318746481      -0.0000000352     0.999981    0.00004097
  399      -16.4318746833      -0.0000000353     0.999981    0.00004099
  400      -16.4318747186      -0.0000000353     0.999981    0.00004101
  401      -16.4318747540      -0.0000000354     0.999981    0.00004104
  402      -16.4318747894      -0.0000000354     0.999981    0.00004106
  403      -16.4318748248      -0.0000000355     0.999981    0.00004109
  404      -16.4318748603      -0.0000000355     0.999981    0.00004112
  405      -16.4318748959      -0.0000000356     0.999981    0.00004115
  406      -16.4318749315      -0.0000000356     0.999981    0.00004118
  407      -16.4318749672      -0.0000000357     0.999981    0.00004120
  408      -16.4318750029      -0.0000000357     0.999981    0.00004124
  409      -16.4318750387      -0.0000000358     0.999981    0.00004127
  410      -16.4318750745      -0.0000000358     0.999981    0.00004130
  411      -16.4318751104      -0.0000000359     0.999981    0.00004133
  412      -16.4318751464      -0.0000000360     0.999981    0.00004137
  413      -16.4318751824      -0.0000000360     0.999981    0.00004140
  414      -16.4318752185      -0.0000000361     0.999981    0.00004143
  415      -16.4318752546      -0.0000000362     0.999981    0.00004147
  416      -16.4318752909      -0.0000000362     0.999981    0.00004151
  417      -16.4318753271      -0.0000000363     0.999981    0.00004155
  418      -16.4318753635      -0.0000000364     0.999981    0.00004158
  419      -16.4318754000      -0.0000000364     0.999981    0.00004162
  420      -16.4318754365      -0.0000000365     0.999981    0.00004166
  421      -16.4318754731      -0.0000000366     0.999981    0.00004170
  422      -16.4318755097      -0.0000000367     0.999981    0.00004175
  423      -16.4318755465      -0.0000000367     0.999981    0.00004179
  424      -16.4318755833      -0.0000000368     0.999981    0.00004183
  425      -16.4318756202      -0.0000000369     0.999982    0.00004187
  426      -16.4318756572      -0.0000000370     0.999982    0.00004192
  427      -16.4318756943      -0.0000000371     0.999982    0.00004197
  428      -16.4318757315      -0.0000000372     0.999982    0.00004201
  429      -16.4318757687      -0.0000000373     0.999982    0.00004206
  430      -16.4318758061      -0.0000000373     0.999982    0.00004211
  431      -16.4318758435      -0.0000000374     0.999982    0.00004216
  432      -16.4318758810      -0.0000000375     0.999982    0.00004221
  433      -16.4318759187      -0.0000000376     0.999982    0.00004226
  434      -16.4318759564      -0.0000000377     0.999982    0.00004231
  435      -16.4318759942      -0.0000000378     0.999982    0.00004236
  436      -16.4318760321      -0.0000000379     0.999982    0.00004241
  437      -16.4318760702      -0.0000000380     0.999982    0.00004247
  438      -16.4318761083      -0.0000000381     0.999982    0.00004252
  439      -16.4318761465      -0.0000000382     0.999982    0.00004258
  440      -16.4318761849      -0.0000000383     0.999982    0.00004264
  441      -16.4318762233      -0.0000000385     0.999982    0.00004269
  442      -16.4318762619      -0.0000000386     0.999982    0.00004275
  443      -16.4318763006      -0.0000000387     0.999982    0.00004281
  444      -16.4318763394      -0.0000000388     0.999982    0.00004287
  445      -16.4318763783      -0.0000000389     0.999982    0.00004293
  446      -16.4318764173      -0.0000000390     0.999982    0.00004300
  447      -16.4318764565      -0.0000000391     0.999982    0.00004306
  448      -16.4318764957      -0.0000000393     0.999982    0.00004312
  449      -16.4318765351      -0.0000000394     0.999982    0.00004319
  450      -16.4318765746      -0.0000000395     0.999982    0.00004325
  451      -16.4318766143      -0.0000000396     0.999982    0.00004332
  452      -16.4318766541      -0.0000000398     0.999983    0.00004339
  453      -16.4318766940      -0.0000000399     0.999983    0.00004345
  454      -16.4318767340      -0.0000000400     0.999983    0.00004352
  455      -16.4318767742      -0.0000000402     0.999983    0.00004359
  456      -16.4318768145      -0.0000000403     0.999983    0.00004366
  457      -16.4318768550      -0.0000000405     0.999983    0.00004374
  458      -16.4318768955      -0.0000000406     0.999983    0.00004381
  459      -16.4318769363      -0.0000000407     0.999983    0.00004388
  460      -16.4318769772      -0.0000000409     0.999983    0.00004396
  461      -16.4318770182      -0.0000000410     0.999983    0.00004403
  462      -16.4318770594      -0.0000000412     0.999983    0.00004411
  463      -16.4318771007      -0.0000000413     0.999983    0.00004419
  464      -16.4318771422      -0.0000000415     0.999983    0.00004427
  465      -16.4318771839      -0.0000000416     0.999983    0.00004435
  466      -16.4318772257      -0.0000000418     0.999983    0.00004443
  467      -16.4318772676      -0.0000000420     0.999983    0.00004451
  468      -16.4318773098      -0.0000000421     0.999983    0.00004459
  469      -16.4318773521      -0.0000000423     0.999983    0.00004468
  470      -16.4318773945      -0.0000000425     0.999983    0.00004476
  471      -16.4318774372      -0.0000000426     0.999983    0.00004485
  472      -16.4318774800      -0.0000000428     0.999983    0.00004493
  473      -16.4318775230      -0.0000000430     0.999983    0.00004502
  474      -16.4318775661      -0.0000000432     0.999983    0.00004511
  475      -16.4318776095      -0.0000000433     0.999983    0.00004520
  476      -16.4318776530      -0.0000000435     0.999983    0.00004529
  477      -16.4318776967      -0.0000000437     0.999983    0.00004538
  478      -16.4318777406      -0.0000000439     0.999983    0.00004547
  479      -16.4318777847      -0.0000000441     0.999983    0.00004557
  480      -16.4318778289      -0.0000000443     0.999984    0.00004566
  481      -16.4318778734      -0.0000000445     0.999984    0.00004576
  482      -16.4318779181      -0.0000000447     0.999984    0.00004585
  483      -16.4318779630      -0.0000000449     0.999984    0.00004595
  484      -16.4318780080      -0.0000000451     0.999984    0.00004605
  485      -16.4318780533      -0.0000000453     0.999984    0.00004615
  486      -16.4318780988      -0.0000000455     0.999984    0.00004625
  487      -16.4318781445      -0.0000000457     0.999984    0.00004636
  488      -16.4318781904      -0.0000000459     0.999984    0.00004646
  489      -16.4318782365      -0.0000000461     0.999984    0.00004656
  490      -16.4318782829      -0.0000000463     0.999984    0.00004667
  491      -16.4318783294      -0.0000000466     0.999984    0.00004678
  492      -16.4318783762      -0.0000000468     0.999984    0.00004688
  493      -16.4318784233      -0.0000000470     0.999984    0.00004699
  494      -16.4318784705      -0.0000000473     0.999984    0.00004710
  495      -16.4318785180      -0.0000000475     0.999984    0.00004722
  496      -16.4318785657      -0.0000000477     0.999984    0.00004733
  497      -16.4318786137      -0.0000000480     0.999984    0.00004744
  498      -16.4318786619      -0.0000000482     0.999984    0.00004756
  499      -16.4318787104      -0.0000000485     0.999984    0.00004767
  500      -16.4318787591      -0.0000000487     0.999984    0.00004779
  501      -16.4318788081      -0.0000000490     0.999984    0.00004791
  502      -16.4318788573      -0.0000000492     0.999984    0.00004803
  503      -16.4318789068      -0.0000000495     0.999984    0.00004815
  504      -16.4318789565      -0.0000000497     0.999984    0.00004827
  505      -16.4318790065      -0.0000000500     0.999984    0.00004840
  506      -16.4318790568      -0.0000000503     0.999984    0.00004852
  507      -16.4318791073      -0.0000000506     0.999985    0.00004865
  508      -16.4318791582      -0.0000000508     0.999985    0.00004878
  509      -16.4318792093      -0.0000000511     0.999985    0.00004890
  510      -16.4318792607      -0.0000000514     0.999985    0.00004903
  511      -16.4318793124      -0.0000000517     0.999985    0.00004917
  512      -16.4318793644      -0.0000000520     0.999985    0.00004930
  513      -16.4318794166      -0.0000000523     0.999985    0.00004943
  514      -16.4318794692      -0.0000000526     0.999985    0.00004957
  515      -16.4318795221      -0.0000000529     0.999985    0.00004970
  516      -16.4318795753      -0.0000000532     0.999985    0.00004984
  517      -16.4318796288      -0.0000000535     0.999985    0.00004998
  518      -16.4318796826      -0.0000000538     0.999985    0.00005012
  519      -16.4318797367      -0.0000000541     0.999985    0.00005026
  520      -16.4318797912      -0.0000000545     0.999985    0.00005041
  521      -16.4318798460      -0.0000000548     0.999985    0.00005055
  522      -16.4318799011      -0.0000000551     0.999985    0.00005070
  523      -16.4318799566      -0.0000000555     0.999985    0.00005085
  524      -16.4318800123      -0.0000000558     0.999985    0.00005100
  525      -16.4318800685      -0.0000000561     0.999985    0.00005115
  526      -16.4318801250      -0.0000000565     0.999985    0.00005130
  527      -16.4318801818      -0.0000000568     0.999985    0.00005145
  528      -16.4318802390      -0.0000000572     0.999985    0.00005161
  529      -16.4318802966      -0.0000000576     0.999985    0.00005176
  530      -16.4318803546      -0.0000000579     0.999985    0.00005192
  531      -16.4318804129      -0.0000000583     0.999985    0.00005208
  532      -16.4318804716      -0.0000000587     0.999985    0.00005224
  533      -16.4318805306      -0.0000000591     0.999986    0.00005240
  534      -16.4318805901      -0.0000000595     0.999986    0.00005257
  535      -16.4318806500      -0.0000000599     0.999986    0.00005273
  536      -16.4318807102      -0.0000000603     0.999986    0.00005290
  537      -16.4318807709      -0.0000000607     0.999986    0.00005307
  538      -16.4318808320      -0.0000000611     0.999986    0.00005324
  539      -16.4318808934      -0.0000000615     0.999986    0.00005341
  540      -16.4318809554      -0.0000000619     0.999986    0.00005359
  541      -16.4318810177      -0.0000000623     0.999986    0.00005376
  542      -16.4318810804      -0.0000000628     0.999986    0.00005394
  543      -16.4318811436      -0.0000000632     0.999986    0.00005412
  544      -16.4318812073      -0.0000000636     0.999986    0.00005430
  545      -16.4318812714      -0.0000000641     0.999986    0.00005448
  546      -16.4318813359      -0.0000000645     0.999986    0.00005467
  547      -16.4318814009      -0.0000000650     0.999986    0.00005485
  548      -16.4318814664      -0.0000000655     0.999986    0.00005504
  549      -16.4318815324      -0.0000000659     0.999986    0.00005523
  550      -16.4318815988      -0.0000000664     0.999986    0.00005542
  551      -16.4318816657      -0.0000000669     0.999986    0.00005561
  552      -16.4318817331      -0.0000000674     0.999986    0.00005581
  553      -16.4318818010      -0.0000000679     0.999986    0.00005600
  554      -16.4318818694      -0.0000000684     0.999986    0.00005620
  555      -16.4318819384      -0.0000000689     0.999986    0.00005640
  556      -16.4318820078      -0.0000000694     0.999986    0.00005660
  557      -16.4318820778      -0.0000000700     0.999986    0.00005681
  558      -16.4318821483      -0.0000000705     0.999986    0.00005701
  559      -16.4318822193      -0.0000000710     0.999987    0.00005722
  560      -16.4318822909      -0.0000000716     0.999987    0.00005743
  561      -16.4318823631      -0.0000000721     0.999987    0.00005764
  562      -16.4318824358      -0.0000000727     0.999987    0.00005786
  563      -16.4318825091      -0.0000000733     0.999987    0.00005807
  564      -16.4318825829      -0.0000000739     0.999987    0.00005829
  565      -16.4318826574      -0.0000000744     0.999987    0.00005851
  566      -16.4318827324      -0.0000000750     0.999987    0.00005873
  567      -16.4318828081      -0.0000000756     0.999987    0.00005895
  568      -16.4318828843      -0.0000000763     0.999987    0.00005918
  569      -16.4318829612      -0.0000000769     0.999987    0.00005941
  570      -16.4318830387      -0.0000000775     0.999987    0.00005964
  571      -16.4318831169      -0.0000000781     0.999987    0.00005987
  572      -16.4318831956      -0.0000000788     0.999987    0.00006010
  573      -16.4318832751      -0.0000000794     0.999987    0.00006034
  574      -16.4318833552      -0.0000000801     0.999987    0.00006058
  575      -16.4318834360      -0.0000000808     0.999987    0.00006082
  576      -16.4318835174      -0.0000000815     0.999987    0.00006106
  577      -16.4318835996      -0.0000000822     0.999987    0.00006131
  578      -16.4318836824      -0.0000000829     0.999987    0.00006156
  579      -16.4318837660      -0.0000000836     0.999987    0.00006181
  580      -16.4318838503      -0.0000000843     0.999987    0.00006206
  581      -16.4318839353      -0.0000000850     0.999987    0.00006232
  582      -16.4318840211      -0.0000000858     0.999987    0.00006257
  583      -16.4318841076      -0.0000000865     0.999987    0.00006283
  584      -16.4318841949      -0.0000000873     0.999988    0.00006309
  585      -16.4318842829      -0.0000000881     0.999988    0.00006336
  586      -16.4318843718      -0.0000000888     0.999988    0.00006363
  587      -16.4318844614      -0.0000000896     0.999988    0.00006390
  588      -16.4318845519      -0.0000000904     0.999988    0.00006417
  589      -16.4318846431      -0.0000000913     0.999988    0.00006444
  590      -16.4318847352      -0.0000000921     0.999988    0.00006472
  591      -16.4318848282      -0.0000000929     0.999988    0.00006500
  592      -16.4318849220      -0.0000000938     0.999988    0.00006528
  593      -16.4318850166      -0.0000000947     0.999988    0.00006557
  594      -16.4318851122      -0.0000000955     0.999988    0.00006585
  595      -16.4318852086      -0.0000000964     0.999988    0.00006614
  596      -16.4318853060      -0.0000000973     0.999988    0.00006644
  597      -16.4318854042      -0.0000000983     0.999988    0.00006673
  598      -16.4318855034      -0.0000000992     0.999988    0.00006703
  599      -16.4318856036      -0.0000001001     0.999988    0.00006733
  600      -16.4318857047      -0.0000001011     0.999988    0.00006764
  601      -16.4318858068      -0.0000001021     0.999988    0.00006795
  602      -16.4318859099      -0.0000001031     0.999988    0.00006826
  603      -16.4318860140      -0.0000001041     0.999988    0.00006857
  604      -16.4318861191      -0.0000001051     0.999988    0.00006888
  605      -16.4318862252      -0.0000001061     0.999988    0.00006920
  606      -16.4318863324      -0.0000001072     0.999988    0.00006953
  607      -16.4318864406      -0.0000001083     0.999988    0.00006985
  608      -16.4318865500      -0.0000001093     0.999989    0.00007018
  609      -16.4318866604      -0.0000001104     0.999989    0.00007051
  610      -16.4318867720      -0.0000001115     0.999989    0.00007084
  611      -16.4318868846      -0.0000001127     0.999989    0.00007118
  612      -16.4318869985      -0.0000001138     0.999989    0.00007152
  613      -16.4318871135      -0.0000001150     0.999989    0.00007187
  614      -16.4318872296      -0.0000001162     0.999989    0.00007221
  615      -16.4318873470      -0.0000001174     0.999989    0.00007256
  616      -16.4318874656      -0.0000001186     0.999989    0.00007292
  617      -16.4318875855      -0.0000001198     0.999989    0.00007327
  618      -16.4318877066      -0.0000001211     0.999989    0.00007363
  619      -16.4318878290      -0.0000001224     0.999989    0.00007400
  620      -16.4318879527      -0.0000001237     0.999989    0.00007437
  621      -16.4318880777      -0.0000001250     0.999989    0.00007474
  622      -16.4318882040      -0.0000001263     0.999989    0.00007511
  623      -16.4318883317      -0.0000001277     0.999989    0.00007549
  624      -16.4318884608      -0.0000001291     0.999989    0.00007587
  625      -16.4318885913      -0.0000001305     0.999989    0.00007626
  626      -16.4318887232      -0.0000001319     0.999989    0.00007664
  627      -16.4318888566      -0.0000001334     0.999989    0.00007704
  628      -16.4318889914      -0.0000001348     0.999989    0.00007743
  629      -16.4318891277      -0.0000001363     0.999989    0.00007783
  630      -16.4318892656      -0.0000001378     0.999989    0.00007824
  631      -16.4318894050      -0.0000001394     0.999989    0.00007865
  632      -16.4318895459      -0.0000001410     0.999990    0.00007906
  633      -16.4318896885      -0.0000001426     0.999990    0.00007947
  634      -16.4318898327      -0.0000001442     0.999990    0.00007989
  635      -16.4318899785      -0.0000001458     0.999990    0.00008032
  636      -16.4318901260      -0.0000001475     0.999990    0.00008076
  637      -16.4318902751      -0.0000001492     0.999990    0.00008125
  638      -16.4318904260      -0.0000001509     0.999990    0.00008174
  639      -16.4318905787      -0.0000001527     0.999990    0.00008224
  640      -16.4318907331      -0.0000001544     0.999990    0.00008274
  641      -16.4318908894      -0.0000001563     0.999990    0.00008325
  642      -16.4318910475      -0.0000001581     0.999990    0.00008377
  643      -16.4318912075      -0.0000001600     0.999990    0.00008428
  644      -16.4318913693      -0.0000001619     0.999990    0.00008481
  645      -16.4318915331      -0.0000001638     0.999990    0.00008534
  646      -16.4318916989      -0.0000001658     0.999990    0.00008588
  647      -16.4318918667      -0.0000001678     0.999990    0.00008642
  648      -16.4318920365      -0.0000001698     0.999990    0.00008697
  649      -16.4318922084      -0.0000001719     0.999990    0.00008752
  650      -16.4318923823      -0.0000001740     0.999990    0.00008808
  651      -16.4318925584      -0.0000001761     0.999990    0.00008864
  652      -16.4318927367      -0.0000001783     0.999990    0.00008922
  653      -16.4318929172      -0.0000001805     0.999990    0.00008979
  654      -16.4318931000      -0.0000001827     0.999991    0.00009038
  655      -16.4318932850      -0.0000001850     0.999991    0.00009097
  656      -16.4318934723      -0.0000001874     0.999991    0.00009156
  657      -16.4318936620      -0.0000001897     0.999991    0.00009217
  658      -16.4318938542      -0.0000001921     0.999991    0.00009278
  659      -16.4318940487      -0.0000001946     0.999991    0.00009339
  660      -16.4318942458      -0.0000001971     0.999991    0.00009402
  661      -16.4318944454      -0.0000001996     0.999991    0.00009465
  662      -16.4318946475      -0.0000002022     0.999991    0.00009528
  663      -16.4318948523      -0.0000002048     0.999991    0.00009593
  664      -16.4318950598      -0.0000002075     0.999991    0.00009658
  665      -16.4318952699      -0.0000002102     0.999991    0.00009724
  666      -16.4318954829      -0.0000002129     0.999991    0.00009790
  667      -16.4318956986      -0.0000002157     0.999991    0.00009857
  668      -16.4318959172      -0.0000002186     0.999991    0.00009925
  669      -16.4318961387      -0.0000002215     0.999991    0.00009994
  670      -16.4318963632      -0.0000002245     0.999991    0.00010064
  671      -16.4318965906      -0.0000002275     0.999991    0.00010134
  672      -16.4318968212      -0.0000002305     0.999991    0.00010205
  673      -16.4318970549      -0.0000002337     0.999991    0.00010277
  674      -16.4318972917      -0.0000002369     0.999991    0.00010350
  675      -16.4318975318      -0.0000002401     0.999992    0.00010423
  676      -16.4318977752      -0.0000002434     0.999992    0.00010497
  677      -16.4318980219      -0.0000002467     0.999992    0.00010573
  678      -16.4318982721      -0.0000002502     0.999992    0.00010648
  679      -16.4318985257      -0.0000002536     0.999992    0.00010725
  680      -16.4318987829      -0.0000002572     0.999992    0.00010803
  681      -16.4318990436      -0.0000002608     0.999992    0.00010882
  682      -16.4318993081      -0.0000002644     0.999992    0.00010961
  683      -16.4318995763      -0.0000002682     0.999992    0.00011041
  684      -16.4318998483      -0.0000002720     0.999992    0.00011123
  685      -16.4319001241      -0.0000002759     0.999992    0.00011205
  686      -16.4319004039      -0.0000002798     0.999992    0.00011288
  687      -16.4319006878      -0.0000002838     0.999992    0.00011372
  688      -16.4319009757      -0.0000002879     0.999992    0.00011457
  689      -16.4319012678      -0.0000002921     0.999992    0.00011543
  690      -16.4319015642      -0.0000002964     0.999992    0.00011630
  691      -16.4319018649      -0.0000003007     0.999992    0.00011718
  692      -16.4319021700      -0.0000003051     0.999992    0.00011807
  693      -16.4319024796      -0.0000003096     0.999992    0.00011897
  694      -16.4319027938      -0.0000003142     0.999992    0.00011988
  695      -16.4319031127      -0.0000003189     0.999992    0.00012080
  696      -16.4319034363      -0.0000003236     0.999993    0.00012173
  697      -16.4319037647      -0.0000003285     0.999993    0.00012267
  698      -16.4319040981      -0.0000003334     0.999993    0.00012362
  699      -16.4319044366      -0.0000003384     0.999993    0.00012458
  700      -16.4319047801      -0.0000003436     0.999993    0.00012556
  701      -16.4319051289      -0.0000003488     0.999993    0.00012654
  702      -16.4319054831      -0.0000003541     0.999993    0.00012754
  703      -16.4319058426      -0.0000003596     0.999993    0.00012855
  704      -16.4319062077      -0.0000003651     0.999993    0.00012957
  705      -16.4319065785      -0.0000003707     0.999993    0.00013060
  706      -16.4319069550      -0.0000003765     0.999993    0.00013164
  707      -16.4319073373      -0.0000003824     0.999993    0.00013270
  708      -16.4319077257      -0.0000003884     0.999993    0.00013377
  709      -16.4319081201      -0.0000003945     0.999993    0.00013485
  710      -16.4319085208      -0.0000004007     0.999993    0.00013594
  711      -16.4319089278      -0.0000004070     0.999993    0.00013705
  712      -16.4319093413      -0.0000004135     0.999993    0.00013816
  713      -16.4319097614      -0.0000004201     0.999993    0.00013929
  714      -16.4319101882      -0.0000004268     0.999993    0.00014044
  715      -16.4319106219      -0.0000004337     0.999993    0.00014160
  716      -16.4319110625      -0.0000004407     0.999993    0.00014277
  717      -16.4319115103      -0.0000004478     0.999994    0.00014395
  718      -16.4319119654      -0.0000004551     0.999994    0.00014515
  719      -16.4319124279      -0.0000004625     0.999994    0.00014636
  720      -16.4319128980      -0.0000004701     0.999994    0.00014759
  721      -16.4319133758      -0.0000004778     0.999994    0.00014883
  722      -16.4319138615      -0.0000004857     0.999994    0.00015008
  723      -16.4319143552      -0.0000004937     0.999994    0.00015135
  724      -16.4319148571      -0.0000005019     0.999994    0.00015263
  725      -16.4319153674      -0.0000005103     0.999994    0.00015393
  726      -16.4319158862      -0.0000005188     0.999994    0.00015525
  727      -16.4319164138      -0.0000005275     0.999994    0.00015657
  728      -16.4319169502      -0.0000005364     0.999994    0.00015792
  729      -16.4319174957      -0.0000005455     0.999994    0.00015928
  730      -16.4319180504      -0.0000005547     0.999994    0.00016065
  731      -16.4319186146      -0.0000005642     0.999994    0.00016204
  732      -16.4319191884      -0.0000005738     0.999994    0.00016345
  733      -16.4319197721      -0.0000005837     0.999994    0.00016487
  734      -16.4319203658      -0.0000005937     0.999994    0.00016631
  735      -16.4319209698      -0.0000006039     0.999994    0.00016777
  736      -16.4319215842      -0.0000006144     0.999994    0.00016924
  737      -16.4319222092      -0.0000006251     0.999995    0.00017073
  738      -16.4319228452      -0.0000006360     0.999995    0.00017224
  739      -16.4319234923      -0.0000006471     0.999995    0.00017376
  740      -16.4319241507      -0.0000006584     0.999995    0.00017530
  741      -16.4319248207      -0.0000006700     0.999995    0.00017686
  742      -16.4319255026      -0.0000006818     0.999995    0.00017843
  743      -16.4319261965      -0.0000006939     0.999995    0.00018003
  744      -16.4319269027      -0.0000007062     0.999995    0.00018164
  745      -16.4319276215      -0.0000007188     0.999995    0.00018327
  746      -16.4319283532      -0.0000007317     0.999995    0.00018491
  747      -16.4319290980      -0.0000007448     0.999995    0.00018658
  748      -16.4319298561      -0.0000007581     0.999995    0.00018827
  749      -16.4319306279      -0.0000007718     0.999995    0.00018997
  750      -16.4319314137      -0.0000007858     0.999995    0.00019169
  751      -16.4319322137      -0.0000008000     0.999995    0.00019343
  752      -16.4319330282      -0.0000008145     0.999995    0.00019519
  753      -16.4319338576      -0.0000008294     0.999995    0.00019697
  754      -16.4319347021      -0.0000008445     0.999995    0.00019877
  755      -16.4319355621      -0.0000008600     0.999995    0.00020058
  756      -16.4319364379      -0.0000008758     0.999995    0.00020242
  757      -16.4319373299      -0.0000008919     0.999995    0.00020428
  758      -16.4319382383      -0.0000009084     0.999996    0.00020615
  759      -16.4319391635      -0.0000009252     0.999996    0.00020805
  760      -16.4319401059      -0.0000009424     0.999996    0.00020997
  761      -16.4319410658      -0.0000009599     0.999996    0.00021190
  762      -16.4319420436      -0.0000009778     0.999996    0.00021386
  763      -16.4319430397      -0.0000009961     0.999996    0.00021584
  764      -16.4319440544      -0.0000010147     0.999996    0.00021783
  765      -16.4319450882      -0.0000010338     0.999996    0.00021985
  766      -16.4319461414      -0.0000010532     0.999996    0.00022189
  767      -16.4319472144      -0.0000010731     0.999996    0.00022394
  768      -16.4319483078      -0.0000010933     0.999996    0.00022602
  769      -16.4319494218      -0.0000011140     0.999996    0.00022812
  770      -16.4319505569      -0.0000011351     0.999996    0.00023024
  771      -16.4319517136      -0.0000011567     0.999996    0.00023238
  772      -16.4319528923      -0.0000011787     0.999996    0.00023454
  773      -16.4319540935      -0.0000012012     0.999996    0.00023672
  774      -16.4319553176      -0.0000012241     0.999996    0.00023891
  775      -16.4319565650      -0.0000012475     0.999996    0.00024113
  776      -16.4319578364      -0.0000012714     0.999996    0.00024337
  777      -16.4319591322      -0.0000012958     0.999996    0.00024563
  778      -16.4319604528      -0.0000013206     0.999996    0.00024791
  779      -16.4319617989      -0.0000013460     0.999997    0.00025021
  780      -16.4319631708      -0.0000013720     0.999997    0.00025253
  781      -16.4319645692      -0.0000013984     0.999997    0.00025487
  782      -16.4319659946      -0.0000014254     0.999997    0.00025723
  783      -16.4319674475      -0.0000014529     0.999997    0.00025961
  784      -16.4319689285      -0.0000014810     0.999997    0.00026200
  785      -16.4319704381      -0.0000015096     0.999997    0.00026442
  786      -16.4319719770      -0.0000015389     0.999997    0.00026685
  787      -16.4319735457      -0.0000015687     0.999997    0.00026930
  788      -16.4319751448      -0.0000015991     0.999997    0.00027177
  789      -16.4319767749      -0.0000016301     0.999997    0.00027425
  790      -16.4319784367      -0.0000016617     0.999997    0.00027675
  791      -16.4319801306      -0.0000016940     0.999997    0.00027927
  792      -16.4319818575      -0.0000017269     0.999997    0.00028181
  793      -16.4319836179      -0.0000017604     0.999997    0.00028436
  794      -16.4319854125      -0.0000017946     0.999997    0.00028692
  795      -16.4319872419      -0.0000018294     0.999997    0.00028950
  796      -16.4319891067      -0.0000018649     0.999997    0.00029210
  797      -16.4319910078      -0.0000019011     0.999997    0.00029470
  798      -16.4319929457      -0.0000019379     0.999997    0.00029732
  799      -16.4319949212      -0.0000019755     0.999997    0.00029996
  800      -16.4319969349      -0.0000020137     0.999997    0.00030260
  801      -16.4319989876      -0.0000020527     0.999997    0.00030526
  802      -16.4320010799      -0.0000020923     0.999997    0.00030792
  803      -16.4320032127      -0.0000021327     0.999997    0.00031059
  804      -16.4320053865      -0.0000021739     0.999998    0.00031328
  805      -16.4320076022      -0.0000022157     0.999998    0.00031596
  806      -16.4320098606      -0.0000022583     0.999998    0.00031866
  807      -16.4320121623      -0.0000023017     0.999998    0.00032136
  808      -16.4320145080      -0.0000023458     0.999998    0.00032407
  809      -16.4320168987      -0.0000023906     0.999998    0.00032677
  810      -16.4320193350      -0.0000024363     0.999998    0.00032948
  811      -16.4320218176      -0.0000024827     0.999998    0.00033220
  812      -16.4320243475      -0.0000025298     0.999998    0.00033491
  813      -16.4320269252      -0.0000025778     0.999998    0.00033762
  814      -16.4320295517      -0.0000026265     0.999998    0.00034032
  815      -16.4320322277      -0.0000026760     0.999998    0.00034302
  816      -16.4320349539      -0.0000027262     0.999998    0.00034572
  817      -16.4320377311      -0.0000027773     0.999998    0.00034841
  818      -16.4320405602      -0.0000028291     0.999998    0.00035109
  819      -16.4320434419      -0.0000028817     0.999998    0.00035376
  820      -16.4320463769      -0.0000029350     0.999998    0.00035641
  821      -16.4320493661      -0.0000029892     0.999998    0.00035906
  822      -16.4320524101      -0.0000030441     0.999998    0.00036168
  823      -16.4320555099      -0.0000030997     0.999998    0.00036429
  824      -16.4320586660      -0.0000031561     0.999998    0.00036688
  825      -16.4320618793      -0.0000032133     0.999998    0.00036945
  826      -16.4320651505      -0.0000032712     0.999998    0.00037200
  827      -16.4320684804      -0.0000033298     0.999998    0.00037452
  828      -16.4320718696      -0.0000033892     0.999998    0.00037701
  829      -16.4320753188      -0.0000034493     0.999998    0.00037948
  830      -16.4320788289      -0.0000035100     0.999998    0.00038191
  831      -16.4320824003      -0.0000035715     0.999998    0.00038430
  832      -16.4320860339      -0.0000036336     0.999998    0.00038667
  833      -16.4320897303      -0.0000036964     0.999998    0.00038899
  834      -16.4320934901      -0.0000037598     0.999998    0.00039127
  835      -16.4320973139      -0.0000038238     0.999998    0.00039351
  836      -16.4321012023      -0.0000038884     0.999999    0.00039586
  837      -16.4321051559      -0.0000039536     0.999999    0.00039885
  838      -16.4321091752      -0.0000040194     0.999999    0.00040181
  839      -16.4321132609      -0.0000040856     0.999999    0.00040473
  840      -16.4321174133      -0.0000041524     0.999999    0.00040763
  841      -16.4321216330      -0.0000042197     0.999999    0.00041049
  842      -16.4321259204      -0.0000042874     0.999999    0.00041331
  843      -16.4321302760      -0.0000043556     0.999999    0.00041609
  844      -16.4321347001      -0.0000044241     0.999999    0.00041883
  845      -16.4321391931      -0.0000044930     0.999999    0.00042152
  846      -16.4321437553      -0.0000045622     0.999999    0.00042417
  847      -16.4321483870      -0.0000046317     0.999999    0.00042676
  848      -16.4321530884      -0.0000047015     0.999999    0.00042931
  849      -16.4321578599      -0.0000047715     0.999999    0.00043179
  850      -16.4321627015      -0.0000048416     0.999999    0.00043422
  851      -16.4321676134      -0.0000049119     0.999999    0.00043659
  852      -16.4321725958      -0.0000049823     0.999999    0.00043889
  853      -16.4321776486      -0.0000050528     0.999999    0.00044113
  854      -16.4321827719      -0.0000051233     0.999999    0.00044330
  855      -16.4321879657      -0.0000051938     0.999999    0.00044539
  856      -16.4321932299      -0.0000052642     0.999999    0.00044741
  857      -16.4321985644      -0.0000053345     0.999999    0.00044936
  858      -16.4322039690      -0.0000054046     0.999999    0.00045122
  859      -16.4322094436      -0.0000054745     0.999999    0.00045301
  860      -16.4322149878      -0.0000055442     0.999999    0.00045471
  861      -16.4322206014      -0.0000056136     0.999999    0.00045632
  862      -16.4322262840      -0.0000056826     0.999999    0.00045784
  863      -16.4322320353      -0.0000057513     0.999999    0.00045927
  864      -16.4322378548      -0.0000058195     0.999999    0.00046061
  865      -16.4322437420      -0.0000058872     0.999999    0.00046185
  866      -16.4322496963      -0.0000059544     0.999999    0.00046299
  867      -16.4322557173      -0.0000060209     0.999999    0.00046404
  868      -16.4322618042      -0.0000060869     0.999999    0.00046498
  869      -16.4322679563      -0.0000061521     0.999999    0.00046581
  870      -16.4322741730      -0.0000062167     0.999999    0.00046654
  871      -16.4322804534      -0.0000062804     0.999999    0.00046717
  872      -16.4322867968      -0.0000063434     0.999999    0.00046768
  873      -16.4322932022      -0.0000064054     0.999999    0.00046808
  874      -16.4322996687      -0.0000064665     0.999999    0.00046837
  875      -16.4323061954      -0.0000065267     0.999999    0.00046855
  876      -16.4323127813      -0.0000065859     0.999999    0.00046861
  877      -16.4323194253      -0.0000066440     0.999999    0.00046856
  878      -16.4323261263      -0.0000067010     0.999999    0.00046839
  879      -16.4323328832      -0.0000067569     0.999999    0.00046810
  880      -16.4323396948      -0.0000068116     0.999999    0.00046770
  881      -16.4323465599      -0.0000068651     0.999999    0.00046718
  882      -16.4323534773      -0.0000069174     0.999999    0.00046654
  883      -16.4323604456      -0.0000069683     0.999999    0.00046578
  884      -16.4323674636      -0.0000070179     0.999999    0.00046490
  885      -16.4323745298      -0.0000070662     0.999999    0.00046390
  886      -16.4323816429      -0.0000071131     0.999999    0.00046278
  887      -16.4323888014      -0.0000071585     0.999999    0.00046155
  888      -16.4323960039      -0.0000072025     0.999999    0.00046020
  889      -16.4324032490      -0.0000072450     0.999999    0.00045873
  890      -16.4324105350      -0.0000072860     0.999999    0.00045714
  891      -16.4324178605      -0.0000073255     0.999999    0.00045544
  892      -16.4324252239      -0.0000073634     0.999999    0.00045362
  893      -16.4324326235      -0.0000073997     0.999999    0.00045169
  894      -16.4324400579      -0.0000074343     0.999999    0.00044965
  895      -16.4324475252      -0.0000074674     0.999999    0.00044749
  896      -16.4324550240      -0.0000074987     0.999999    0.00044522
  897      -16.4324625524      -0.0000075284     0.999999    0.00044285
  898      -16.4324701089      -0.0000075564     0.999999    0.00044037
  899      -16.4324776916      -0.0000075827     0.999999    0.00043778
  900      -16.4324852988      -0.0000076073     0.999999    0.00043509
  901      -16.4324929289      -0.0000076300     0.999999    0.00043230
  902      -16.4325005800      -0.0000076511     0.999999    0.00042941
  903      -16.4325082503      -0.0000076703     0.999999    0.00042642
  904      -16.4325159380      -0.0000076877     0.999999    0.00042333
  905      -16.4325236413      -0.0000077034     0.999999    0.00042621
  906      -16.4325313585      -0.0000077171     0.999999    0.00042914
  907      -16.4325390876      -0.0000077291     0.999999    0.00043198
  908      -16.4325468268      -0.0000077392     0.999999    0.00043471
  909      -16.4325545742      -0.0000077474     0.999999    0.00043733
  910      -16.4325623280      -0.0000077538     0.999999    0.00043985
  911      -16.4325700863      -0.0000077583     0.999999    0.00044226
  912      -16.4325778471      -0.0000077608     0.999999    0.00044455
  913      -16.4325856085      -0.0000077615     0.999999    0.00044673
  914      -16.4325933687      -0.0000077602     0.999999    0.00044880
  915      -16.4326011257      -0.0000077570     0.999999    0.00045075
  916      -16.4326088776      -0.0000077518     0.999999    0.00045258
  917      -16.4326166223      -0.0000077447     0.999999    0.00045429
  918      -16.4326243580      -0.0000077357     0.999999    0.00045588
  919      -16.4326320826      -0.0000077246     0.999999    0.00045735
  920      -16.4326397942      -0.0000077116     0.999999    0.00045869
  921      -16.4326474908      -0.0000076966     0.999999    0.00045991
  922      -16.4326551704      -0.0000076796     0.999999    0.00046101
  923      -16.4326628309      -0.0000076605     0.999999    0.00046197
  924      -16.4326704704      -0.0000076395     0.999999    0.00046281
  925      -16.4326780868      -0.0000076164     0.999999    0.00046352
  926      -16.4326856781      -0.0000075913     0.999999    0.00046410
  927      -16.4326932422      -0.0000075641     0.999999    0.00046455
  928      -16.4327007772      -0.0000075349     0.999999    0.00046487
  929      -16.4327082809      -0.0000075037     0.999999    0.00046506
  930      -16.4327157513      -0.0000074704     0.999999    0.00046512
  931      -16.4327231864      -0.0000074351     0.999999    0.00046505
  932      -16.4327305840      -0.0000073976     0.999999    0.00046485
  933      -16.4327379422      -0.0000073582     0.999999    0.00046451
  934      -16.4327452588      -0.0000073167     0.999999    0.00046404
  935      -16.4327525319      -0.0000072731     0.999999    0.00046344
  936      -16.4327597594      -0.0000072275     0.999999    0.00046271
  937      -16.4327669392      -0.0000071798     0.999999    0.00046185
  938      -16.4327740693      -0.0000071301     0.999999    0.00046086
  939      -16.4327811476      -0.0000070784     0.999999    0.00045974
  940      -16.4327881723      -0.0000070246     0.999999    0.00045848
  941      -16.4327951412      -0.0000069689     0.999999    0.00045710
  942      -16.4328020524      -0.0000069112     0.999999    0.00045560
  943      -16.4328089039      -0.0000068515     0.999999    0.00045396
  944      -16.4328156939      -0.0000067899     0.999999    0.00045220
  945      -16.4328224203      -0.0000067264     0.999999    0.00045031
  946      -16.4328290813      -0.0000066610     0.999999    0.00044927
  947      -16.4328356751      -0.0000065938     0.999999    0.00044845
  948      -16.4328421998      -0.0000065247     0.999999    0.00044750
  949      -16.4328486536      -0.0000064538     0.999999    0.00044642
  950      -16.4328550349      -0.0000063812     0.999999    0.00044521
  951      -16.4328613418      -0.0000063069     0.999999    0.00044387
  952      -16.4328675728      -0.0000062310     0.999999    0.00044241
  953      -16.4328737263      -0.0000061534     0.999999    0.00044082
  954      -16.4328798006      -0.0000060743     0.999999    0.00043910
  955      -16.4328857943      -0.0000059937     0.999999    0.00043726
  956      -16.4328917059      -0.0000059117     0.999999    0.00043530
  957      -16.4328975342      -0.0000058282     0.999999    0.00043321
  958      -16.4329032776      -0.0000057435     0.999999    0.00043101
  959      -16.4329089351      -0.0000056575     0.999999    0.00042869
  960      -16.4329145054      -0.0000055703     0.999999    0.00042625
  961      -16.4329199874      -0.0000054820     0.999999    0.00042369
  962      -16.4329253801      -0.0000053927     0.999999    0.00042103
  963      -16.4329306825      -0.0000053024     0.999999    0.00041826
  964      -16.4329358938      -0.0000052112     0.999999    0.00041537
  965      -16.4329410131      -0.0000051193     0.999999    0.00041239
  966      -16.4329460397      -0.0000050266     0.999999    0.00040930
  967      -16.4329509730      -0.0000049333     0.999999    0.00040611
  968      -16.4329558125      -0.0000048395     0.999999    0.00040282
  969      -16.4329605576      -0.0000047451     0.999999    0.00039944
  970      -16.4329652081      -0.0000046505     0.999999    0.00039597
  971      -16.4329697635      -0.0000045555     0.999999    0.00039241
  972      -16.4329742238      -0.0000044603     0.999999    0.00038877
  973      -16.4329785888      -0.0000043650     0.999999    0.00038505
  974      -16.4329828585      -0.0000042697     0.999999    0.00038125
  975      -16.4329870329      -0.0000041744     0.999999    0.00037737
  976      -16.4329911123      -0.0000040793     0.999999    0.00037342
  977      -16.4329950967      -0.0000039845     0.999999    0.00036941
  978      -16.4329989866      -0.0000038899     0.999999    0.00036533
  979      -16.4330027824      -0.0000037957     0.999999    0.00036119
  980      -16.4330064844      -0.0000037021     0.999999    0.00035699
  981      -16.4330100934      -0.0000036090     0.999999    0.00035274
  982      -16.4330136099      -0.0000035165     0.999999    0.00034844
  983      -16.4330170347      -0.0000034248     0.999999    0.00034410
  984      -16.4330203685      -0.0000033338     0.999999    0.00033972
  985      -16.4330236122      -0.0000032437     0.999999    0.00033529
  986      -16.4330267667      -0.0000031545     0.999999    0.00033083
  987      -16.4330298330      -0.0000030663     0.999999    0.00032635
  988      -16.4330328122      -0.0000029792     0.999999    0.00032183
  989      -16.4330357054      -0.0000028932     0.999999    0.00031729
  990      -16.4330385137      -0.0000028083     0.999999    0.00031273
  991      -16.4330412384      -0.0000027247     0.999999    0.00030816
  992      -16.4330438807      -0.0000026423     0.999999    0.00030357
  993      -16.4330464419      -0.0000025613     0.999999    0.00029897
  994      -16.4330489235      -0.0000024816     0.999999    0.00029437
  995      -16.4330513267      -0.0000024032     0.999999    0.00028976
  996      -16.4330536531      -0.0000023264     0.999999    0.00028515
  997      -16.4330559040      -0.0000022509     0.999999    0.00028055
  998      -16.4330580811      -0.0000021770     0.999999    0.00027596
  999      -16.4330601856      -0.0000021046     0.999999    0.00027137
 1000      -16.4330622193      -0.0000020337     0.999999    0.00026680

Total Energy:                      -16.4330622193 H         -447.1664 eV
Extrapolated to 0:                 -16.4013493062 H         -446.3034 eV

----------------------------------------------------------------------------------
 Solving CP-REKS equation for  1 state vector...
----------------------------------------------------------------------------------
  CG solver: Constructing Y initial guess
  CG solver: Iteration    1    eps =    0.069404007883
  CG solver: Iteration    2    eps =    0.007752817055
  CG solver: Iteration    3    eps =    0.002642624983
  CG solver: Iteration    4    eps =    0.006607342491
  CG solver: Iteration    5    eps =    0.011123932517
  CG solver: Iteration    6    eps =    0.002331853764
  CG solver: Iteration    7    eps =    0.001454575791
  CG solver: Iteration    8    eps =    0.000375387594
  CG solver: Iteration    9    eps =    0.000032565513
  CG solver: Iteration   10    eps =    0.000003433442
  CG solver: Iteration   11    eps =    0.000000310075
  CG solver: Iteration   12    eps =    0.000000020150
  CG solver: Iteration   13    eps =    0.000000002370
  Convergence reached in CG solver after   13 iterations
  CG solver: Calculating converged R, Z, Q2 matrix
----------------------------------------------------------------------------------

----------------------------------------------------------------------------------
 Solving CP-REKS equation for SI between  1 and  2 state vectors...
----------------------------------------------------------------------------------
  CG solver: Constructing Y initial guess
  CG solver: Iteration    1    eps =    0.023608489401
  CG solver: Iteration    2    eps =    0.002274659998
  CG solver: Iteration    3    eps =    0.001954731635
  CG solver: Iteration    4    eps =    0.010598094293
  CG solver: Iteration    5    eps =    0.002781279264
  CG solver: Iteration    6    eps =    0.001081448431
  CG solver: Iteration    7    eps =    0.000155965216
  CG solver: Iteration    8    eps =    0.000008503296
  CG solver: Iteration    9    eps =    0.000000653284
  CG solver: Iteration   10    eps =    0.000000088380
  CG solver: Iteration   11    eps =    0.000000005382
  Convergence reached in CG solver after   11 iterations
  CG solver: Calculating converged R, Z, Q2 matrix
----------------------------------------------------------------------------------

--------------------------------------------------
 Gradient Information
--------------------------------------------------
           1 st state (SSR)
     0.00000000     0.00000000     0.00000000
     0.00000000     0.00000000     0.00000000
     0.00000000     0.00000000     0.00000000
     0.00000000     0.00000000     0.00000000
     0.00000000     0.00000000     0.00000000
     0.00000000     0.00000000     0.00000000
     0.00000000     0.00000000     0.00000000
     0.00000000     0.00000000     0.00000000
     0.00000000     0.00000000     0.00000000
     0.00000000     0.00000000     0.00000000
     0.00000000     0.00000000     0.00000000
     0.00000000     0.00000000     0.00000000
     0.00000000     0.00000000     0.00000000
     0.00000000     0.00000000     0.00000000

           2 st state (SSR)
     0.00000000     0.00000000     0.00000000
     0.00000000     0.00000000     0.00000000
     0.00000000     0.00000000     0.00000000
     0.00000000     0.00000000     0.00000000
     0.00000000     0.00000000     0.00000000
     0.00000000     0.00000000     0.00000000
     0.00000000     0.00000000     0.00000000
     0.00000000     0.00000000     0.00000000
     0.00000000     0.00000000     0.00000000
     0.00000000     0.00000000     0.00000000
     0.00000000     0.00000000     0.00000000
     0.00000000     0.00000000     0.00000000
     0.00000000     0.00000000     0.00000000
     0.00000000     0.00000000     0.00000000
--------------------------------------------------
 Coupling Information
--------------------------------------------------
 between  1 and  2 states
--------------------------------------------------
 g vector - difference gradient
    -0.01660659    -0.00338614     0.01490199
     0.07067426     0.34928254    -0.23430593
     0.00770253    -0.03332991    -0.01536552
     0.00648901     0.10257821     0.10900493
    -0.05147948     0.02991310     0.11122151
    -0.04793966    -0.37669116     0.24185009
    -0.21305208    -0.22697176    -0.10526024
     0.07756768     0.03179359    -0.14173269
    -0.06053366    -0.01283227     0.10401496
     0.41156253     0.15841858     0.06871532
    -0.03198202     0.05723159     0.06985225
    -0.17311930    -0.08362964    -0.19198609
     0.02762474     0.04643997    -0.01843215
    -0.00690796    -0.03881669    -0.01247841

 h vector - derivative coupling
    -0.13685432     0.01145870    -0.04138249
     0.16612773    -0.07870178     0.12712102
     0.00441057    -0.01069165    -0.00759203
    -0.00025108     0.00678746     0.00897245
    -0.01818491    -0.00581416    -0.05040030
    -0.02305356     0.06784499    -0.06169201
     0.01660914     0.00739848     0.00632553
    -0.00337476     0.00541377     0.00378549
    -0.01391136     0.01958218     0.01185021
    -0.00944930    -0.02999839     0.00050346
    -0.00249958     0.00092445     0.00284445
     0.02130606     0.00596227    -0.00006450
    -0.00056208    -0.00062694     0.00192481
    -0.00031255     0.00046063    -0.00219612

 G vector - GDV
     0.00000000     0.00000000     0.00000000
     0.00000000     0.00000000     0.00000000
     0.00000000     0.00000000     0.00000000
     0.00000000     0.00000000     0.00000000
     0.00000000     0.00000000     0.00000000
     0.00000000     0.00000000     0.00000000
     0.00000000     0.00000000     0.00000000
     0.00000000     0.00000000     0.00000000
     0.00000000     0.00000000     0.00000000
     0.00000000     0.00000000     0.00000000
     0.00000000     0.00000000     0.00000000
     0.00000000     0.00000000     0.00000000
     0.00000000     0.00000000     0.00000000
     0.00000000     0.00000000     0.00000000

 H vector - DCV - non-adiabatic coupling
     0.00000000     0.00000000     0.00000000
     0.00000000     0.00000000     0.00000000
     0.00000000     0.00000000     0.00000000
     0.00000000     0.00000000     0.00000000
     0.00000000     0.00000000     0.00000000
     0.00000000     0.00000000     0.00000000
     0.00000000     0.00000000     0.00000000
     0.00000000     0.00000000     0.00000000
     0.00000000     0.00000000     0.00000000
     0.00000000     0.00000000     0.00000000
     0.00000000     0.00000000     0.00000000
     0.00000000     0.00000000     0.00000000
     0.00000000     0.00000000     0.00000000
     0.00000000     0.00000000     0.00000000
--------------------------------------------------

WARNING!
-> SCC is NOT converged, maximal SCC iterations exceeded

--------------------------------------------------------------------------------
DFTB+ running times                          cpu [s]             wall clock [s]
--------------------------------------------------------------------------------
SCC                                    +     1.51  ( 82.6%)      1.52  ( 82.4%)
      Sparse to dense                        0.07  (  3.7%)      0.06  (  3.1%)
      Dense to sparse                        0.24  ( 13.0%)      0.26  ( 14.3%)
      Range separated Hamiltonian            0.12  (  6.8%)      0.14  (  7.5%)
  Density matrix creation                    0.15  (  8.2%)      0.13  (  7.0%)
  Force calculation                          0.32  ( 17.3%)      0.32  ( 17.1%)
--------------------------------------------------------------------------------
Missing                                +     0.32  ( 17.4%)      0.33  ( 17.6%)
Total                                  =     1.83  (100.0%)      1.84  (100.0%)
--------------------------------------------------------------------------------
