     6
  Step:   120            Position(A)                                  Velocity(au)
C        -0.02537392    -0.05754540     0.00050350     0.00012993    -0.00010363    -0.00034140
N        -0.04359593    -0.04156666     1.32222074    -0.00003953     0.00007914     0.00021122
H         0.74805465     0.63557219    -0.53798107    -0.00022808     0.00157081     0.00068526
H         0.75167182    -0.46120852     1.84372342    -0.00039230    -0.00151480    -0.00000103
H        -0.86673561     0.31486087     1.87156317     0.00044748     0.00111008    -0.00007558
H        -0.93774987     0.10431523    -0.66529423    -0.00082603    -0.00103094     0.00052427
