     6
  Step:     0            Position(A)                                  Velocity(au)
C        -0.03869091     0.02345173     0.03412956     0.00009197    -0.00000253     0.00018154
N        -0.04068160    -0.05972576     1.28271671     0.00010835    -0.00006360    -0.00007573
H         0.93971451    -0.04256728    -0.52906613    -0.00060633     0.00023013    -0.00009687
H         0.79188000    -0.10217679     1.83852220    -0.00098801     0.00024917    -0.00062188
H        -0.92996093    -0.00895495     1.87667498    -0.00051853     0.00049906    -0.00010609
H        -0.98820235     0.03443915    -0.52586199    -0.00048876    -0.00006448    -0.00028609
     6
  Step:     1            Position(A)                                  Velocity(au)
C        -0.03817847     0.02345946     0.03488880     0.00009477     0.00000546     0.00009543
N        -0.04013437    -0.06009040     1.28252017     0.00009049    -0.00006978     0.00000374
H         0.93630125    -0.04131243    -0.52969242    -0.00063888     0.00022868    -0.00013399
H         0.78683002    -0.10082108     1.83540515    -0.00084459     0.00024613    -0.00050795
H        -0.93247625    -0.00621785     1.87588649    -0.00039787     0.00050190    -0.00018442
H        -0.99093485     0.03406609    -0.52764637    -0.00050554    -0.00007218    -0.00036280
     6
  Step:     2            Position(A)                                  Velocity(au)
C        -0.03765451     0.02351142     0.03517313     0.00009629     0.00001362     0.00000842
N        -0.03969198    -0.06048883     1.28275762     0.00007029    -0.00007602     0.00008262
H         0.93272787    -0.04006649    -0.53053142    -0.00066528     0.00022710    -0.00017504
H         0.78264371    -0.09948513     1.83296731    -0.00067451     0.00024233    -0.00037506
H        -0.93431192    -0.00346625     1.87465824    -0.00027175     0.00050494    -0.00026601
H        -0.99373079     0.03364981    -0.52982951    -0.00051270    -0.00008035    -0.00043239
     6
  Step:     3            Position(A)                                  Velocity(au)
C        -0.03712594     0.02360835     0.03498085     0.00009658     0.00002190    -0.00007850
N        -0.03936610    -0.06092133     1.28342320     0.00004817    -0.00008231     0.00016015
H         0.92902963    -0.03883014    -0.53160565    -0.00068503     0.00022540    -0.00022048
H         0.77945750    -0.09817233     1.83130563    -0.00048144     0.00023809    -0.00022584
H        -0.93544656    -0.00069875     1.87297894    -0.00014301     0.00050833    -0.00034865
H        -0.99653883     0.03318783    -0.53237255    -0.00051080    -0.00008898    -0.00049511
     6
  Step:     4            Position(A)                                  Velocity(au)
C        -0.03659937     0.02375063     0.03431555     0.00009569     0.00003022    -0.00016437
N        -0.03916579    -0.06138805     1.28450712     0.00002464    -0.00008863     0.00023562
H         0.92524433    -0.03760407    -0.53294004    -0.00069760     0.00022356    -0.00027070
H         0.77738420    -0.09688414     1.83050016    -0.00027017     0.00023373    -0.00006371
H        -0.93587424     0.00208699     1.87084944    -0.00001446     0.00051221    -0.00043008
H        -0.99931096     0.03267776    -0.53523827    -0.00050039    -0.00009804    -0.00055119
     6
  Step:     5            Position(A)                                  Velocity(au)
C        -0.03608111     0.02393829     0.03318610     0.00009365     0.00003851    -0.00024818
N        -0.03909709    -0.06188906     1.28599594     0.00000029    -0.00009493     0.00030835
H         0.92141247    -0.03638910    -0.53456146    -0.00070242     0.00022151    -0.00032598
H         0.77650745    -0.09562020     1.83060999    -0.00004649     0.00022957     0.00010715
H        -0.93560447     0.00489412     1.86828286     0.00011100     0.00051666    -0.00050796
H        -1.00200267     0.03211735    -0.53839108    -0.00048208    -0.00010748    -0.00060088
     6
  Step:     6            Position(A)                                  Velocity(au)
C        -0.03557719     0.02417093     0.03160663     0.00009051     0.00004668    -0.00032891
N        -0.03916262    -0.06242422     1.28787278    -0.00002420    -0.00010118     0.00037765
H         0.91757732    -0.03518629    -0.53649809    -0.00069895     0.00021919    -0.00038642
H         0.77687677    -0.09437835     1.83166967     0.00018290     0.00022590     0.00028190
H        -0.93466269     0.00772640     1.86530506     0.00023030     0.00052176    -0.00057981
H        -1.00457295     0.03150461    -0.54179689    -0.00045650    -0.00011724    -0.00064434
     6
  Step:     7            Position(A)                                  Velocity(au)
C        -0.03509335     0.02444775     0.02959669     0.00008633     0.00005466    -0.00040549
N        -0.03936122    -0.06299319     1.29011721    -0.00004811    -0.00010731     0.00044279
H         0.91378486    -0.03399709    -0.53877843    -0.00068667     0.00021651    -0.00045193
H         0.77850343    -0.09315495     1.83368633     0.00041059     0.00022296     0.00045524
H        -0.93309127     0.01058809     1.86195539     0.00034013     0.00052756    -0.00064303
H        -1.00698444     0.03083788    -0.54542272    -0.00042429    -0.00012724    -0.00068167
     6
  Step:     8            Position(A)                                  Velocity(au)
C        -0.03463505     0.02476745     0.02718139     0.00008115     0.00006233    -0.00047679
N        -0.03968761    -0.06359531     1.29270510    -0.00007063    -0.00011325     0.00050299
H         0.91008350    -0.03282343    -0.54143015    -0.00066515     0.00021337    -0.00052214
H         0.78135768    -0.09194515     1.83663783     0.00062878     0.00022090     0.00062160
H        -0.93095076     0.01348384     1.85828740     0.00043697     0.00053409    -0.00069489
H        -1.00920340     0.03011594    -0.54923623    -0.00038613    -0.00013738    -0.00071288
     6
  Step:     9            Position(A)                                  Velocity(au)
C        -0.03420748     0.02512819     0.02439162     0.00007503     0.00006958    -0.00054168
N        -0.04013224    -0.06422953     1.29560828    -0.00009096    -0.00011892     0.00055742
H         0.90652345    -0.03166776    -0.54447857    -0.00063420     0.00020967    -0.00059637
H         0.78536779    -0.09074339     1.84047229     0.00082969     0.00021982     0.00077547
H        -0.92832093     0.01641864     1.85436934     0.00051714     0.00054138    -0.00073263
H        -1.01119983     0.02933816    -0.55320518    -0.00034277    -0.00014751    -0.00073790
     6
  Step:    10            Position(A)                                  Velocity(au)
C        -0.03381541     0.02552752     0.02126406     0.00006807     0.00007629    -0.00059906
N        -0.04068123    -0.06489437     1.29879431    -0.00010832    -0.00012422     0.00060523
H         0.90315555    -0.03053302    -0.54794488    -0.00059388     0.00020532    -0.00067361
H         0.79042113    -0.08954385     1.84510905     0.00100597     0.00021971     0.00091170
H        -0.92530156     0.01939785     1.85028421     0.00057696     0.00054950    -0.00075361
H        -1.01294778     0.02850455    -0.55729697    -0.00029501    -0.00015750    -0.00075661
     6
  Step:    11            Position(A)                                  Velocity(au)
C        -0.03346315     0.02596239     0.01784108     0.00006037     0.00008234    -0.00064790
N        -0.04131664    -0.06558781     1.30222627    -0.00012200    -0.00012905     0.00064559
H         0.90002960    -0.02942261    -0.55184425    -0.00054463     0.00020027    -0.00075249
H         0.79636773    -0.08834099     1.85044142     0.00115124     0.00022046     0.00102583
H        -0.92201208     0.02242722     1.84612890     0.00061302     0.00055850    -0.00075551
H        -1.01442564     0.02761591    -0.56147842    -0.00024375    -0.00016720    -0.00076890
     6
  Step:    12            Position(A)                                  Velocity(au)
C        -0.03315438     0.02642912     0.01417015     0.00005208     0.00008763    -0.00068735
N        -0.04201698    -0.06630736     1.30586298    -0.00013143    -0.00013333     0.00067778
H         0.89719235    -0.02834021    -0.55618398    -0.00048732     0.00019450    -0.00083138
H         0.80302614    -0.08713000     1.85634097     0.00126050     0.00022192     0.00111443
H        -0.91858959     0.02551297     1.84201206     0.00062253     0.00056849    -0.00073661
H        -1.01561662     0.02667382    -0.56571575    -0.00018998    -0.00017646    -0.00077473
     6
  Step:    13            Position(A)                                  Velocity(au)
C        -0.03289200     0.02692346     0.01030297     0.00004336     0.00009206    -0.00071680
N        -0.04275798    -0.06705000     1.30965947    -0.00013621    -0.00013697     0.00070124
H         0.89468518    -0.02728957    -0.56096194    -0.00042325     0.00018802    -0.00090842
H         0.81019152    -0.08590724     1.86266332     0.00133047     0.00022385     0.00117529
H        -0.91518485     0.02866180     1.83805051     0.00060368     0.00057955    -0.00069600
H        -1.01650916     0.02568068    -0.56997482    -0.00013476    -0.00018514    -0.00077414
     6
  Step:    14            Position(A)                                  Velocity(au)
C        -0.03267796     0.02744066     0.00629413     0.00003441     0.00009556    -0.00073596
N        -0.04351363    -0.06781232     1.31356799    -0.00013618    -0.00013992     0.00071565
H         0.89254177    -0.02627426    -0.56616540    -0.00035412     0.00018093    -0.00098165
H         0.81764493    -0.08467044     1.86925473     0.00135978     0.00022599     0.00120755
H        -0.91195652     0.03188086     1.83436458     0.00055594     0.00059177    -0.00063377
H        -1.01709728     0.02463959    -0.57422177    -0.00007917    -0.00019312    -0.00076734
     6
  Step:    15            Position(A)                                  Velocity(au)
C        -0.03251316     0.02797563     0.00219952     0.00002543     0.00009809    -0.00074487
N        -0.04425745    -0.06859058     1.31753926    -0.00013142    -0.00014214     0.00072099
H         0.89078606    -0.02529743    -0.57177062    -0.00028193     0.00017333    -0.00104918
H         0.82516373    -0.08341887     1.87595937     0.00134906     0.00022811     0.00121174
H        -0.90906351     0.03517760     1.83107219     0.00048034     0.00060521    -0.00055117
H        -1.01738087     0.02355428    -0.57842378    -0.00002431    -0.00020034    -0.00075471
     6
  Step:    16            Position(A)                                  Velocity(au)
C        -0.03239735     0.02852311    -0.00192560     0.00001664     0.00009966    -0.00074395
N        -0.04496382    -0.06938088     1.32152422    -0.00012223    -0.00014364     0.00071760
H         0.88943066    -0.02436149    -0.57774323    -0.00020887     0.00016542    -0.00110930
H         0.83253200    -0.08215323     1.88262649     0.00130072     0.00022997     0.00118964
H        -0.90665585     0.03855943     1.82828230     0.00037959     0.00061987    -0.00045061
H        -1.01736553     0.02242881    -0.58255012     0.00002880    -0.00020677    -0.00073683
     6
  Step:    17            Position(A)                                  Velocity(au)
C        -0.03232914     0.02907787    -0.00602854     0.00000824     0.00010031    -0.00073398
N        -0.04560930    -0.07017928     1.32547586    -0.00010917    -0.00014445     0.00070613
H         0.88847598    -0.02346791    -0.58403942    -0.00013717     0.00015738    -0.00116066
H         0.83954967    -0.08087546     1.88911677     0.00121871     0.00023140     0.00114409
H        -0.90486522     0.04203337     1.82608846     0.00025798     0.00063570    -0.00033553
H        -1.01706231     0.02126739    -0.58657316     0.00007926    -0.00021245    -0.00071448
     6
  Step:    18            Position(A)                                  Velocity(au)
C        -0.03230603     0.02963493    -0.01006107     0.00000041     0.00010012    -0.00071605
N        -0.04617381    -0.07098201     1.32935102    -0.00009294    -0.00014464     0.00068758
H         0.88791031    -0.02261704    -0.59060797    -0.00006891     0.00014946    -0.00120238
H         0.84604022    -0.07958837     1.89530759     0.00110811     0.00023233     0.00107872
H        -0.90379639     0.04560552     1.82456328     0.00012108     0.00065257    -0.00021015
H        -1.01648698     0.02007404    -0.59046943     0.00012635    -0.00021746    -0.00068857
     6
  Step:    19            Position(A)                                  Velocity(au)
C        -0.03232457     0.03018976    -0.01398097    -0.00000670     0.00009920    -0.00069146
N        -0.04664151    -0.07178563     1.33311207    -0.00007439    -0.00014429     0.00066313
H         0.88771066    -0.02180801    -0.59739298    -0.00000592     0.00014187    -0.00123411
H         0.85185628    -0.07829525     1.90109701     0.00097461     0.00023270     0.00099761
H        -0.90352055     0.04928078     1.82375450    -0.00002463     0.00067031    -0.00007914
H        -1.01565912     0.01885226    -0.59422043     0.00016952    -0.00022193    -0.00066014
     6
  Step:    20            Position(A)                                  Velocity(au)
C        -0.03238055     0.03073845    -0.01775324    -0.00001299     0.00009769    -0.00066163
N        -0.04700140    -0.07258713     1.33672813    -0.00005439    -0.00014350     0.00063415
H         0.88784450    -0.02103885    -0.60433697     0.00005039     0.00013483    -0.00125603
H         0.85688242    -0.07699966     1.90640564     0.00082408     0.00023259     0.00090497
H        -0.90407037     0.05306249     1.82368283    -0.00017244     0.00068873     0.00005284
H        -1.01460114     0.01760511    -0.59781328     0.00020851    -0.00022606    -0.00063027
     6
  Step:    21            Position(A)                                  Velocity(au)
C        -0.03246927     0.03127787    -0.02135071    -0.00002067     0.00009720    -0.00066831
N        -0.04724731    -0.07338410     1.34017577    -0.00003371    -0.00014525     0.00063211
H         0.88827193    -0.02030617    -0.61138362     0.00008650     0.00020050    -0.00122793
H         0.86103557    -0.07570450     1.91117728     0.00064787     0.00016702     0.00079993
H        -0.90544127     0.05695244     1.82434311    -0.00029513     0.00078365     0.00017225
H        -1.01333661     0.01633417    -0.60124086     0.00027545    -0.00029112    -0.00056479
     6
  Step:    22            Position(A)                                  Velocity(au)
C        -0.03261098     0.03182213    -0.02520389    -0.00002951     0.00009808    -0.00072085
N        -0.04737719    -0.07420641     1.34377527    -0.00001286    -0.00014945     0.00066565
H         0.88880886    -0.01880357    -0.61802664     0.00009847     0.00031134    -0.00114623
H         0.86410521    -0.07513764     1.91532367     0.00044567     0.00006421     0.00067760
H        -0.90736064     0.06179903     1.82560318    -0.00038614     0.00091878     0.00026822
H        -1.01153027     0.01435954    -0.60410982     0.00037239    -0.00038640    -0.00046010
     6
  Step:    23            Position(A)                                  Velocity(au)
C        -0.03279846     0.03237203    -0.02939212    -0.00003706     0.00009878    -0.00077827
N        -0.04739081    -0.07505123     1.34760143     0.00000748    -0.00015308     0.00070444
H         0.88937037    -0.01683304    -0.62417036     0.00009974     0.00038770    -0.00105407
H         0.86600720    -0.07498821     1.91873620     0.00023666    -0.00000285     0.00054525
H        -0.90974885     0.06720188     1.82733524    -0.00046313     0.00100788     0.00034704
H        -1.00918241     0.01202369    -0.60637352     0.00046440    -0.00044262    -0.00035362
     6
  Step:    24            Position(A)                                  Velocity(au)
C        -0.03302461     0.03292459    -0.03388980    -0.00004333     0.00009894    -0.00083019
N        -0.04729373    -0.07591488     1.35163729     0.00002652    -0.00015607     0.00073945
H         0.88992204    -0.01447655    -0.62979069     0.00009597     0.00045224    -0.00095931
H         0.86674649    -0.07516939     1.92140895     0.00003174    -0.00005719     0.00041449
H        -0.91252947     0.07304757     1.82947631    -0.00052540     0.00108017     0.00041472
H        -1.00634724     0.00941961    -0.60805639     0.00054548    -0.00048543    -0.00025309
     6
  Step:    25            Position(A)                                  Velocity(au)
C        -0.03328225     0.03347660    -0.03866025    -0.00004832     0.00009855    -0.00087542
N        -0.04709472    -0.07679360     1.35585660     0.00004376    -0.00015842     0.00076968
H         0.89044176    -0.01178424    -0.63487999     0.00008906     0.00050917    -0.00086439
H         0.86636157    -0.07562664     1.92336356    -0.00016380    -0.00010310     0.00028949
H        -0.91561434     0.07926079     1.83196515    -0.00057118     0.00114065     0.00047143
H        -1.00309276     0.00660435    -0.60919894     0.00061356    -0.00051962    -0.00016083
     6
  Step:    26            Position(A)                                  Velocity(au)
C        -0.03356412     0.03402495    -0.04366414    -0.00005201     0.00009765    -0.00091377
N        -0.04680512    -0.07768372     1.36023105     0.00005880    -0.00016015     0.00079499
H         0.89091647    -0.00879149    -0.63944191     0.00008048     0.00056066    -0.00077106
H         0.86491756    -0.07632053     1.92464119    -0.00034570    -0.00014282     0.00017331
H        -0.91890687     0.08578328     1.83473997    -0.00059931     0.00119176     0.00051714
H        -0.99949663     0.00361786    -0.60985207     0.00066718    -0.00054773    -0.00007840
     6
  Step:    27            Position(A)                                  Velocity(au)
C        -0.03386293     0.03456685    -0.04886238    -0.00005440     0.00009628    -0.00094537
N        -0.04643825    -0.07858168     1.36473259     0.00007132    -0.00016129     0.00081548
H         0.89134035    -0.00552449    -0.64348877     0.00007146     0.00060816    -0.00068064
H         0.86250182    -0.07722116     1.92529857    -0.00051026    -0.00017774     0.00006847
H        -0.92230559     0.09256668     1.83773900    -0.00060926     0.00123502     0.00055202
H        -0.99564372     0.00048905    -0.61007430     0.00070516    -0.00057144    -0.00000697
     6
  Step:    28            Position(A)                                  Velocity(au)
C        -0.03417141     0.03509970    -0.05421729    -0.00005549     0.00009448    -0.00097048
N        -0.04600894    -0.07948416     1.36933421     0.00008109    -0.00016185     0.00083132
H         0.89171418    -0.00200256    -0.64703990     0.00006304     0.00065266    -0.00059416
H         0.85922150    -0.07830467     1.92540558    -0.00065418    -0.00020885    -0.00002289
H        -0.92570800     0.09956981     1.84090212    -0.00060103     0.00127139     0.00057641
H        -0.99162492    -0.00276108    -0.60992985     0.00072652    -0.00059198     0.00005263
     6
  Step:    29            Position(A)                                  Velocity(au)
C        -0.03448227     0.03562127    -0.05969309    -0.00005528     0.00009231    -0.00098937
N        -0.04553323    -0.08038795     1.37401021     0.00008792    -0.00016185     0.00084267
H         0.89204390     0.00175926    -0.65011970     0.00005610     0.00069478    -0.00051237
H         0.85520106    -0.07955194     1.92504313    -0.00077445    -0.00023687    -0.00009894
H        -0.92901312     0.10675560     1.84417180    -0.00057509     0.00130145     0.00059085
H        -0.98753561    -0.00611750    -0.60948700     0.00073046    -0.00061025     0.00009974
     6
  Step:    30            Position(A)                                  Velocity(au)
C        -0.03478820     0.03612961    -0.06525568    -0.00005377     0.00008980    -0.00100223
N        -0.04502806    -0.08128993     1.37873588     0.00009165    -0.00016129     0.00084961
H         0.89234005     0.00574909    -0.65275638     0.00005138     0.00073495    -0.00043582
H         0.85058092    -0.08094741     1.92430169    -0.00086826    -0.00026235    -0.00015807
H        -0.93212425     0.11409014     1.84749420    -0.00053235     0.00132558     0.00059601
H        -0.98347515    -0.00956969    -0.60881699     0.00071632    -0.00062694     0.00013396
     6
  Step:    31            Position(A)                                  Velocity(au)
C        -0.03508201     0.03662296    -0.07087233    -0.00005097     0.00008699    -0.00100925
N        -0.04451095    -0.08218706     1.38348708     0.00009220    -0.00016017     0.00085219
H         0.89261699     0.00995712    -0.65498094     0.00004951     0.00077341    -0.00036494
H         0.84551620    -0.08247822     1.92327999    -0.00093307    -0.00028568    -0.00019890
H        -0.93495110     0.12154153     1.85081989    -0.00047410     0.00134400     0.00059271
H        -0.97954553    -0.01311054    -0.60799272     0.00068376    -0.00064251     0.00015509
     6
  Step:    32            Position(A)                                  Velocity(au)
C        -0.03535662     0.03709975    -0.07651144    -0.00004693     0.00008390    -0.00101058
N        -0.04399981    -0.08307627     1.38823997     0.00008953    -0.00015849     0.00085040
H         0.89289219     0.01437460    -0.65682638     0.00005099     0.00081026    -0.00030006
H         0.84017474    -0.08413350     1.92208340    -0.00096681    -0.00030718    -0.00022041
H        -0.93741171     0.12907924     1.85410440    -0.00040200     0.00135688     0.00058185
H        -0.97584941    -0.01673535    -0.60708729     0.00063287    -0.00065732     0.00016322
     6
  Step:    33            Position(A)                                  Velocity(au)
C        -0.03560533     0.03755857    -0.08214243    -0.00004172     0.00008056    -0.00100641
N        -0.04351253    -0.08395452     1.39297086     0.00008368    -0.00015624     0.00084430
H         0.89318558     0.01899324    -0.65832726     0.00005617     0.00084554    -0.00024144
H         0.83473420    -0.08590394     1.92082191    -0.00096811    -0.00032709    -0.00022202
H        -0.93943424     0.13667368     1.85730870    -0.00031800     0.00136444     0.00056445
H        -0.97248770    -0.02044105    -0.60617242     0.00056422    -0.00067163     0.00015874
     6
  Step:    34            Position(A)                                  Velocity(au)
C        -0.03582192     0.03799818    -0.08773590    -0.00003547     0.00007700    -0.00099702
N        -0.04306655    -0.08481883     1.39765640     0.00007478    -0.00015346     0.00083399
H         0.89351868     0.02380487    -0.65951911     0.00006529     0.00087927    -0.00018923
H         0.82937741    -0.08778152     1.91960718    -0.00093655    -0.00034562    -0.00020372
H        -0.94095830     0.14429684     1.86039971    -0.00022429     0.00136702     0.00054164
H        -0.96955664    -0.02422601    -0.60531687     0.00047903    -0.00068566     0.00014236
     6
  Step:    35            Position(A)                                  Velocity(au)
C        -0.03600095     0.03841751    -0.09326410    -0.00002833     0.00007327    -0.00098278
N        -0.04267841    -0.08566639     1.40227398     0.00006304    -0.00015019     0.00081969
H         0.89391390     0.02880137    -0.66043806     0.00007843     0.00091145    -0.00014351
H         0.82428712    -0.08975933     1.91854939    -0.00087283    -0.00036294    -0.00016618
H        -0.94193623     0.15192268     1.86335060    -0.00012329     0.00136508     0.00051458
H        -0.96714416    -0.02808956    -0.60458436     0.00037916    -0.00069959     0.00011520
     6
  Step:    36            Position(A)                                  Velocity(au)
C        -0.03613798     0.03881569    -0.09870139    -0.00002051     0.00006939    -0.00096417
N        -0.04236314    -0.08649462     1.40680221     0.00004880    -0.00014648     0.00080171
H         0.89439372     0.03397448    -0.66112028     0.00009552     0.00094218    -0.00010425
H         0.81963877    -0.09183106     1.91775301    -0.00077896    -0.00037925    -0.00011080
H        -0.94233395     0.15952789     1.86614122    -0.00001748     0.00135926     0.00048452
H        -0.96532617    -0.03203172    -0.60403151     0.00026710    -0.00071352     0.00007869
     6
  Step:    37            Position(A)                                  Velocity(au)
C        -0.03622982     0.03919200    -0.10402481    -0.00001224     0.00006541    -0.00094172
N        -0.04213375    -0.08730125     1.41122159     0.00003247    -0.00014241     0.00078045
H         0.89497991     0.03931665    -0.66160156     0.00011637     0.00097159    -0.00007133
H         0.81559349    -0.09399197     1.91731280    -0.00065822    -0.00039478    -0.00003971
H        -0.94213135     0.16709282     1.86875812     0.00009064     0.00135030     0.00045266
H        -0.96416313    -0.03605286    -0.60370617     0.00014591    -0.00072752     0.00003454
     6
  Step:    38            Position(A)                                  Velocity(au)
C        -0.03627466     0.03954587    -0.10921444    -0.00000380     0.00006134    -0.00091604
N        -0.04200069    -0.08808445     1.41551489     0.00001454    -0.00013806     0.00075638
H         0.89569279     0.04482090    -0.66191658     0.00014065     0.00099984    -0.00004449
H         0.81229067    -0.09623828     1.91730969    -0.00051514    -0.00040973     0.00004427
H        -0.94132213     0.17460216     1.87119454     0.00019864     0.00133910     0.00042020
H        -0.96369725    -0.04015353    -0.60364594     0.00001903    -0.00074163    -0.00001532
     6
  Step:    39            Position(A)                                  Velocity(au)
C        -0.03627222     0.03987689    -0.11425365     0.00000456     0.00005720    -0.00088774
N        -0.04197138    -0.08884283     1.41966758    -0.00000441    -0.00013351     0.00073002
H         0.89655044     0.05048112    -0.66209833     0.00016791     0.00102711    -0.00002336
H         0.80984133    -0.09856719     1.91780708    -0.00035528    -0.00042426     0.00013774
H        -0.93991333     0.18204556     1.87345017     0.00030422     0.00132656     0.00038825
H        -0.96395069    -0.04433411    -0.60387724    -0.00010989    -0.00075579    -0.00006886
     6
  Step:    40            Position(A)                                  Velocity(au)
C        -0.03622374     0.04018472    -0.11912919     0.00001256     0.00005302    -0.00085741
N        -0.04204996    -0.08957553     1.42366809    -0.00002378    -0.00012886     0.00070189
H         0.89756811     0.05629214    -0.66217751     0.00019759     0.00105358    -0.00000750
H         0.80832277    -0.10097660     1.91884806    -0.00018498    -0.00043848     0.00023693
H        -0.93792442     0.18941786     1.87553072     0.00040529     0.00131365     0.00035785
H        -0.96492456    -0.04859451    -0.60441497    -0.00023709    -0.00076989    -0.00012403
     6
  Step:    41            Position(A)                                  Velocity(au)
C        -0.03613195     0.04046908    -0.12383100     0.00001995     0.00004878    -0.00082559
N        -0.04223702    -0.09028216     1.42750772    -0.00004294    -0.00012419     0.00067249
H         0.89875758     0.06224971    -0.66218207     0.00022904     0.00107942     0.00000365
H         0.80777512    -0.10346499     1.92045362    -0.00001099    -0.00045246     0.00033784
H        -0.93538619     0.19671915     1.87744734     0.00049995     0.00130128     0.00032989
H        -0.96659901    -0.05293385    -0.60526265    -0.00035893    -0.00078377    -0.00017887
     6
  Step:    42            Position(A)                                  Velocity(au)
C        -0.03600092     0.04072970    -0.12835193     0.00002650     0.00004450    -0.00079276
N        -0.04252968    -0.09096288     1.43118060    -0.00006129    -0.00011960     0.00064231
H         0.90012671     0.06835047    -0.66213674     0.00026150     0.00110475     0.00001068
H         0.80819998    -0.10603108     1.92262214     0.00015988    -0.00046623     0.00043651
H        -0.93233943     0.20395462     1.87921594     0.00058654     0.00129032     0.00030516
H        -0.96893425    -0.05735013    -0.60641315    -0.00047204    -0.00079721    -0.00023158
     6
  Step:    43            Position(A)                                  Velocity(au)
C        -0.03583588     0.04096628    -0.13268749     0.00003204     0.00004017    -0.00075935
N        -0.04292172    -0.09161829     1.43468343    -0.00007825    -0.00011516     0.00061176
H         0.90167893     0.07459168    -0.66206277     0.00029416     0.00112968     0.00001423
H         0.80956126    -0.10867354     1.92533018     0.00032117    -0.00047974     0.00052920
H        -0.92883352     0.21113424     1.88085647     0.00066368     0.00128158     0.00028430
H        -0.97187248    -0.06184000    -0.60784977    -0.00057342    -0.00080993    -0.00028058
     6
  Step:    44            Position(A)                                  Velocity(au)
C        -0.03564299     0.04117850    -0.13683532     0.00003642     0.00003578    -0.00072570
N        -0.04340387    -0.09224943     1.43801517    -0.00009332    -0.00011095     0.00058121
H         0.90341301     0.08097112    -0.66197777     0.00032617     0.00115425     0.00001497
H         0.81178807    -0.11139073     1.92853429     0.00046708    -0.00049293     0.00061259
H        -0.92492488     0.21827226     1.88239214     0.00073025     0.00127575     0.00026783
H        -0.97534044    -0.06639862    -0.60954775    -0.00066060    -0.00082168    -0.00032458
     6