|===============================================================================
|
|  DFTB+ release 20.1
|
|  Copyright (C) 2006 - 2020  DFTB+ developers group
|
|===============================================================================
|
|  When publishing results obtained with DFTB+, please cite the following
|  reference:
|
|  * DFTB+, a software package for efficient approximate density functional
|    theory based atomistic simulations, J. Chem. Phys. 152, 124101 (2020).
|    [doi: 10.1063/1.5143190]
|
|  You should also cite additional publications crediting the parametrization
|  data you use. Please consult the documentation of the SK-files for the
|  references.
|
|===============================================================================

Reading input file 'dftb_in.hsd'
Parser version: 8

--------------------------------------------------------------------------------
Reading SK-files:
Done.


Processed input in HSD format written to 'dftb_pin.hsd'

Starting initialization...
--------------------------------------------------------------------------------
OpenMP threads:              1
Chosen random seed:          501482877
Mode:                        Static calculation
Self consistent charges:     Yes
SCC-tolerance:                 0.100000E-05
Max. scc iterations:                   1000
Shell resolved Hubbard:      No
Spin polarisation:           No
Nr. of up electrons:            16.000000
Nr. of down electrons:          16.000000
Periodic boundaries:         No
Electronic solver:           Relatively robust
Maximal SCC-cycles:                    1000
Initial charges:             Set automatically (system chrg:   0.100E+01)
Included shells:             C:  s, p
                             H:  s
                             N:  s, p
Spin coupling constants:     C   1(s)-1(s):  -0.455900E-01
                             C   1(s)-2(p):  -0.293000E-01
                             C   2(p)-1(s):  -0.293000E-01
                             C   2(p)-2(p):  -0.275500E-01
                             H   1(s)-1(s):  -0.792500E-01
                             N   1(s)-1(s):  -0.468700E-01
                             N   1(s)-2(p):  -0.317000E-01
                             N   2(p)-1(s):  -0.317000E-01
                             N   2(p)-2(p):  -0.307200E-01
Range separated hybrid:      Yes
  Screening parameter omega:   0.300000E+00
  Range separated algorithm:   MatrixBased
Extra options:
                             Mulliken analysis
                             Force calculation
Force type                   original
                             Eigenvector printing


REKS Calcuation:             Yes
SSR(2,2) Calcuation:         Yes
Energy Functional:           (PPS+OSS)/2
Number of Core Orbitals:                 15
Number of Active Orbitals:                2
Number of Basis:                         32
Number of States:                         2
State-Averaging Weight:          0.500000
                                 0.500000
State of Interest:                        1
Initial Guess:               Diagonalize H0 matrix
Newton-Raphson for FON opt:  Yes
NR max. Iterations:                      50
Level Shifting:              Yes
Shift Value:                     0.300000
W Scale Factor:              C  =    3.200000
                             H  =    3.200000
                             N  =    3.200000
Transition Dipole:           No
Gradient of Microstate:      No
CP-REKS Solver:              Preconditioned Conjugate-Gradient
CG max. Iterations:                     100
CG Tolerance:                  0.100000E-07
Memory for A and Hxc:        Direct Updating Without Saving
Non-Adiabatic Coupling:      Yes

--------------------------------------------------------------------------------

***  Geometry step: 0

  iSCC       reks energy        Diff energy         x_a       SCC error   
    1      -16.3729849041       0.0000000000     0.997176    1.23388550
    2      -16.3972368075      -0.0242519034     0.999751    0.07721222
    3      -16.4019613725      -0.0047245650     0.999937    0.02837942
    4      -16.4037186689      -0.0017572965     0.999973    0.01684710
    5      -16.4045780351      -0.0008593662     0.999986    0.01115265
    6      -16.4050514320      -0.0004733969     0.999991    0.00785201
    7      -16.4053331432      -0.0002817112     0.999994    0.00567987
    8      -16.4055118586      -0.0001787154     0.999996    0.00467396
    9      -16.4056321426      -0.0001202841     0.999997    0.00386832
   10      -16.4057176789      -0.0000855363     0.999998    0.00321901
   11      -16.4057815439      -0.0000638650     0.999998    0.00270286
   12      -16.4058311958      -0.0000496518     0.999998    0.00229416
   13      -16.4058710320      -0.0000398363     0.999999    0.00196965
   14      -16.4059037445      -0.0000327125     0.999999    0.00171004
   15      -16.4059310524      -0.0000273078     0.999999    0.00150012
   16      -16.4059541061      -0.0000230537     0.999999    0.00142089
   17      -16.4059737138      -0.0000196078     0.999999    0.00137878
   18      -16.4059904707      -0.0000167568     0.999999    0.00132578
   19      -16.4060048332      -0.0000143626     0.999999    0.00126572
   20      -16.4060171644      -0.0000123312     0.999999    0.00120148
   21      -16.4060277606      -0.0000105961     0.999999    0.00113524
   22      -16.4060368684      -0.0000091079     0.999999    0.00106860
   23      -16.4060446965      -0.0000078281     0.999999    0.00100273
   24      -16.4060514226      -0.0000067261     0.999999    0.00093849
   25      -16.4060571993      -0.0000057767     1.000000    0.00087645
   26      -16.4060621579      -0.0000049586     1.000000    0.00081701
   27      -16.4060664120      -0.0000042540     1.000000    0.00076043
   28      -16.4060700594      -0.0000036474     1.000000    0.00070683
   29      -16.4060731848      -0.0000031254     1.000000    0.00065627
   30      -16.4060758615      -0.0000026767     1.000000    0.00060874
   31      -16.4060781525      -0.0000022911     1.000000    0.00056419
   32      -16.4060801125      -0.0000019600     1.000000    0.00052252
   33      -16.4060817885      -0.0000016759     1.000000    0.00048364
   34      -16.4060832208      -0.0000014324     1.000000    0.00044741
   35      -16.4060844445      -0.0000012237     1.000000    0.00041371
   36      -16.4060854895      -0.0000010450     1.000000    0.00038239
   37      -16.4060863815      -0.0000008920     1.000000    0.00035332
   38      -16.4060871427      -0.0000007612     1.000000    0.00032637
   39      -16.4060877920      -0.0000006493     1.000000    0.00030139
   40      -16.4060883458      -0.0000005537     1.000000    0.00027826
   41      -16.4060888178      -0.0000004721     1.000000    0.00025685
   42      -16.4060892202      -0.0000004024     1.000000    0.00023705
   43      -16.4060895630      -0.0000003429     1.000000    0.00021874
   44      -16.4060898551      -0.0000002921     1.000000    0.00020182
   45      -16.4060901039      -0.0000002488     1.000000    0.00018618
   46      -16.4060903158      -0.0000002119     1.000000    0.00017174
   47      -16.4060904961      -0.0000001804     1.000000    0.00015841
   48      -16.4060906497      -0.0000001536     1.000000    0.00014610
   49      -16.4060907804      -0.0000001307     1.000000    0.00013473
   50      -16.4060908916      -0.0000001112     1.000000    0.00012425
   51      -16.4060909863      -0.0000000946     1.000000    0.00011457
   52      -16.4060910668      -0.0000000805     1.000000    0.00010564
   53      -16.4060911353      -0.0000000685     1.000000    0.00009740
   54      -16.4060911936      -0.0000000583     1.000000    0.00008980
   55      -16.4060912431      -0.0000000496     1.000000    0.00008280
   56      -16.4060912853      -0.0000000422     1.000000    0.00007633
   57      -16.4060913211      -0.0000000358     1.000000    0.00007037
   58      -16.4060913516      -0.0000000305     1.000000    0.00006488
   59      -16.4060913775      -0.0000000259     1.000000    0.00005981
   60      -16.4060913996      -0.0000000220     1.000000    0.00005513
   61      -16.4060914183      -0.0000000187     1.000000    0.00005082
   62      -16.4060914342      -0.0000000159     1.000000    0.00004685
   63      -16.4060914478      -0.0000000135     1.000000    0.00004319
   64      -16.4060914593      -0.0000000115     1.000000    0.00003981
   65      -16.4060914690      -0.0000000098     1.000000    0.00003670
   66      -16.4060914774      -0.0000000083     1.000000    0.00003383
   67      -16.4060914844      -0.0000000071     1.000000    0.00003118
   68      -16.4060914904      -0.0000000060     1.000000    0.00002874
   69      -16.4060914955      -0.0000000051     1.000000    0.00002649
   70      -16.4060914999      -0.0000000043     1.000000    0.00002442
   71      -16.4060915036      -0.0000000037     1.000000    0.00002251
   72      -16.4060915067      -0.0000000031     1.000000    0.00002075
   73      -16.4060915094      -0.0000000027     1.000000    0.00001912
   74      -16.4060915116      -0.0000000023     1.000000    0.00001763
   75      -16.4060915136      -0.0000000019     1.000000    0.00001625
   76      -16.4060915152      -0.0000000016     1.000000    0.00001498
   77      -16.4060915166      -0.0000000014     1.000000    0.00001380
   78      -16.4060915178      -0.0000000012     1.000000    0.00001272
   79      -16.4060915188      -0.0000000010     1.000000    0.00001173
   80      -16.4060915196      -0.0000000009     1.000000    0.00001081
   81      -16.4060915203      -0.0000000007     1.000000    0.00000996
   82      -16.4060915210      -0.0000000006     1.000000    0.00000918
   83      -16.4060915215      -0.0000000005     1.000000    0.00000847
   84      -16.4060915219      -0.0000000004     1.000000    0.00000780
   85      -16.4060915223      -0.0000000004     1.000000    0.00000719
   86      -16.4060915226      -0.0000000003     1.000000    0.00000663
   87      -16.4060915229      -0.0000000003     1.000000    0.00000611
   88      -16.4060915231      -0.0000000002     1.000000    0.00000563
   89      -16.4060915233      -0.0000000002     1.000000    0.00000519
   90      -16.4060915235      -0.0000000002     1.000000    0.00000479
   91      -16.4060915236      -0.0000000001     1.000000    0.00000441
   92      -16.4060915237      -0.0000000001     1.000000    0.00000407
   93      -16.4060915238      -0.0000000001     1.000000    0.00000375
   94      -16.4060915239      -0.0000000001     1.000000    0.00000345
   95      -16.4060915240      -0.0000000001     1.000000    0.00000318
   96      -16.4060915241      -0.0000000001     1.000000    0.00000293
   97      -16.4060915241      -0.0000000001     1.000000    0.00000270
   98      -16.4060915242      -0.0000000000     1.000000    0.00000249
   99      -16.4060915242      -0.0000000000     1.000000    0.00000230
  100      -16.4060915242      -0.0000000000     1.000000    0.00000212
  101      -16.4060915243      -0.0000000000     1.000000    0.00000195
  102      -16.4060915243      -0.0000000000     1.000000    0.00000180
  103      -16.4060915243      -0.0000000000     1.000000    0.00000166
  104      -16.4060915243      -0.0000000000     1.000000    0.00000153
  105      -16.4060915243      -0.0000000000     1.000000    0.00000141
  106      -16.4060915244      -0.0000000000     1.000000    0.00000130
  107      -16.4060915244      -0.0000000000     1.000000    0.00000120
  108      -16.4060915244      -0.0000000000     1.000000    0.00000110
  109      -16.4060915244      -0.0000000000     1.000000    0.00000102
  110      -16.4060915244      -0.0000000000     1.000000    0.00000094
  
--------------------------------------------------
 Final SA-REKS(2,2) energy:     -16.40609152
  
 State     Energy      FON(1)    FON(2)   Spin
  PPS  -16.46966301   2.000000  0.000000  0.00
  OSS  -16.34252004   1.000000  1.000000  0.00
 Trip  -16.37213773   1.000000  1.000000  1.00
--------------------------------------------------

 Lagrangian Wab:   0.00301062  0.00301103

--------------------------------------------------
 SSR: 2SI-2SA-REKS(2,2) Hamiltonian matrix
               PPS           OSS
   PPS   -16.46966301    0.00425558
   OSS     0.00425558  -16.34252004
--------------------------------------------------

----------------------------------------------------------------
 SSR: 2SI-2SA-REKS(2,2) states
                    E_n       C_{PPS}    C_{OSS}
 SSR state  1  -16.46980528  -0.999442   0.033415
 SSR state  2  -16.34237776  -0.033415  -0.999442
----------------------------------------------------------------

 unrelaxed SSR FONs for S0:  1.998883  0.001117

Total Energy:                      -16.4698052840 H         -448.1662 eV
Extrapolated to 0:                 -16.4698052840 H         -448.1662 eV

----------------------------------------------------------------------------------
 Solving CP-REKS equation for  1 state vector...
----------------------------------------------------------------------------------
  CG solver: Constructing Y initial guess
  CG solver: Iteration    1    eps =    0.000372445789
  CG solver: Iteration    2    eps =    0.000101598330
  CG solver: Iteration    3    eps =    0.000076559151
  CG solver: Iteration    4    eps =    0.000020234249
  CG solver: Iteration    5    eps =    0.000004361603
  CG solver: Iteration    6    eps =    0.000001514538
  CG solver: Iteration    7    eps =    0.000000101023
  CG solver: Iteration    8    eps =    0.000000010987
  CG solver: Iteration    9    eps =    0.000000005181
  Convergence reached in CG solver after    9 iterations
  CG solver: Calculating converged R, Z, Q2 matrix
----------------------------------------------------------------------------------

----------------------------------------------------------------------------------
 Solving CP-REKS equation for SI between  1 and  2 state vectors...
----------------------------------------------------------------------------------
  CG solver: Constructing Y initial guess
  CG solver: Iteration    1    eps =    0.037293597550
  CG solver: Iteration    2    eps =    0.004389398373
  CG solver: Iteration    3    eps =    0.002318154188
  CG solver: Iteration    4    eps =    0.001288456662
  CG solver: Iteration    5    eps =    0.000066000483
  CG solver: Iteration    6    eps =    0.000027383027
  CG solver: Iteration    7    eps =    0.000011607578
  CG solver: Iteration    8    eps =    0.000000473368
  CG solver: Iteration    9    eps =    0.000000294721
  CG solver: Iteration   10    eps =    0.000000036012
  CG solver: Iteration   11    eps =    0.000000003045
  Convergence reached in CG solver after   11 iterations
  CG solver: Calculating converged R, Z, Q2 matrix
----------------------------------------------------------------------------------

--------------------------------------------------
 Gradient Information
--------------------------------------------------
           1 st state (SSR)
    -0.07945463     0.05126055    -0.02408944
     0.06658021    -0.07965292     0.06705857
     0.00320283    -0.00259436    -0.02015292
    -0.00945045    -0.04883639     0.00807598
    -0.02343409    -0.00970759    -0.00323514
    -0.00390689     0.04616371    -0.04952682
     0.14159533     0.07942849     0.00475431
     0.01266595     0.04946457     0.01131180
    -0.02098947    -0.00102585    -0.00468591
    -0.04171193    -0.08944693     0.02569424
    -0.02092878     0.02069844    -0.01317229
     0.05798005    -0.06156325     0.02892557
    -0.02687278    -0.00108335    -0.00637210
    -0.05527536     0.04689488    -0.02458587

           2 st state (SSR)
    -0.02370039     0.06071041     0.00668996
     0.00873879    -0.08895705     0.02887700
     0.00248379    -0.00275655    -0.01714420
    -0.00522065    -0.04824750     0.00684747
    -0.02164912    -0.00370651    -0.00377671
     0.05554206     0.03406776    -0.03009449
     0.07132193     0.05590155     0.00183768
     0.01486603     0.05299223     0.00536590
    -0.02103103    -0.00210594    -0.00447547
     0.01721488    -0.05724868     0.02721231
    -0.02093140     0.02157118    -0.01505103
     0.00163334    -0.06772321     0.02525916
    -0.02555353     0.00201200    -0.00727225
    -0.05371470     0.04349032    -0.02427534
--------------------------------------------------
 Coupling Information
--------------------------------------------------
 between  1 and  2 states
--------------------------------------------------
 g vector - difference gradient
    -0.03008284    -0.00521961    -0.01700840
     0.03122846     0.00465356     0.02081724
     0.00027254     0.00020849    -0.00151682
    -0.00224597    -0.00033196     0.00063296
    -0.00112717    -0.00299281     0.00052690
    -0.02691856     0.00642468    -0.01030886
     0.03281692     0.01201162     0.00122335
    -0.00116579    -0.00186743     0.00343707
     0.00000488     0.00059948    -0.00008082
    -0.02940692    -0.01630015    -0.00078749
     0.00003208    -0.00045813     0.00098001
     0.02810593     0.00314782     0.00181821
    -0.00069842    -0.00162914     0.00052488
    -0.00081515     0.00175358    -0.00025822

 h vector - derivative coupling
    -0.03201777    -0.00723186    -0.02366619
     0.03350712    -0.00013317     0.02515218
    -0.00131134     0.00190043    -0.00013583
    -0.00188732    -0.00055065     0.00025887
    -0.00347604     0.00021573     0.00381682
     0.04290959     0.00542516    -0.00852906
    -0.03582853     0.00331375    -0.00355872
    -0.00094545    -0.00148859     0.00683370
    -0.00023815     0.00086975     0.00036801
     0.00182883    -0.00246474    -0.00039975
     0.00045968    -0.00031048     0.00057573
    -0.00194917     0.00091048    -0.00028534
    -0.00055739    -0.00116527     0.00110244
    -0.00049406     0.00070947    -0.00153288

 G vector - GDV
    -0.02787712    -0.00472493    -0.01538970
     0.02892071     0.00465207     0.01909078
     0.00035952     0.00008109    -0.00150436
    -0.00211490    -0.00029444     0.00061425
    -0.00089248    -0.00300054     0.00027078
    -0.02972447     0.00604797    -0.00971617
     0.03513670     0.01176347     0.00145832
    -0.00110004    -0.00176383     0.00297295
     0.00002078     0.00054005    -0.00010522
    -0.02946340    -0.01609912    -0.00075903
     0.00000131    -0.00043637     0.00093937
     0.02817335     0.00307998     0.00183321
    -0.00065963    -0.00154767     0.00045007
    -0.00078033     0.00170228    -0.00015526

 H vector - DCV - non-adiabatic coupling
    -0.26646966    -0.05936194    -0.19422307
     0.27873186     0.00139649     0.20785493
    -0.01012502     0.01498981    -0.00185858
    -0.01595506    -0.00448566     0.00235878
    -0.02780850     0.00012050     0.03016217
     0.32187565     0.04584693    -0.07218662
    -0.26333877     0.03224286    -0.02722384
    -0.00801404    -0.01263463     0.05530993
    -0.00186214     0.00712441     0.00283917
    -0.00109399    -0.02784295    -0.00354284
     0.00361617    -0.00267121     0.00502172
    -0.00053023     0.00877910    -0.00128117
    -0.00473048    -0.00997808     0.00890734
    -0.00429580     0.00647434    -0.01213791
--------------------------------------------------


--------------------------------------------------------------------------------
DFTB+ running times                          cpu [s]             wall clock [s]
--------------------------------------------------------------------------------
SCC                                    +     0.16  ( 38.4%)      0.16  ( 38.4%)
      Dense to sparse                        0.03  (  6.3%)      0.04  (  8.2%)
      Range separated Hamiltonian            0.01  (  3.1%)      0.01  (  2.8%)
  Density matrix creation                    0.02  (  3.8%)      0.01  (  3.1%)
Post-SCC processing                    +     0.26  ( 61.0%)      0.26  ( 60.5%)
  Force calculation                          0.25  ( 60.9%)      0.26  ( 60.2%)
--------------------------------------------------------------------------------
Missing                                +     0.00  (  0.6%)      0.01  (  1.2%)
Total                                  =     0.42  (100.0%)      0.43  (100.0%)
--------------------------------------------------------------------------------
