 Fermi distribution function

Calculation with static geometry


********************************************************************************
 iSCC Total electronic   Diff electronic      SCC error    
   11   -0.53955472E+01   -0.11555201E-11    0.25868293E-07
********************************************************************************

 Total charge:     1.00000000

 Atomic gross charges (e)
 Atom           Charge
    1       0.26353048
    2      -0.15663016
    3       0.14530261
    4       0.27412102
    5       0.30080316
    6       0.17287289

Nr. of electrons (up):     12.00000000
Atom populations (up)
 Atom       Population
    1       3.73646952
    2       5.15663016
    3       0.85469739
    4       0.72587898
    5       0.69919684
    6       0.82712711

l-shell populations (up)
 Atom Sh.   l       Population
    1   1   0       1.31264545
    1   2   1       2.42382407
    2   1   0       1.42776497
    2   2   1       3.72886519
    3   1   0       0.85469739
    4   1   0       0.72587898
    5   1   0       0.69919684
    6   1   0       0.82712711

Orbital populations (up)
 Atom Sh.   l   m       Population  Label
    1   1   0   0       1.31264545  s
    1   2   1  -1       0.54581774  p_y
    1   2   1   0       0.89311202  p_z
    1   2   1   1       0.98489431  p_x
    2   1   0   0       1.42776497  s
    2   2   1  -1       1.34325286  p_y
    2   2   1   0       1.08026643  p_z
    2   2   1   1       1.30534590  p_x
    3   1   0   0       0.85469739  s
    4   1   0   0       0.72587898  s
    5   1   0   0       0.69919684  s
    6   1   0   0       0.82712711  s

Fermi level:                        -0.4867461087 H          -13.2450 eV
Band energy:                        -8.8597992992 H         -241.0874 eV
TS:                                  0.0000000000 H            0.0000 eV
Band free energy (E-TS):            -8.8597992992 H         -241.0874 eV
Extrapolated E(0K):                 -8.8597992992 H         -241.0874 eV
Input / Output electrons (q):     12.0000000000     12.0000000000

Energy H0:                          -5.5277514458 H         -150.4178 eV
Energy SCC:                          0.1322042044 H            3.5975 eV
Total Electronic energy:            -5.3955472414 H         -146.8203 eV
Repulsive energy:                    0.1842837223 H            5.0146 eV
Total energy:                       -5.2112635190 H         -141.8057 eV
Extrapolated to 0:                  -5.2112635190 H         -141.8057 eV
Total Mermin free energy:           -5.2112635190 H         -141.8057 eV
Force related energy:               -5.2112635190 H         -141.8057 eV

SCC converged

Excitation Energy:                   0.1146093342 H            3.1187 eV

Total Forces
    1     -0.008742910665     -0.011645678950      0.026602651971
    2      0.002261360342      0.016035163743     -0.028781011514
    3     -0.005890979836      0.010879394607      0.002078330078
    4     -0.015847791878     -0.009723734993     -0.001956617935
    5      0.015783683894      0.001335422515     -0.000813450603
    6      0.012436638143     -0.006880566921      0.002870098004

Maximal derivative component:        0.287810E-01 au


