|===============================================================================
|
|  DFTB+ release 20.1
|
|  Copyright (C) 2006 - 2020  DFTB+ developers group
|
|===============================================================================
|
|  When publishing results obtained with DFTB+, please cite the following
|  reference:
|
|  * DFTB+, a software package for efficient approximate density functional
|    theory based atomistic simulations, J. Chem. Phys. 152, 124101 (2020).
|    [doi: 10.1063/1.5143190]
|
|  You should also cite additional publications crediting the parametrization
|  data you use. Please consult the documentation of the SK-files for the
|  references.
|
|===============================================================================

Reading input file 'dftb_in.hsd'
Parser version: 8

--------------------------------------------------------------------------------
Reading SK-files:
Done.


Processed input in HSD format written to 'dftb_pin.hsd'

Starting initialization...
--------------------------------------------------------------------------------
OpenMP threads:              1
Chosen random seed:          509980316
Mode:                        Static calculation
Self consistent charges:     Yes
SCC-tolerance:                 0.100000E-05
Max. scc iterations:                   1000
Shell resolved Hubbard:      No
Spin polarisation:           No
Nr. of up electrons:             6.000000
Nr. of down electrons:           6.000000
Periodic boundaries:         No
Electronic solver:           Relatively robust
Maximal SCC-cycles:                    1000
Initial charges:             Set automatically (system chrg:   0.100E+01)
Included shells:             C:  s, p
                             N:  s, p
                             H:  s
Spin coupling constants:     C   1(s)-1(s):  -0.455900E-01
                             C   1(s)-2(p):  -0.293000E-01
                             C   2(p)-1(s):  -0.293000E-01
                             C   2(p)-2(p):  -0.275500E-01
                             N   1(s)-1(s):  -0.468700E-01
                             N   1(s)-2(p):  -0.317000E-01
                             N   2(p)-1(s):  -0.317000E-01
                             N   2(p)-2(p):  -0.307200E-01
                             H   1(s)-1(s):  -0.792500E-01
Range separated hybrid:      Yes
  Screening parameter omega:   0.300000E+00
  Range separated algorithm:   MatrixBased
Extra options:
                             Mulliken analysis
                             Force calculation
Force type                   original
                             Eigenvector printing


REKS Calcuation:             Yes
SSR(2,2) Calcuation:         Yes
Energy Functional:           (PPS+OSS)/2
Number of Core Orbitals:                  5
Number of Active Orbitals:                2
Number of Basis:                         12
Number of States:                         2
State-Averaging Weight:          0.500000
                                 0.500000
State of Interest:                        1
Initial Guess:               Diagonalize H0 matrix
Newton-Raphson for FON opt:  Yes
NR max. Iterations:                      50
Level Shifting:              Yes
Shift Value:                     0.300000
W Scale Factor:              C  =    3.000000
                             N  =    3.000000
                             H  =    3.000000
Transition Dipole:           No
Gradient of Microstate:      No
CP-REKS Solver:              Preconditioned Conjugate-Gradient
CG max. Iterations:                     100
CG Tolerance:                  0.100000E-07
Memory for A and Hxc:        Direct Updating Without Saving
Non-Adiabatic Coupling:      Yes

--------------------------------------------------------------------------------

***  Geometry step: 0

  iSCC       reks energy        Diff energy         x_a       SCC error   
    1       -6.2611887204       0.0000000000     0.999702    1.19232806
    2       -6.2731897616      -0.0120010412     0.999870    0.08696737
    3       -6.2775488500      -0.0043590884     0.999928    0.03593000
    4       -6.2799239558      -0.0023751058     0.999952    0.01661746
    5       -6.2812884744      -0.0013645186     0.999964    0.00978068
    6       -6.2820662477      -0.0007777733     0.999970    0.00849823
    7       -6.2825008634      -0.0004346157     0.999973    0.00693509
    8       -6.2827393927      -0.0002385294     0.999975    0.00543571
    9       -6.2828686702      -0.0001292774     0.999976    0.00414783
   10       -6.2829382454      -0.0000695753     0.999977    0.00310852
   11       -6.2829756045      -0.0000373591     0.999977    0.00230144
   12       -6.2829956963      -0.0000200918     0.999977    0.00169002
   13       -6.2830065521      -0.0000108558     0.999978    0.00123437
   14       -6.2830124593      -0.0000059072     0.999978    0.00089851
   15       -6.2830157026      -0.0000032433     0.999978    0.00065276
   16       -6.2830175015      -0.0000017990     0.999978    0.00047381
   17       -6.2830185105      -0.0000010089     0.999978    0.00036407
   18       -6.2830190827      -0.0000005723     0.999978    0.00029033
   19       -6.2830194110      -0.0000003282     0.999978    0.00023520
   20       -6.2830196013      -0.0000001903     0.999978    0.00018996
   21       -6.2830197127      -0.0000001114     0.999978    0.00015292
   22       -6.2830197785      -0.0000000658     0.999978    0.00012277
   23       -6.2830198177      -0.0000000392     0.999978    0.00009833
   24       -6.2830198413      -0.0000000235     0.999978    0.00007859
   25       -6.2830198555      -0.0000000142     0.999978    0.00006270
   26       -6.2830198641      -0.0000000086     0.999978    0.00004995
   27       -6.2830198693      -0.0000000052     0.999978    0.00003974
   28       -6.2830198725      -0.0000000032     0.999978    0.00003158
   29       -6.2830198745      -0.0000000020     0.999978    0.00002507
   30       -6.2830198757      -0.0000000012     0.999978    0.00001989
   31       -6.2830198764      -0.0000000007     0.999978    0.00001576
   32       -6.2830198769      -0.0000000005     0.999978    0.00001248
   33       -6.2830198772      -0.0000000003     0.999978    0.00000988
   34       -6.2830198774      -0.0000000002     0.999978    0.00000781
   35       -6.2830198775      -0.0000000001     0.999978    0.00000618
   36       -6.2830198775      -0.0000000001     0.999978    0.00000488
   37       -6.2830198776      -0.0000000000     0.999978    0.00000386
   38       -6.2830198776      -0.0000000000     0.999978    0.00000305
   39       -6.2830198776      -0.0000000000     0.999978    0.00000241
   40       -6.2830198776      -0.0000000000     0.999978    0.00000190
   41       -6.2830198776      -0.0000000000     0.999978    0.00000150
   42       -6.2830198776      -0.0000000000     0.999978    0.00000118
   43       -6.2830198776      -0.0000000000     0.999978    0.00000093
  
--------------------------------------------------
 Final SA-REKS(2,2) energy:      -6.28301988
  
 State     Energy      FON(1)    FON(2)   Spin
  PPS   -6.41553667   1.999955  0.000045  0.00
  OSS   -6.15050309   1.000000  1.000000  0.00
 Trip   -6.22795097   1.000000  1.000000  1.00
--------------------------------------------------

 Lagrangian Wab:   0.00188529  0.00188522

--------------------------------------------------
 SSR: 2SI-2SA-REKS(2,2) Hamiltonian matrix
               PPS           OSS
   PPS    -6.41553667    0.00265357
   OSS     0.00265357   -6.15050309
--------------------------------------------------

----------------------------------------------------------------
 SSR: 2SI-2SA-REKS(2,2) states
                    E_n       C_{PPS}    C_{OSS}
 SSR state  1   -6.41556323  -0.999950   0.010011
 SSR state  2   -6.15047652  -0.010011  -0.999950
----------------------------------------------------------------

 unrelaxed SSR FONs for S0:  1.999855  0.000145

Total Energy:                       -6.4155632326 H         -174.5764 eV
Extrapolated to 0:                  -6.4155632326 H         -174.5764 eV

----------------------------------------------------------------------------------
 Solving CP-REKS equation for  1 state vector...
----------------------------------------------------------------------------------
  CG solver: Constructing Y initial guess
  CG solver: Iteration    1    eps =    0.000034877887
  CG solver: Iteration    2    eps =    0.000004237824
  CG solver: Iteration    3    eps =    0.000000240366
  CG solver: Iteration    4    eps =    0.000000010257
  CG solver: Iteration    5    eps =    0.000000003821
  Convergence reached in CG solver after    5 iterations
  CG solver: Calculating converged R, Z, Q2 matrix
----------------------------------------------------------------------------------

----------------------------------------------------------------------------------
 Solving CP-REKS equation for SI between  1 and  2 state vectors...
----------------------------------------------------------------------------------
  CG solver: Constructing Y initial guess
  CG solver: Iteration    1    eps =    0.000489345506
  CG solver: Iteration    2    eps =    0.000212478030
  CG solver: Iteration    3    eps =    0.000085611249
  CG solver: Iteration    4    eps =    0.000001262177
  CG solver: Iteration    5    eps =    0.000000162107
  CG solver: Iteration    6    eps =    0.000000004268
  Convergence reached in CG solver after    6 iterations
  CG solver: Calculating converged R, Z, Q2 matrix
----------------------------------------------------------------------------------

--------------------------------------------------
 Gradient Information
--------------------------------------------------
           1 st state (SSR)
     0.00297500     0.01416487     0.02671404
    -0.01237108     0.00148002    -0.03811297
     0.00528882    -0.00436890     0.01049118
     0.00950089    -0.00065897     0.00105727
    -0.00030972    -0.00993716     0.00416128
    -0.00508391    -0.00067987    -0.00431080

           2 st state (SSR)
    -0.00299596    -0.01302441     0.13939201
     0.00618885     0.01353586    -0.16824223
    -0.00424644     0.01532765     0.02668323
    -0.00671331    -0.00628204    -0.00812498
     0.00165081    -0.00024237    -0.00404104
     0.00611604    -0.00931469     0.01433299
--------------------------------------------------
 Coupling Information
--------------------------------------------------
 between  1 and  2 states
--------------------------------------------------
 g vector - difference gradient
     0.00293976     0.01354385    -0.05636940
    -0.00930749    -0.00595119     0.06509678
     0.00491615    -0.00983135    -0.00810532
     0.00824980     0.00278161     0.00458174
    -0.00110201    -0.00487166     0.00411745
    -0.00569621     0.00432873    -0.00932126

 h vector - derivative coupling
    -0.00231316    -0.00267238    -0.00095470
    -0.00128151     0.00389217     0.00095447
     0.00736930     0.00094394    -0.00038288
     0.00704492    -0.00152274    -0.00051437
    -0.00606986    -0.00116312     0.00077263
    -0.00474970     0.00052213     0.00012484

 G vector - GDV
     0.00298548     0.01359464    -0.05633899
    -0.00927997    -0.00602792     0.06506463
     0.00476763    -0.00984827    -0.00809603
     0.00810710     0.00281154     0.00459112
    -0.00098026    -0.00484739     0.00410116
    -0.00559998     0.00431741    -0.00932189

 H vector - DCV - non-adiabatic coupling
    -0.00850227    -0.00905626    -0.00785796
    -0.00553626     0.01423025     0.00851622
     0.02816530     0.00281766    -0.00205620
     0.02719365    -0.00553309    -0.00159395
    -0.02297628    -0.00475473     0.00322501
    -0.01834414     0.00229618    -0.00023312
--------------------------------------------------


--------------------------------------------------------------------------------
DFTB+ running times                          cpu [s]             wall clock [s]
--------------------------------------------------------------------------------
SCC                                    +     0.02  ( 64.9%)      0.02  ( 61.8%)
--------------------------------------------------------------------------------
Missing                                +     0.01  ( 35.1%)      0.01  ( 38.2%)
Total                                  =     0.03  (100.0%)      0.03  (100.0%)
--------------------------------------------------------------------------------
