|===============================================================================
|
|  DFTB+ release 20.1
|
|  Copyright (C) 2006 - 2020  DFTB+ developers group
|
|===============================================================================
|
|  When publishing results obtained with DFTB+, please cite the following
|  reference:
|
|  * DFTB+, a software package for efficient approximate density functional
|    theory based atomistic simulations, J. Chem. Phys. 152, 124101 (2020).
|    [doi: 10.1063/1.5143190]
|
|  You should also cite additional publications crediting the parametrization
|  data you use. Please consult the documentation of the SK-files for the
|  references.
|
|===============================================================================

Reading input file 'dftb_in.hsd'
Parser version: 8

--------------------------------------------------------------------------------
Reading SK-files:
Done.


Processed input in HSD format written to 'dftb_pin.hsd'

Starting initialization...
--------------------------------------------------------------------------------
OpenMP threads:              1
Chosen random seed:          509982503
Mode:                        Static calculation
Self consistent charges:     Yes
SCC-tolerance:                 0.100000E-05
Max. scc iterations:                   1000
Shell resolved Hubbard:      No
Spin polarisation:           No
Nr. of up electrons:             6.000000
Nr. of down electrons:           6.000000
Periodic boundaries:         No
Electronic solver:           Relatively robust
Maximal SCC-cycles:                    1000
Initial charges:             Set automatically (system chrg:   0.100E+01)
Included shells:             C:  s, p
                             N:  s, p
                             H:  s
Spin coupling constants:     C   1(s)-1(s):  -0.455900E-01
                             C   1(s)-2(p):  -0.293000E-01
                             C   2(p)-1(s):  -0.293000E-01
                             C   2(p)-2(p):  -0.275500E-01
                             N   1(s)-1(s):  -0.468700E-01
                             N   1(s)-2(p):  -0.317000E-01
                             N   2(p)-1(s):  -0.317000E-01
                             N   2(p)-2(p):  -0.307200E-01
                             H   1(s)-1(s):  -0.792500E-01
Range separated hybrid:      Yes
  Screening parameter omega:   0.300000E+00
  Range separated algorithm:   MatrixBased
Extra options:
                             Mulliken analysis
                             Force calculation
Force type                   original
                             Eigenvector printing


REKS Calcuation:             Yes
SSR(2,2) Calcuation:         Yes
Energy Functional:           (PPS+OSS)/2
Number of Core Orbitals:                  5
Number of Active Orbitals:                2
Number of Basis:                         12
Number of States:                         2
State-Averaging Weight:          0.500000
                                 0.500000
State of Interest:                        1
Initial Guess:               Diagonalize H0 matrix
Newton-Raphson for FON opt:  Yes
NR max. Iterations:                      50
Level Shifting:              Yes
Shift Value:                     0.300000
W Scale Factor:              C  =    3.000000
                             N  =    3.000000
                             H  =    3.000000
Transition Dipole:           No
Gradient of Microstate:      No
CP-REKS Solver:              Preconditioned Conjugate-Gradient
CG max. Iterations:                     100
CG Tolerance:                  0.100000E-07
Memory for A and Hxc:        Direct Updating Without Saving
Non-Adiabatic Coupling:      Yes

--------------------------------------------------------------------------------

***  Geometry step: 0

  iSCC       reks energy        Diff energy         x_a       SCC error   
    1       -6.2645807792       0.0000000000     0.998652    1.18611417
    2       -6.2777279887      -0.0131472095     0.999493    0.10483150
    3       -6.2813167763      -0.0035887875     0.999730    0.04831044
    4       -6.2827901673      -0.0014733910     0.999823    0.02453105
    5       -6.2835152277      -0.0007250604     0.999865    0.01331358
    6       -6.2839381627      -0.0004229350     0.999887    0.00741202
    7       -6.2842197744      -0.0002816117     0.999899    0.00490312
    8       -6.2844230554      -0.0002032810     0.999906    0.00455382
    9       -6.2845762211      -0.0001531658     0.999910    0.00414633
   10       -6.2846940596      -0.0001178385     0.999913    0.00373026
   11       -6.2847855326      -0.0000914730     0.999915    0.00332868
   12       -6.2848567192      -0.0000711866     0.999917    0.00300801
   13       -6.2849120696      -0.0000553504     0.999918    0.00277422
   14       -6.2849549933      -0.0000429236     0.999918    0.00253273
   15       -6.2849881651      -0.0000331718     0.999919    0.00229306
   16       -6.2850137049      -0.0000255398     0.999919    0.00206176
   17       -6.2850332956      -0.0000195907     0.999919    0.00184306
   18       -6.2850482699      -0.0000149743     0.999919    0.00163951
   19       -6.2850596784      -0.0000114085     0.999919    0.00145237
   20       -6.2850683444      -0.0000086660     0.999919    0.00128200
   21       -6.2850749098      -0.0000065654     0.999919    0.00112817
   22       -6.2850798720      -0.0000049622     0.999919    0.00099017
   23       -6.2850836147      -0.0000037427     0.999919    0.00086707
   24       -6.2850864323      -0.0000028176     0.999919    0.00075778
   25       -6.2850885502      -0.0000021178     0.999919    0.00066112
   26       -6.2850901398      -0.0000015896     0.999919    0.00057593
   27       -6.2850913314      -0.0000011916     0.999919    0.00050107
   28       -6.2850922237      -0.0000008923     0.999919    0.00043544
   29       -6.2850928913      -0.0000006676     0.999919    0.00037804
   30       -6.2850933904      -0.0000004990     0.999919    0.00032792
   31       -6.2850937631      -0.0000003728     0.999919    0.00028422
   32       -6.2850940414      -0.0000002783     0.999919    0.00024619
   33       -6.2850942491      -0.0000002076     0.999919    0.00021313
   34       -6.2850944039      -0.0000001549     0.999919    0.00018441
   35       -6.2850945194      -0.0000001154     0.999919    0.00015949
   36       -6.2850946054      -0.0000000860     0.999919    0.00013789
   37       -6.2850946695      -0.0000000641     0.999919    0.00011917
   38       -6.2850947172      -0.0000000477     0.999919    0.00010296
   39       -6.2850947528      -0.0000000355     0.999919    0.00008894
   40       -6.2850947792      -0.0000000265     0.999919    0.00007681
   41       -6.2850947989      -0.0000000197     0.999919    0.00006631
   42       -6.2850948136      -0.0000000147     0.999919    0.00005725
   43       -6.2850948245      -0.0000000109     0.999919    0.00004941
   44       -6.2850948326      -0.0000000081     0.999919    0.00004265
   45       -6.2850948386      -0.0000000060     0.999919    0.00003680
   46       -6.2850948431      -0.0000000045     0.999919    0.00003175
   47       -6.2850948465      -0.0000000033     0.999919    0.00002740
   48       -6.2850948490      -0.0000000025     0.999919    0.00002363
   49       -6.2850948508      -0.0000000018     0.999919    0.00002039
   50       -6.2850948522      -0.0000000014     0.999919    0.00001759
   51       -6.2850948532      -0.0000000010     0.999919    0.00001517
   52       -6.2850948540      -0.0000000008     0.999919    0.00001308
   53       -6.2850948545      -0.0000000006     0.999919    0.00001129
   54       -6.2850948550      -0.0000000004     0.999919    0.00000973
   55       -6.2850948553      -0.0000000003     0.999919    0.00000839
   56       -6.2850948555      -0.0000000002     0.999919    0.00000724
   57       -6.2850948557      -0.0000000002     0.999919    0.00000624
   58       -6.2850948558      -0.0000000001     0.999919    0.00000538
   59       -6.2850948559      -0.0000000001     0.999919    0.00000464
   60       -6.2850948560      -0.0000000001     0.999919    0.00000400
   61       -6.2850948560      -0.0000000001     0.999919    0.00000345
   62       -6.2850948561      -0.0000000000     0.999919    0.00000298
   63       -6.2850948561      -0.0000000000     0.999919    0.00000257
   64       -6.2850948561      -0.0000000000     0.999919    0.00000221
   65       -6.2850948561      -0.0000000000     0.999919    0.00000191
   66       -6.2850948561      -0.0000000000     0.999919    0.00000165
   67       -6.2850948561      -0.0000000000     0.999919    0.00000142
   68       -6.2850948562      -0.0000000000     0.999919    0.00000122
   69       -6.2850948562      -0.0000000000     0.999919    0.00000106
   70       -6.2850948562      -0.0000000000     0.999919    0.00000091
  
--------------------------------------------------
 Final SA-REKS(2,2) energy:      -6.28509486
  
 State     Energy      FON(1)    FON(2)   Spin
  PPS   -6.40588994   1.999838  0.000162  0.00
  OSS   -6.16429977   1.000000  1.000000  0.00
 Trip   -6.24666765   1.000000  1.000000  1.00
--------------------------------------------------

 Lagrangian Wab:   0.00955129  0.00955099

--------------------------------------------------
 SSR: 2SI-2SA-REKS(2,2) Hamiltonian matrix
               PPS           OSS
   PPS    -6.40588994    0.01338535
   OSS     0.01338535   -6.16429977
--------------------------------------------------

----------------------------------------------------------------
 SSR: 2SI-2SA-REKS(2,2) states
                    E_n       C_{PPS}    C_{OSS}
 SSR state  1   -6.40662930  -0.998478   0.055152
 SSR state  2   -6.16356041  -0.055152  -0.998478
----------------------------------------------------------------

 unrelaxed SSR FONs for S0:  1.996796  0.003204

Total Energy:                       -6.4066292988 H         -174.3333 eV
Extrapolated to 0:                  -6.4066292988 H         -174.3333 eV

----------------------------------------------------------------------------------
 Solving CP-REKS equation for  1 state vector...
----------------------------------------------------------------------------------
  CG solver: Constructing Y initial guess
  CG solver: Iteration    1    eps =    0.000312780537
  CG solver: Iteration    2    eps =    0.000044576909
  CG solver: Iteration    3    eps =    0.000012177586
  CG solver: Iteration    4    eps =    0.000002724838
  CG solver: Iteration    5    eps =    0.000000041120
  CG solver: Iteration    6    eps =    0.000000014788
  CG solver: Iteration    7    eps =    0.000000000320
  Convergence reached in CG solver after    7 iterations
  CG solver: Calculating converged R, Z, Q2 matrix
----------------------------------------------------------------------------------

----------------------------------------------------------------------------------
 Solving CP-REKS equation for SI between  1 and  2 state vectors...
----------------------------------------------------------------------------------
  CG solver: Constructing Y initial guess
  CG solver: Iteration    1    eps =    0.005747906044
  CG solver: Iteration    2    eps =    0.009514666915
  CG solver: Iteration    3    eps =    0.000898813385
  CG solver: Iteration    4    eps =    0.000013385671
  CG solver: Iteration    5    eps =    0.000001996860
  CG solver: Iteration    6    eps =    0.000000040695
  CG solver: Iteration    7    eps =    0.000000003200
  Convergence reached in CG solver after    7 iterations
  CG solver: Calculating converged R, Z, Q2 matrix
----------------------------------------------------------------------------------

--------------------------------------------------
 Gradient Information
--------------------------------------------------
           1 st state (SSR)
    -0.00851798    -0.00749753    -0.01560812
    -0.00348273     0.01700309     0.01288534
    -0.00639450    -0.01325907     0.00856078
     0.00622681     0.01067128    -0.00069039
     0.00366410    -0.02117805    -0.00941390
     0.00850430     0.01426027     0.00426629

           2 st state (SSR)
     0.00037214     0.00453011     0.09597256
     0.00420324    -0.01457787    -0.11332840
    -0.01677629     0.01539034     0.02377212
    -0.00151987    -0.00819135    -0.01158204
     0.00214938     0.02108761    -0.01305310
     0.01157140    -0.01823884     0.01821885
--------------------------------------------------
 Coupling Information
--------------------------------------------------
 between  1 and  2 states
--------------------------------------------------
 g vector - difference gradient
    -0.00405078    -0.00573120    -0.06133247
    -0.00444279     0.01675068     0.06775164
     0.00438100    -0.01682317    -0.00735648
     0.00369153     0.01149408     0.00582424
     0.00146490    -0.02394719     0.00157952
    -0.00104386     0.01825681    -0.00646645

 h vector - derivative coupling
     0.00380365     0.00288264    -0.04693292
    -0.00520065     0.00779299     0.03843061
    -0.00759554    -0.02175603     0.00266886
    -0.00185470     0.01809436     0.00311421
     0.00634335    -0.02423072    -0.00226706
     0.00450388     0.01721675     0.00498630

 G vector - GDV
    -0.00444506    -0.00601382    -0.05579034
    -0.00384298     0.01579048     0.06310687
     0.00519090    -0.01432470    -0.00760567
     0.00387334     0.00943131     0.00544582
     0.00075736    -0.02113283     0.00181960
    -0.00153355     0.01624955    -0.00697628

 H vector - DCV - non-adiabatic coupling
     0.01371782     0.00919037    -0.21970040
    -0.02327867     0.03945564     0.18784276
    -0.02907334    -0.09658381     0.00757978
    -0.00591129     0.07919649     0.01537311
     0.02660194    -0.10993084    -0.00855439
     0.01794354     0.07867215     0.01745915
--------------------------------------------------


--------------------------------------------------------------------------------
DFTB+ running times                          cpu [s]             wall clock [s]
--------------------------------------------------------------------------------
SCC                                    +     0.03  ( 73.0%)      0.04  ( 65.5%)
Post-SCC processing                    +     0.01  ( 23.8%)      0.01  ( 20.7%)
  Force calculation                          0.01  ( 23.2%)      0.01  ( 17.2%)
--------------------------------------------------------------------------------
Missing                                +     0.00  (  3.2%)      0.01  ( 13.8%)
Total                                  =     0.04  (100.0%)      0.06  (100.0%)
--------------------------------------------------------------------------------
