 Fermi distribution function

Calculation with static geometry


********************************************************************************
 iSCC Total electronic   Diff electronic      SCC error    
   10   -0.53388016E+01   -0.11979395E-08    0.80175828E-06
********************************************************************************

 Total charge:     1.00000000

 Atomic gross charges (e)
 Atom           Charge
    1       0.25907791
    2      -0.14891727
    3       0.18075499
    4       0.26775347
    5       0.26530005
    6       0.17603085

Nr. of electrons (up):     12.00000000
Atom populations (up)
 Atom       Population
    1       3.74092209
    2       5.14891727
    3       0.81924501
    4       0.73224653
    5       0.73469995
    6       0.82396915

l-shell populations (up)
 Atom Sh.   l       Population
    1   1   0       1.36624404
    1   2   1       2.37467806
    2   1   0       1.49236351
    2   2   1       3.65655376
    3   1   0       0.81924501
    4   1   0       0.73224653
    5   1   0       0.73469995
    6   1   0       0.82396915

Orbital populations (up)
 Atom Sh.   l   m       Population  Label
    1   1   0   0       1.36624404  s
    1   2   1  -1       0.49142958  p_y
    1   2   1   0       0.86918030  p_z
    1   2   1   1       1.01406818  p_x
    2   1   0   0       1.49236351  s
    2   2   1  -1       1.39765604  p_y
    2   2   1   0       1.10041144  p_z
    2   2   1   1       1.15848628  p_x
    3   1   0   0       0.81924501  s
    4   1   0   0       0.73224653  s
    5   1   0   0       0.73469995  s
    6   1   0   0       0.82396915  s

Fermi level:                        -0.5169250700 H          -14.0662 eV
Band energy:                        -8.7928718772 H         -239.2662 eV
TS:                                  0.0000000000 H            0.0000 eV
Band free energy (E-TS):            -8.7928718772 H         -239.2662 eV
Extrapolated E(0K):                 -8.7928718772 H         -239.2662 eV
Input / Output electrons (q):     12.0000000000     12.0000000000

Energy H0:                          -5.4737082815 H         -148.9472 eV
Energy SCC:                          0.1349067264 H            3.6710 eV
Total Electronic energy:            -5.3388015551 H         -145.2762 eV
Repulsive energy:                    0.1582761023 H            4.3069 eV
Total energy:                       -5.1805254528 H         -140.9693 eV
Extrapolated to 0:                  -5.1805254528 H         -140.9693 eV
Total Mermin free energy:           -5.1805254528 H         -140.9693 eV
Force related energy:               -5.1805254528 H         -140.9693 eV

SCC converged

Excitation Energy:                   0.1574970358 H            4.2857 eV

Total Forces
    1      0.007542662996     -0.014021995278      0.022685984220
    2      0.010195897905      0.003137200459     -0.003724226145
    3      0.008436641474      0.002510506868     -0.008808055639
    4     -0.014142676204     -0.000626042251     -0.008814289756
    5     -0.001326784089     -0.001938345765      0.004815183034
    6     -0.010705742081      0.010938675967     -0.006154595714

Maximal derivative component:        0.226860E-01 au


