     6
  Step:     0            Position(A)                                  Velocity(au)
C        -0.03797342    -0.00542622     0.02465932    -0.00008901    -0.00010810     0.00017998
N        -0.04984012    -0.03466636     1.28922219     0.00002932     0.00010718    -0.00031191
H         0.91117070     0.09787218    -0.53463043     0.00014312     0.00051653    -0.00015173
H         0.86482671    -0.17133920     1.90196867    -0.00033983    -0.00052248     0.00066876
H        -0.88112462    -0.12325816     1.79892744    -0.00014913    -0.00031868     0.00074298
H        -0.96272076     0.07334170    -0.48355128     0.00099905     0.00012343     0.00092977
     6
  Step:     1            Position(A)                                  Velocity(au)
C        -0.03841801    -0.00602648     0.02547927    -0.00007251    -0.00011161     0.00011903
N        -0.04959128    -0.03407643     1.28769549     0.00006096     0.00010854    -0.00024459
H         0.91201113     0.10075103    -0.53562750     0.00016187     0.00053644    -0.00021068
H         0.86236400    -0.17415989     1.90523687    -0.00056081    -0.00050898     0.00052464
H        -0.88260347    -0.12510861     1.80349587    -0.00037999    -0.00035713     0.00091942
H        -0.95777984     0.07408938    -0.47894568     0.00079576     0.00015143     0.00074706
     6
  Step:     2            Position(A)                                  Velocity(au)
C        -0.03876637    -0.00664687     0.02596111    -0.00005409    -0.00011556     0.00005664
N        -0.04917342    -0.03347932     1.28654733     0.00009087     0.00010990    -0.00017389
H         0.91294098     0.10373885    -0.53693445     0.00017593     0.00055686    -0.00026531
H         0.85869353    -0.17690554     1.90770627    -0.00078043    -0.00049576     0.00037831
H        -0.88528031    -0.12716385     1.80898253    -0.00058461    -0.00039348     0.00107740
H        -0.95401803     0.07499782    -0.47538119     0.00057091     0.00018220     0.00055108
     6
  Step:     3            Position(A)                                  Velocity(au)
C        -0.03900928    -0.00728970     0.02609843    -0.00003423    -0.00011992    -0.00000677
N        -0.04859797    -0.03287503     1.28579464     0.00011844     0.00011127    -0.00010031
H         0.91393431     0.10683836    -0.53852776     0.00018524     0.00057781    -0.00031578
H         0.85383273    -0.17957925     1.90937236    -0.00099542    -0.00048339     0.00023233
H        -0.88899410    -0.12940996     1.81527349    -0.00075778    -0.00042698     0.00121300
H        -0.95153890     0.07608115    -0.47292153     0.00032986     0.00021537     0.00034503
     6
  Step:     4            Position(A)                                  Velocity(au)
C        -0.03914036    -0.00795723     0.02588718    -0.00001346    -0.00012465    -0.00007073
N        -0.04787923    -0.03226348     1.28545129     0.00014317     0.00011264    -0.00002446
H         0.91496507     0.11005237    -0.54038488     0.00018975     0.00059911    -0.00036216
H         0.84781699    -0.18218735     1.91024484    -0.00120198    -0.00047235     0.00008933
H        -0.89356029    -0.13182929     1.82223652    -0.00089575    -0.00045686     0.00132296
H        -0.95041373     0.07735103    -0.47161121     0.00007884     0.00025033     0.00013257
     6
  Step:     5            Position(A)                                  Velocity(au)
C        -0.03915628    -0.00865136     0.02532584     0.00000762    -0.00012963    -0.00013467
N        -0.04703409    -0.03164464     1.28552746     0.00016452     0.00011395     0.00005284
H         0.91600700     0.11338271    -0.54248384     0.00018935     0.00062034    -0.00040439
H         0.84070288    -0.18473895     1.91034821    -0.00139545    -0.00046305    -0.00004769
H        -0.89877882    -0.13440050     1.82972489    -0.00099599    -0.00048235     0.00140461
H        -0.95067764     0.07881567    -0.47147345    -0.00017503     0.00028630    -0.00008207
     6
  Step:     6            Position(A)                                  Velocity(au)
C        -0.03905707    -0.00937330     0.02441600     0.00002836    -0.00013467    -0.00019785
N        -0.04608197    -0.03101867     1.28602855     0.00018200     0.00011516     0.00013048
H         0.91703349     0.11682897    -0.54480243     0.00018396     0.00064088    -0.00044224
H         0.83257306    -0.18724570     1.90972392    -0.00157008    -0.00045590    -0.00017520
H        -0.90444050    -0.13709843     1.83758050    -0.00105711    -0.00050262     0.00145585
H        -0.95232581     0.08047856    -0.47250769    -0.00042386     0.00032221    -0.00029401
     6
  Step:     7            Position(A)                                  Velocity(au)
C        -0.03884634    -0.01012331     0.02316339     0.00004805    -0.00013956    -0.00025926
N        -0.04504487    -0.03038598     1.28695358     0.00019508     0.00011619     0.00020699
H         0.91801759     0.12038735    -0.54731734     0.00017353     0.00065990    -0.00047531
H         0.82354243    -0.18972174     1.90843333    -0.00171900    -0.00045132    -0.00028905
H        -0.91033266    -0.13989400     1.84563680    -0.00107882    -0.00051689     0.00147522
H        -0.95531025     0.08233731    -0.47468690    -0.00065913     0.00035680    -0.00049787
     6
  Step:     8            Position(A)                                  Velocity(au)
C        -0.03853135    -0.01090033     0.02157919     0.00006599    -0.00014401    -0.00031767
N        -0.04394745    -0.02974736     1.28829341     0.00020324     0.00011696     0.00028056
H         0.91893219     0.12404946    -0.55000316     0.00015809     0.00067639    -0.00050307
H         0.81376403    -0.19218391     1.90656116    -0.00183450    -0.00044979    -0.00038452
H        -0.91624470    -0.14275420     1.85372204    -0.00106195    -0.00052442     0.00146205
H        -0.95953792     0.08438254    -0.47795531    -0.00087223     0.00038862    -0.00068790
     6
  Step:     9            Position(A)                                  Velocity(au)
C        -0.03812303    -0.01170183     0.01968132     0.00008152    -0.00014772    -0.00037161
N        -0.04281710    -0.02910396     1.29002892     0.00020602     0.00011739     0.00034911
H         0.91975051     0.12780146    -0.55283165     0.00013785     0.00068927    -0.00052491
H         0.80343382    -0.19465210     1.90421842    -0.00190856    -0.00045187    -0.00045663
H        -0.92197310    -0.14564231     1.86166292    -0.00100857    -0.00052457     0.00141667
H        -0.96487105     0.08659710    -0.48222719    -0.00105496     0.00041618    -0.00085834
     6
  Step:    10            Position(A)                                  Velocity(au)
C        -0.03763559    -0.01252363     0.01749562     0.00009407    -0.00015042    -0.00041956
N        -0.04168358    -0.02845733     1.29212971     0.00020309     0.00011744     0.00041045
H         0.92044696     0.13162366    -0.55577133     0.00011318     0.00069752    -0.00054029
H         0.79279128    -0.19714938     1.90154332    -0.00193390    -0.00045809    -0.00050067
H        -0.92732760    -0.14851861     1.86928951    -0.00092207    -0.00051700     0.00134061
H        -0.97113061     0.08895583    -0.48738738    -0.00120033     0.00043805    -0.00100391
     6
  Step:    11            Position(A)                                  Velocity(au)
C        -0.03708601    -0.01336002     0.01505622     0.00010324    -0.00015186    -0.00046004
N        -0.04057832    -0.02780930     1.29455361     0.00019433     0.00011708     0.00046250
H         0.92099818     0.13549077    -0.55878773     0.00008472     0.00070032    -0.00054883
H         0.78211494    -0.19970201     1.89869919    -0.00190504    -0.00046900    -0.00051284
H        -0.93213780    -0.15134164     1.87644155    -0.00080721    -0.00050169     0.00123682
H        -0.97810322     0.09142608    -0.49329413    -0.00130327     0.00045306    -0.00112038
     6
  Step:    12            Position(A)                                  Velocity(au)
C        -0.03649315    -0.01420399     0.01240509     0.00010885    -0.00015189    -0.00049191
N        -0.03953320    -0.02716184     1.29724749     0.00017995     0.00011632     0.00050363
H         0.92138438     0.13937305    -0.56184441     0.00005331     0.00069726    -0.00055050
H         0.77171114    -0.20233909     1.89586847    -0.00181966    -0.00048504    -0.00049111
H        -0.93625973    -0.15407008     1.88297547    -0.00066997    -0.00047909     0.00110969
H        -0.98555186     0.09396916    -0.49978488    -0.00136139     0.00046048    -0.00120513
     6
  Step:    13            Position(A)                                  Velocity(au)
C        -0.03587653    -0.01504774     0.00959029     0.00011095    -0.00015051    -0.00051458
N        -0.03857875    -0.02651683     1.30014982     0.00016050     0.00011525     0.00053295
H         0.92159052     0.14323851    -0.56490474     0.00001996     0.00068849    -0.00054576
H         0.76189540    -0.20509168     1.89324213    -0.00167953    -0.00050655    -0.00043573
H        -0.93958236    -0.15666521     1.88877211    -0.00051730    -0.00045018     0.00096497
H        -0.99323063     0.09654282    -0.50668523    -0.00137551     0.00046020    -0.00125777
     6
  Step:    14            Position(A)                                  Velocity(au)
C        -0.03525508    -0.01588351     0.00666276     0.00010986    -0.00014787    -0.00052826
N        -0.03774217    -0.02587574     1.30319481     0.00013688     0.00011403     0.00055058
H         0.92160716     0.14705610    -0.56793461    -0.00001427     0.00067490    -0.00053563
H         0.75296893    -0.20799184     1.89100607    -0.00149086    -0.00053377    -0.00034956
H        -0.94203238    -0.15909377     1.89374374    -0.00035644    -0.00041644     0.00080929
H        -1.00090146     0.09910459    -0.51382060    -0.00134962     0.00045280    -0.00128034
     6
  Step:    15            Position(A)                                  Velocity(au)
C        -0.03464574    -0.01670440     0.00367208     0.00010614    -0.00014432    -0.00053397
N        -0.03704530    -0.02523928     1.30631805     0.00011025     0.00011290     0.00055771
H         0.92143062     0.15079950    -0.57090549    -0.00004848     0.00065801    -0.00052170
H         0.74519300    -0.21107162     1.88932596    -0.00126370    -0.00056690    -0.00023772
H        -0.94357561    -0.16133068     1.89783867    -0.00019413    -0.00037970     0.00064940
H        -1.00835071     0.10161558    -0.52102908    -0.00129044     0.00043952    -0.00127722
     6
  Step:    16            Position(A)                                  Velocity(au)
C        -0.03406234    -0.01750537     0.00066200     0.00010044    -0.00014029    -0.00053343
N        -0.03650322    -0.02460701     1.30946229     0.00008184     0.00011211     0.00055641
H         0.92106237     0.15445078    -0.57379746    -0.00008204     0.00063987    -0.00050589
H         0.73876754    -0.21436261     1.88833456    -0.00101005    -0.00060617    -0.00010668
H        -0.94421403    -0.16336078     1.90104171    -0.00003582    -0.00034189     0.00049133
H        -1.01540333     0.10404395    -0.52817396    -0.00120620     0.00042208    -0.00125445
     6
  Step:    17            Position(A)                                  Velocity(au)
C        -0.03351497    -0.01828381    -0.00233343     0.00009345    -0.00013625    -0.00052866
N        -0.03612393    -0.02397715     1.31258228     0.00005277     0.00011193     0.00054919
H         0.92050703     0.15800329    -0.57660096    -0.00011471     0.00062259    -0.00049013
H         0.73382157    -0.21789605     1.88812488    -0.00074181    -0.00065180     0.00003682
H        -0.94397891    -0.16517978     1.90337025     0.00011484    -0.00030477     0.00033958
H        -1.02193043     0.10636749    -0.53515201    -0.00110510     0.00040225    -0.00121848
     6
  Step:    18            Position(A)                                  Velocity(au)
C        -0.03301000    -0.01903972    -0.00529140     0.00008572    -0.00013260    -0.00052153
N        -0.03590902    -0.02334658     1.31564688     0.00002391     0.00011255     0.00053843
H         0.91977056     0.16146187    -0.57931690    -0.00014657     0.00060792    -0.00047599
H         0.73041384    -0.22170269     1.88874918    -0.00046924    -0.00070378     0.00018654
H        -0.94292085    -0.16679287     1.90486578     0.00025592    -0.00026961     0.00019682
H        -1.02784806     0.10857382    -0.54189555    -0.00099386     0.00038153    -0.00117500
     6
  Step:    19            Position(A)                                  Velocity(au)
C        -0.03255077    -0.01977526    -0.00819934     0.00007766    -0.00012958    -0.00051333
N        -0.03585501    -0.02271120     1.31863826    -0.00000408     0.00011407     0.00052590
H         0.91885850     0.16484093    -0.58195469    -0.00017781     0.00059695    -0.00046446
H         0.72854372    -0.22581187     1.89022297    -0.00020041    -0.00076158     0.00033695
H        -0.94110044    -0.16821218     1.90558405     0.00038660    -0.00023712     0.00006428
H        -1.03310898     0.11065877    -0.54836785    -0.00087706     0.00036086    -0.00112799
     6
  Step:    20            Position(A)                                  Velocity(au)
C        -0.03213855    -0.02049391    -0.01105195     0.00006946    -0.00012728    -0.00050470
N        -0.03595479    -0.02206656     1.32154849    -0.00003069     0.00011641     0.00051267
H         0.91777517     0.16816077    -0.58452901    -0.00020863     0.00059000    -0.00045588
H         0.72816485    -0.23024911     1.89253038     0.00005826    -0.00082396     0.00048297
H        -0.93858250    -0.16945385     1.90558707     0.00050628    -0.00020763    -0.00005765
H        -1.03769031     0.11262338    -0.55455373    -0.00075713     0.00034064    -0.00107959
     6
  Step:    21            Position(A)                                  Velocity(au)
C        -0.03177350    -0.02119963    -0.01384734     0.00006122    -0.00012564    -0.00049569
N        -0.03619842    -0.02140847     1.32437539    -0.00005544     0.00011943     0.00049914
H         0.91652382     0.17144349    -0.58705632    -0.00023903     0.00058682    -0.00045010
H         0.72919567    -0.23503256     1.89562777     0.00030109    -0.00088889     0.00061963
H        -0.93543482    -0.17053574     1.90493889     0.00061397    -0.00018121    -0.00016863
H        -1.04158183     0.11447074    -0.56044926    -0.00063514     0.00032081    -0.00103045
     6
  Step:    22            Position(A)                                  Velocity(au)
C        -0.03145532    -0.02189607    -0.01658387     0.00005298    -0.00012453    -0.00048596
N        -0.03657349    -0.02073369     1.32711890    -0.00007783     0.00012289     0.00048528
H         0.91510755     0.17470973    -0.58955213    -0.00026885     0.00058677    -0.00044663
H         0.73152502    -0.24016926     1.89944551     0.00052259    -0.00095380     0.00074197
H        -0.93173055    -0.17147613     1.90370518     0.00070798    -0.00015788    -0.00026798
H        -1.04477850     0.11620369    -0.56605364    -0.00051151     0.00030113    -0.00098034
     6
  Step:    23            Position(A)                                  Velocity(au)
C        -0.03118361    -0.02258617    -0.01925811     0.00004475    -0.00012379    -0.00047507
N        -0.03706496    -0.02004018     1.32977866    -0.00009731     0.00012654     0.00047091
H         0.91353034     0.17797671    -0.59202926    -0.00029777     0.00058909    -0.00044490
H         0.73501433    -0.24565241     1.90388900     0.00071746    -0.00101588     0.00084529
H        -0.92755202    -0.17229357     1.90195517     0.00078603    -0.00013774    -0.00035457
H        -1.04727715     0.11782360    -0.57136462    -0.00038667     0.00028128    -0.00092878
     6
  Step:    24            Position(A)                                  Velocity(au)
C        -0.03095792    -0.02327201    -0.02186425     0.00003657    -0.00012328    -0.00046261
N        -0.03765512    -0.01932723     1.33235304    -0.00011339     0.00013014     0.00045577
H         0.91179785     0.18125738    -0.59449715    -0.00032537     0.00059304    -0.00044431
H         0.73949956    -0.25146063     1.90884081     0.00088097    -0.00107240     0.00092559
H        -0.92299391    -0.17300711     1.89976414     0.00084557    -0.00012101    -0.00042698
H        -1.04907626     0.11933008    -0.57637692    -0.00026124     0.00026100    -0.00087533
     6
  Step:    25            Position(A)                                  Velocity(au)
C        -0.03077765    -0.02395485    -0.02439413     0.00002847    -0.00012287    -0.00044827
N        -0.03832379    -0.01859538     1.33483873    -0.00012561     0.00013349     0.00043966
H         0.90991808     0.18456078    -0.59696205    -0.00035119     0.00059803    -0.00044436
H         0.74479497    -0.25755836     1.91416504     0.00100944    -0.00112102     0.00097995
H        -0.91816438    -0.17363701     1.89721472     0.00088412    -0.00010797    -0.00048372
H        -1.05017743     0.12072128    -0.58108273    -0.00013616     0.00024014    -0.00081984
     6
  Step:    26            Position(A)                                  Velocity(au)
C        -0.03064200    -0.02463529    -0.02683791     0.00002053    -0.00012248    -0.00043190
N        -0.03904876    -0.01784615     1.33723108    -0.00013367     0.00013646     0.00042243
H         0.90790139     0.18789260    -0.59942734    -0.00037483     0.00060359    -0.00044464
H         0.75069944    -0.26389849     1.91971345     0.00110071    -0.00116003     0.00100679
H        -0.91318453    -0.17420510     1.89439725     0.00089955    -0.00009898    -0.00052342
H        -1.05058700     0.12199449    -0.58547309    -0.00001262     0.00021865    -0.00076241
     6
  Step:    27            Position(A)                                  Velocity(au)
C        -0.03054988    -0.02531345    -0.02918494     0.00001282    -0.00012205    -0.00041350
N        -0.03980647    -0.01708173     1.33952447    -0.00013740     0.00013897     0.00040404
H         0.90576032     0.19125598    -0.60189411    -0.00039597     0.00060941    -0.00044484
H         0.75700440    -0.27042579     1.92533264     0.00115419    -0.00118840     0.00100589
H        -0.90818624    -0.17473494     1.89140877     0.00089037    -0.00009435    -0.00054510
H        -1.05031741     0.12314667    -0.58953958     0.00010810     0.00019657    -0.00070343
     6
  Step:    28            Position(A)                                  Velocity(au)
C        -0.03049983    -0.02598914    -0.03142454     0.00000540    -0.00012157    -0.00039318
N        -0.04057288    -0.01630464     1.34171285    -0.00013683     0.00014100     0.00038452
H         0.90350912     0.19465238    -0.60436166    -0.00041439     0.00061534    -0.00044475
H         0.76350213    -0.27708064     1.93087115     0.00117089    -0.00120583     0.00097834
H        -0.90330821    -0.17525165     1.88835077     0.00085592    -0.00009433    -0.00054833
H        -1.04938796     0.12417494    -0.59327578     0.00022469     0.00017400    -0.00064351
     6
  Step:    29            Position(A)                                  Velocity(au)
C        -0.03049003    -0.02666207    -0.03354676    -0.00000167    -0.00012103    -0.00037117
N        -0.04132440    -0.01551747     1.34379020    -0.00013211     0.00014259     0.00036395
H         0.90116322     0.19808246    -0.60682810    -0.00042996     0.00062138    -0.00044425
H         0.76999400    -0.28380292     1.93618611     0.00115319    -0.00121265     0.00092627
H        -0.89869092    -0.17578138     1.88532578     0.00079647    -0.00009905    -0.00053329
H        -1.04782473     0.12507694    -0.59667848     0.00033598     0.00015106    -0.00058336
     6
  Step:    30            Position(A)                                  Velocity(au)
C        -0.03051831    -0.02733199    -0.03554281    -0.00000831    -0.00012047    -0.00034775
N        -0.04203867    -0.01472256     1.34575095    -0.00012355     0.00014380     0.00034248
H         0.89873854     0.20154678    -0.60929074    -0.00044271     0.00062761    -0.00044326
H         0.77629709    -0.29053539     1.94114837     0.00110442    -0.00120975     0.00085252
H        -0.89447108    -0.17635059     1.88243376     0.00071329    -0.00010849    -0.00050085
H        -1.04566011     0.12585105    -0.59974833     0.00044097     0.00012792    -0.00052376
     6
  Step:    31            Position(A)                                  Velocity(au)
C        -0.03058224    -0.02799877    -0.03740545    -0.00001450    -0.00011992    -0.00032322
N        -0.04269535    -0.01392191     1.34759036    -0.00011157     0.00014471     0.00032030
H         0.89625092     0.20504644    -0.61174650    -0.00045272     0.00063421    -0.00044175
H         0.78224871    -0.29722635     1.94564569     0.00102856    -0.00119837     0.00076034
H        -0.89077623    -0.17698519     1.87976832     0.00060852    -0.00012248    -0.00045251
H        -1.04293175     0.12649636    -0.60249019     0.00053885     0.00010470    -0.00046549
     6
  Step:    32            Position(A)                                  Velocity(au)
C        -0.03067915    -0.02866251    -0.03912901    -0.00002019    -0.00011943    -0.00029786
N        -0.04327660    -0.01311698     1.34930469    -0.00009666     0.00014543     0.00029760
H         0.89371555     0.20858351    -0.61419208    -0.00046016     0.00064142    -0.00043972
H         0.78770919    -0.30383159     1.94958449     0.00092981    -0.00118000     0.00065308
H        -0.88771945    -0.17770951     1.87741304     0.00048514    -0.00014064    -0.00039035
H        -1.03968142     0.12701267    -0.60491307     0.00062907     0.00008149    -0.00040926
     6
  Step:    33            Position(A)                                  Velocity(au)
C        -0.03080624    -0.02932356    -0.04070941    -0.00002538    -0.00011905    -0.00027192
N        -0.04376753    -0.01230876     1.35089145    -0.00007934     0.00014604     0.00027460
H         0.89114663     0.21216129    -0.61662408    -0.00046525     0.00064946    -0.00043714
H         0.79256250    -0.31031534     1.95288989     0.00081226    -0.00115615     0.00053393
H        -0.88539483    -0.17854528     1.87543842     0.00034682    -0.00016244    -0.00031689
H        -1.03595389     0.12740027    -0.60702986     0.00071119     0.00005836    -0.00035569
     6
  Step:    34            Position(A)                                  Velocity(au)
C        -0.03096059    -0.02998252    -0.04214392    -0.00003005    -0.00011882    -0.00024560
N        -0.04415630    -0.01149773     1.35234937    -0.00006017     0.00014662     0.00025151
H         0.88855709     0.21578441    -0.61903889    -0.00046820     0.00065856    -0.00043395
H         0.79671517    -0.31665049     1.95550448     0.00067974    -0.00112833     0.00040581
H        -0.88387405    -0.17951063     1.87389948     0.00019771    -0.00018717    -0.00023502
H        -1.03179607     0.12765971    -0.60885680     0.00078491     0.00003532    -0.00030532
     6
  Step:    35            Position(A)                                  Velocity(au)
C        -0.03113921    -0.03064020    -0.04343091    -0.00003418    -0.00011877    -0.00021906
N        -0.04443423    -0.01068403     1.35367842    -0.00003969     0.00014723     0.00022852
H         0.88595859     0.21945873    -0.62143260    -0.00046922     0.00066892    -0.00043004
H         0.80009462    -0.32281828     1.95738664     0.00053570    -0.00109794     0.00027131
H        -0.88320398    -0.18061934     1.87283419     0.00004233    -0.00021399    -0.00014782
H        -1.02725641     0.12779161    -0.61041307     0.00084995     0.00001234    -0.00025861
     6
  Step:    36            Position(A)                                  Velocity(au)
C        -0.03133904    -0.03129760    -0.04456957    -0.00003776    -0.00011891    -0.00019240
N        -0.04459572    -0.00986751     1.35487968    -0.00001843     0.00014789     0.00020579
H         0.88336150     0.22319117    -0.62380067    -0.00046852     0.00068067    -0.00042528
H         0.80264684    -0.32880768     1.95850860     0.00038319    -0.00106621     0.00013268
H        -0.88340536    -0.18188010     1.87226272    -0.00011466    -0.00024193    -0.00005847
H        -1.02238482     0.12779639    -0.61172032     0.00090600    -0.00001062    -0.00021596
     6
  Step:    37            Position(A)                                  Velocity(au)
C        -0.03155693    -0.03195579    -0.04555961    -0.00004077    -0.00011926    -0.00016569
N        -0.04463813    -0.00904787     1.35595521     0.00000309     0.00014861     0.00018348
H         0.88077507     0.22698943    -0.62613771    -0.00046624     0.00069390    -0.00041943
H         0.80433413    -0.33461449     1.95885454     0.00022492    -0.00103426    -0.00000810
H        -0.88447251    -0.18329602     1.87218730    -0.00026855    -0.00026996     0.00002986
H        -1.01723275     0.12767414    -0.61280235     0.00095271    -0.00003365    -0.00017771
     6
  Step:    38            Position(A)                                  Velocity(au)
C        -0.03178967    -0.03261589    -0.04640111    -0.00004319    -0.00011980    -0.00013895
N        -0.04456157    -0.00822479     1.35690792     0.00002439     0.00014938     0.00016172
H         0.87820758     0.23086169    -0.62843717    -0.00046253     0.00070863    -0.00041226
H         0.80513312    -0.34024058     1.95841903     0.00006331    -0.00100306    -0.00014925
H        -0.88637394    -0.18486434     1.87259284    -0.00041479    -0.00029700     0.00011415
H        -1.01185339     0.12742444    -0.61368479     0.00098965    -0.00005685    -0.00014419
     6
  Step:    39            Position(A)                                  Velocity(au)
C        -0.03203391    -0.03327900    -0.04709433    -0.00004499    -0.00012053    -0.00011223
N        -0.04436873    -0.00739795     1.35774139     0.00004503     0.00015020     0.00014061
H         0.87566648     0.23481626    -0.63069108    -0.00045749     0.00072483    -0.00040344
H         0.80503342    -0.34569323     1.95720605    -0.00009932    -0.00097351    -0.00028909
H        -0.88905389    -0.18657634     1.87344807    -0.00054916    -0.00032195     0.00019158
H        -1.00630206     0.12704625    -0.61439489     0.00101635    -0.00008034    -0.00011566
     6
  Step:    40            Position(A)                                  Velocity(au)
C        -0.03228618    -0.03394610    -0.04763968    -0.00004614    -0.00012141    -0.00008554
N        -0.04406465    -0.00656713     1.35845971     0.00006458     0.00015103     0.00012022
H         0.87315853     0.23886131    -0.63288978    -0.00045123     0.00074248    -0.00039267
H         0.80403693    -0.35098474     1.95522846    -0.00026075    -0.00094651    -0.00042597
H        -0.89243472    -0.18841754     1.87470724    -0.00066788    -0.00034378     0.00025968
H        -1.00063644     0.12653781    -0.61496132     0.00103229    -0.00010424    -0.00009241
     6
  Step:    41            Position(A)                                  Velocity(au)
C        -0.03254282    -0.03461803    -0.04803771    -0.00004661    -0.00012241    -0.00005892
N        -0.04365648    -0.00573219     1.35906732     0.00008267     0.00015186     0.00010062
H         0.87068983     0.24300512    -0.63502193    -0.00044385     0.00076144    -0.00037960
H         0.80215753    -0.35613246     1.95250794    -0.00041871    -0.00092290    -0.00055823
H        -0.89642004    -0.19036795     1.87631215    -0.00076776    -0.00036153     0.00031637
H        -0.99491681     0.12589656    -0.61541409     0.00103692    -0.00012870    -0.00007467
     6
  Step:    42            Position(A)                                  Velocity(au)
C        -0.03280001    -0.03529543    -0.04828917    -0.00004637    -0.00012348    -0.00003244
N        -0.04315332    -0.00489310     1.35956885     0.00009898     0.00015268     0.00008183
H         0.86826584     0.24725486    -0.63707424    -0.00043547     0.00078151    -0.00036388
H         0.79942137    -0.36115809     1.94907501    -0.00057084    -0.00090352    -0.00068412
H        -0.90089792    -0.19240275     1.87819465    -0.00084629    -0.00037436     0.00036004
H        -0.98920622     0.12511910    -0.61578442     0.00102977    -0.00015384    -0.00006263
     6
  Step:    43            Position(A)                                  Velocity(au)
C        -0.03305380    -0.03597868    -0.04839518    -0.00004539    -0.00012458    -0.00000619
N        -0.04256586    -0.00404984     1.35996903     0.00011320     0.00015348     0.00006387
H         0.86589132     0.25161661    -0.63903160    -0.00042623     0.00080247    -0.00034520
H         0.79586745    -0.36608843     1.94496962    -0.00071467    -0.00088934    -0.00080184
H        -0.90574539    -0.19449301     1.88027945    -0.00090179    -0.00038158     0.00038962
H        -0.98356975     0.12420136    -0.61610420     0.00101051    -0.00017979    -0.00005638
     6
  Step:    44            Position(A)                                  Velocity(au)
C        -0.03330010    -0.03666787    -0.04835738    -0.00004366    -0.00012565     0.00001971
N        -0.04190622    -0.00320231     1.36027251     0.00012511     0.00015428     0.00004673
H         0.86357026     0.25609537    -0.64087718    -0.00041627     0.00082410    -0.00032326
H         0.79154805    -0.37095563     1.94024139    -0.00084770    -0.00088136    -0.00090957
H        -0.91083266    -0.19660653     1.88248691    -0.00093339    -0.00038270     0.00040454
H        -0.97807375     0.12313841    -0.61640559     0.00097904    -0.00020670    -0.00005594
     6