     6
  Step:   300            Position(A)                                  Velocity(au)
C        -0.04942747     0.00356275     0.02990608     0.00000339     0.00002147    -0.00004260
N        -0.05456571    -0.05086543     1.28595403    -0.00004374     0.00005306     0.00007145
H         0.05965418     0.99355695    -0.41525590    -0.00165737    -0.00008088    -0.00056770
H        -0.03625369    -0.88864806     1.87218132    -0.00130591     0.00017916     0.00018349
H         0.33797293     0.73077321     1.84500129     0.00191725    -0.00107037     0.00003666
H        -0.22707036    -0.84107374    -0.63631863     0.00161346    -0.00002102    -0.00013771
