 Fermi distribution function

Calculation with static geometry


********************************************************************************
 iSCC Total electronic   Diff electronic      SCC error    
   11   -0.53834979E+01   -0.14299673E-12    0.70776254E-07
********************************************************************************

 Total charge:     1.00000000

 Atomic gross charges (e)
 Atom           Charge
    1       0.27856578
    2      -0.16470290
    3       0.15768449
    4       0.30266728
    5       0.26775217
    6       0.15803319

Nr. of electrons (up):     12.00000000
Atom populations (up)
 Atom       Population
    1       3.72143422
    2       5.16470290
    3       0.84231551
    4       0.69733272
    5       0.73224783
    6       0.84196681

l-shell populations (up)
 Atom Sh.   l       Population
    1   1   0       1.30374386
    1   2   1       2.41769037
    2   1   0       1.42835456
    2   2   1       3.73634834
    3   1   0       0.84231551
    4   1   0       0.69733272
    5   1   0       0.73224783
    6   1   0       0.84196681

Orbital populations (up)
 Atom Sh.   l   m       Population  Label
    1   1   0   0       1.30374386  s
    1   2   1  -1       0.54501039  p_y
    1   2   1   0       0.89610323  p_z
    1   2   1   1       0.97657674  p_x
    2   1   0   0       1.42835456  s
    2   2   1  -1       1.33684630  p_y
    2   2   1   0       1.10626209  p_z
    2   2   1   1       1.29323995  p_x
    3   1   0   0       0.84231551  s
    4   1   0   0       0.69733272  s
    5   1   0   0       0.73224783  s
    6   1   0   0       0.84196681  s

Fermi level:                        -0.4922356696 H          -13.3944 eV
Band energy:                        -8.8810732716 H         -241.6663 eV
TS:                                  0.0000000000 H            0.0000 eV
Band free energy (E-TS):            -8.8810732716 H         -241.6663 eV
Extrapolated E(0K):                 -8.8810732716 H         -241.6663 eV
Input / Output electrons (q):     12.0000000000     12.0000000000

Energy H0:                          -5.5186246911 H         -150.1694 eV
Energy SCC:                          0.1351267805 H            3.6770 eV
Total Electronic energy:            -5.3834979106 H         -146.4924 eV
Repulsive energy:                    0.1914593995 H            5.2099 eV
Total energy:                       -5.1920385110 H         -141.2826 eV
Extrapolated to 0:                  -5.1920385110 H         -141.2826 eV
Total Mermin free energy:           -5.1920385110 H         -141.2826 eV
Force related energy:               -5.1920385110 H         -141.2826 eV

SCC converged

Excitation Energy:                   0.1015642348 H            2.7637 eV

Total Forces
    1     -0.016922445565      0.005654450895      0.013764503328
    2      0.010193494914      0.014262984221     -0.016337279012
    3     -0.000078250875     -0.015529539627      0.002768891933
    4     -0.006651783605      0.005816998033      0.005989385464
    5      0.006229340434     -0.017004879038     -0.004787478292
    6      0.007229644697      0.006799985515     -0.001398023421

Maximal derivative component:        0.170049E-01 au


