|===============================================================================
|
|  DFTB+ release 20.1
|
|  Copyright (C) 2006 - 2020  DFTB+ developers group
|
|===============================================================================
|
|  When publishing results obtained with DFTB+, please cite the following
|  reference:
|
|  * DFTB+, a software package for efficient approximate density functional
|    theory based atomistic simulations, J. Chem. Phys. 152, 124101 (2020).
|    [doi: 10.1063/1.5143190]
|
|  You should also cite additional publications crediting the parametrization
|  data you use. Please consult the documentation of the SK-files for the
|  references.
|
|===============================================================================

Reading input file 'dftb_in.hsd'
Parser version: 8

--------------------------------------------------------------------------------
Reading SK-files:
Done.


Processed input in HSD format written to 'dftb_pin.hsd'

Starting initialization...
--------------------------------------------------------------------------------
WARNING!
-> Excited state forces are not implemented yet for fractional occupations, kT=  0.3158E-02K
OpenMP threads:              1
Chosen random seed:          506584640
Mode:                        Static calculation
Self consistent charges:     Yes
SCC-tolerance:                 0.100000E-05
Max. scc iterations:                    100
Shell resolved Hubbard:      No
Spin polarisation:           No
Nr. of up electrons:             6.000000
Nr. of down electrons:           6.000000
Periodic boundaries:         No
Electronic solver:           Relatively robust
Mixer:                       Broyden mixer
Mixing parameter:                  0.200000
Maximal SCC-cycles:                     100
Nr. of chrg. vec. in memory:              0
Electronic temperature:        0.100000E-07 H      0.272114E-06 eV
Initial charges:             Set automatically (system chrg:   0.100E+01)
Included shells:             C:  s, p
                             N:  s, p
                             H:  s
Extra options:
                             Mulliken analysis
                             Force calculation
Force type                   original
                             Eigenvector printing

--------------------------------------------------------------------------------

***  Geometry step: 0

 iSCC Total electronic   Diff electronic      SCC error    
    1   -0.53706927E+01    0.00000000E+00    0.86051145E+00
    2   -0.53779969E+01   -0.73041331E-02    0.58312720E+00
    3   -0.53829413E+01   -0.49444515E-02    0.10586985E+00
    4   -0.53816099E+01    0.13314432E-02    0.20021068E+00
    5   -0.53834804E+01   -0.18705615E-02    0.23176835E-01
    6   -0.53834933E+01   -0.12869428E-04    0.12208068E-01
    7   -0.53834979E+01   -0.45899027E-05    0.25984632E-03
    8   -0.53834979E+01   -0.15840884E-08    0.15463566E-03
    9   -0.53834979E+01   -0.10024577E-08    0.23623982E-05
   10   -0.53834979E+01   -0.14566126E-12    0.18111190E-05
   11   -0.53834979E+01   -0.14299673E-12    0.70776254E-07
>> Charges saved for restart in charges.bin

Total Energy:                       -5.0904742762 H         -138.5189 eV
Extrapolated to 0:                  -5.1920385110 H         -141.2826 eV
Total Mermin free energy:           -5.0904742762 H         -138.5189 eV
Force related energy:               -5.1920385110 H         -141.2826 eV

--------------------------------------------------------------------------------
DFTB+ running times                          cpu [s]             wall clock [s]
--------------------------------------------------------------------------------
SCC                                    +     0.01  ( 60.2%)      0.03  ( 64.0%)
Post-SCC processing                    +     0.00  ( 31.1%)      0.01  ( 26.0%)
--------------------------------------------------------------------------------
Missing                                +     0.00  (  8.8%)      0.00  ( 10.0%)
Total                                  =     0.01  (100.0%)      0.05  (100.0%)
--------------------------------------------------------------------------------
