 Fermi distribution function

Calculation with static geometry


********************************************************************************
 iSCC Total electronic   Diff electronic      SCC error    
   10   -0.53966764E+01   -0.37925219E-12    0.24636837E-07
********************************************************************************

 Total charge:     1.00000000

 Atomic gross charges (e)
 Atom           Charge
    1       0.13801892
    2      -0.02684463
    3       0.19230972
    4       0.27421787
    5       0.26760932
    6       0.15468881

Nr. of electrons (up):     12.00000000
Atom populations (up)
 Atom       Population
    1       3.86198108
    2       5.02684463
    3       0.80769028
    4       0.72578213
    5       0.73239068
    6       0.84531119

l-shell populations (up)
 Atom Sh.   l       Population
    1   1   0       1.33168138
    1   2   1       2.53029970
    2   1   0       1.43998990
    2   2   1       3.58685473
    3   1   0       0.80769028
    4   1   0       0.72578213
    5   1   0       0.73239068
    6   1   0       0.84531119

Orbital populations (up)
 Atom Sh.   l   m       Population  Label
    1   1   0   0       1.33168138  s
    1   2   1  -1       0.59983459  p_y
    1   2   1   0       0.87288873  p_z
    1   2   1   1       1.05757638  p_x
    2   1   0   0       1.43998990  s
    2   2   1  -1       1.30526622  p_y
    2   2   1   0       1.11624354  p_z
    2   2   1   1       1.16534497  p_x
    3   1   0   0       0.80769028  s
    4   1   0   0       0.72578213  s
    5   1   0   0       0.73239068  s
    6   1   0   0       0.84531119  s

Fermi level:                        -0.5044761041 H          -13.7275 eV
Band energy:                        -8.9363101601 H         -243.1694 eV
TS:                                  0.0000000000 H            0.0000 eV
Band free energy (E-TS):            -8.9363101601 H         -243.1694 eV
Extrapolated E(0K):                 -8.9363101601 H         -243.1694 eV
Input / Output electrons (q):     12.0000000000     12.0000000000

Energy H0:                          -5.5310319370 H         -150.5070 eV
Energy SCC:                          0.1343555722 H            3.6560 eV
Total Electronic energy:            -5.3966763648 H         -146.8510 eV
Repulsive energy:                    0.1820654259 H            4.9543 eV
Total energy:                       -5.2146109389 H         -141.8968 eV
Extrapolated to 0:                  -5.2146109389 H         -141.8968 eV
Total Mermin free energy:           -5.2146109389 H         -141.8968 eV
Force related energy:               -5.2146109389 H         -141.8968 eV

SCC converged

Excitation Energy:                   0.1374176595 H            3.7393 eV

Total Forces
    1      0.004331576023     -0.012456000149      0.047324431835
    2      0.018265442501      0.011177586909     -0.046020612007
    3     -0.004367317581     -0.001326174926     -0.002472058085
    4     -0.013981448093      0.001818960900     -0.001068619000
    5     -0.002859981705     -0.002752637639      0.005858907650
    6     -0.001388271144      0.003538264905     -0.003622050394

Maximal derivative component:        0.473244E-01 au


