|===============================================================================
|
|  DFTB+ release 20.1
|
|  Copyright (C) 2006 - 2020  DFTB+ developers group
|
|===============================================================================
|
|  When publishing results obtained with DFTB+, please cite the following
|  reference:
|
|  * DFTB+, a software package for efficient approximate density functional
|    theory based atomistic simulations, J. Chem. Phys. 152, 124101 (2020).
|    [doi: 10.1063/1.5143190]
|
|  You should also cite additional publications crediting the parametrization
|  data you use. Please consult the documentation of the SK-files for the
|  references.
|
|===============================================================================

Reading input file 'dftb_in.hsd'
Parser version: 8

--------------------------------------------------------------------------------
Reading SK-files:
Done.


Processed input in HSD format written to 'dftb_pin.hsd'

Starting initialization...
--------------------------------------------------------------------------------
WARNING!
-> Excited state forces are not implemented yet for fractional occupations, kT=  0.3158E-02K
OpenMP threads:              1
Chosen random seed:          435692872
Mode:                        Static calculation
Self consistent charges:     Yes
SCC-tolerance:                 0.100000E-05
Max. scc iterations:                    100
Shell resolved Hubbard:      No
Spin polarisation:           No
Nr. of up electrons:             6.000000
Nr. of down electrons:           6.000000
Periodic boundaries:         No
Electronic solver:           Relatively robust
Mixer:                       Broyden mixer
Mixing parameter:                  0.200000
Maximal SCC-cycles:                     100
Nr. of chrg. vec. in memory:              0
Electronic temperature:        0.100000E-07 H      0.272114E-06 eV
Initial charges:             Set automatically (system chrg:   0.100E+01)
Included shells:             C:  s, p
                             N:  s, p
                             H:  s
Extra options:
                             Mulliken analysis
                             Force calculation
Force type                   original
                             Eigenvector printing

--------------------------------------------------------------------------------

***  Geometry step: 0

 iSCC Total electronic   Diff electronic      SCC error    
    1   -0.52925878E+01    0.00000000E+00    0.10003583E+01
    2   -0.53074373E+01   -0.14849437E-01    0.65132904E+00
    3   -0.53151034E+01   -0.76661008E-02    0.20298663E+00
    4   -0.52083988E+01    0.10670457E+00    0.11313832E+01
    5   -0.53170559E+01   -0.10865708E+00    0.19765443E-01
    6   -0.53170799E+01   -0.24029449E-04    0.17224453E-01
    7   -0.53170861E+01   -0.61607998E-05    0.11101867E-01
    8   -0.53170915E+01   -0.54450465E-05    0.56029402E-02
    9   -0.53170931E+01   -0.15861629E-05    0.28638476E-02
   10   -0.53170936E+01   -0.52692744E-06    0.78316116E-03
   11   -0.53170937E+01   -0.41822597E-07    0.14419226E-03
   12   -0.53170937E+01   -0.14771135E-08    0.20610698E-05
   13   -0.53170937E+01   -0.29576341E-12    0.76347875E-08
>> Charges saved for restart in charges.bin

Total Energy:                       -5.0666813103 H         -137.8714 eV
Extrapolated to 0:                  -5.1625638116 H         -140.4805 eV
Total Mermin free energy:           -5.0666813103 H         -137.8714 eV
Force related energy:               -5.1625638116 H         -140.4805 eV

--------------------------------------------------------------------------------
DFTB+ running times                          cpu [s]             wall clock [s]
--------------------------------------------------------------------------------
SCC                                    +     0.01  ( 61.3%)      0.04  ( 70.7%)
Post-SCC processing                    +     0.00  ( 31.8%)      0.01  ( 20.7%)
--------------------------------------------------------------------------------
Missing                                +     0.00  (  6.9%)      0.00  (  8.6%)
Total                                  =     0.01  (100.0%)      0.06  (100.0%)
--------------------------------------------------------------------------------
