     6
  Step:   300            Position(A)                                  Velocity(au)
C        -0.03390234     0.03394927     0.02169127     0.00015729    -0.00011500    -0.00000678
N        -0.05009548    -0.08534149     1.29680511    -0.00000497     0.00026669    -0.00002593
H         0.91528430     0.21490531    -0.46776203     0.00013522     0.00013808    -0.00059045
H         0.83292991    -0.19181127     1.80477791    -0.00032971    -0.00120468    -0.00007600
H        -0.90037615     0.20216681     1.79691934    -0.00076657    -0.00146326     0.00004636
H        -0.96064847    -0.11365091    -0.52123509    -0.00084418     0.00019421     0.00106117
