 Fermi distribution function

Calculation with static geometry


********************************************************************************
 iSCC Total electronic   Diff electronic      SCC error    
   10   -0.54235922E+01   -0.87929664E-13    0.60160469E-07
********************************************************************************

 Total charge:     1.00000000

 Atomic gross charges (e)
 Atom           Charge
    1       0.16938046
    2      -0.05240811
    3       0.15112965
    4       0.28428226
    5       0.26651222
    6       0.18110353

Nr. of electrons (up):     12.00000000
Atom populations (up)
 Atom       Population
    1       3.83061954
    2       5.05240811
    3       0.84887035
    4       0.71571774
    5       0.73348778
    6       0.81889647

l-shell populations (up)
 Atom Sh.   l       Population
    1   1   0       1.30080152
    1   2   1       2.52981802
    2   1   0       1.41512724
    2   2   1       3.63728087
    3   1   0       0.84887035
    4   1   0       0.71571774
    5   1   0       0.73348778
    6   1   0       0.81889647

Orbital populations (up)
 Atom Sh.   l   m       Population  Label
    1   1   0   0       1.30080152  s
    1   2   1  -1       0.59914559  p_y
    1   2   1   0       0.88604731  p_z
    1   2   1   1       1.04462511  p_x
    2   1   0   0       1.41512724  s
    2   2   1  -1       1.31252234  p_y
    2   2   1   0       1.12317740  p_z
    2   2   1   1       1.20158113  p_x
    3   1   0   0       0.84887035  s
    4   1   0   0       0.71571774  s
    5   1   0   0       0.73348778  s
    6   1   0   0       0.81889647  s

Fermi level:                        -0.4913521409 H          -13.3704 eV
Band energy:                        -8.9550931432 H         -243.6805 eV
TS:                                  0.0000000000 H            0.0000 eV
Band free energy (E-TS):            -8.9550931432 H         -243.6805 eV
Extrapolated E(0K):                 -8.9550931432 H         -243.6805 eV
Input / Output electrons (q):     12.0000000000     12.0000000000

Energy H0:                          -5.5577717212 H         -151.2347 eV
Energy SCC:                          0.1341795114 H            3.6512 eV
Total Electronic energy:            -5.4235922098 H         -147.5835 eV
Repulsive energy:                    0.1984074525 H            5.3989 eV
Total energy:                       -5.2251847573 H         -142.1845 eV
Extrapolated to 0:                  -5.2251847573 H         -142.1845 eV
Total Mermin free energy:           -5.2251847573 H         -142.1845 eV
Force related energy:               -5.2251847573 H         -142.1845 eV

SCC converged

Excitation Energy:                   0.1431172734 H            3.8944 eV

Total Forces
    1     -0.007393675506     -0.001672913606     -0.001706208070
    2      0.005435441546     -0.008186210308     -0.014059394926
    3     -0.002017891121      0.008559729556      0.004453136807
    4     -0.008648053007     -0.003755637986      0.000659459423
    5      0.004025582209      0.010176235878      0.007255433216
    6      0.008598595879     -0.005121203534      0.003397573549

Maximal derivative component:        0.140594E-01 au


