     6
  Step:     0            Position(A)                                  Velocity(au)
C        -0.03428947     0.01945264     0.01064372     0.00010549     0.00013775    -0.00004685
N        -0.03601641    -0.05463321     1.30994216    -0.00010731    -0.00014769     0.00008507
H         0.89857994    -0.02959879    -0.55568617    -0.00010377    -0.00038728     0.00006784
H         0.79831316    -0.11664938     1.83084941     0.00036926     0.00056168     0.00032133
H        -0.99703560    -0.08056168     1.79836526     0.00108147     0.00061258    -0.00040837
H        -1.00370362     0.08443527    -0.51173599    -0.00111289    -0.00037611    -0.00060470
     6
  Step:     1            Position(A)                                  Velocity(au)
C        -0.03371727     0.02024067     0.01005041     0.00010273     0.00015048    -0.00016983
N        -0.03668334    -0.05544237     1.31067527    -0.00013507    -0.00014830     0.00018239
H         0.89809409    -0.03180915    -0.55533557    -0.00007202    -0.00042112     0.00005910
H         0.80094428    -0.11371928     1.83303683     0.00058429     0.00051139     0.00047321
H        -0.99065776    -0.07728726     1.79602791     0.00123816     0.00058419    -0.00044001
H        -1.00977785     0.08229502    -0.51505428    -0.00109764    -0.00040683    -0.00060321
     6
  Step:     2            Position(A)                                  Velocity(au)
C        -0.03316577     0.02109874     0.00878603     0.00009795     0.00016320    -0.00029157
N        -0.03749392    -0.05625544     1.31193729    -0.00015937    -0.00014909     0.00027799
H         0.89779213    -0.03420534    -0.55503972    -0.00003656    -0.00045466     0.00004758
H         0.80470454    -0.11105539     1.83602577     0.00077876     0.00046456     0.00061237
H        -0.98349171    -0.07417134     1.79355209     0.00136664     0.00055482    -0.00045740
H        -1.01571046     0.07998502    -0.51833440    -0.00106150    -0.00043760    -0.00059129
     6
  Step:     3            Position(A)                                  Velocity(au)
C        -0.03264561     0.02202622     0.00686042     0.00009125     0.00017558    -0.00041058
N        -0.03842697    -0.05707359     1.31371672    -0.00017930    -0.00015002     0.00037076
H         0.89769409    -0.03678354    -0.55481501     0.00000246    -0.00048682     0.00003290
H         0.80946457    -0.10863655     1.83973674     0.00094634     0.00042161     0.00073498
H        -0.97570553    -0.07121706     1.79102354     0.00146087     0.00052495    -0.00045745
H        -1.02139158     0.07750727    -0.52152354    -0.00100562    -0.00046733    -0.00057013
     6
  Step:     4            Position(A)                                  Velocity(au)
C        -0.03216684     0.02302078     0.00429155     0.00008277     0.00018730    -0.00052513
N        -0.03945661    -0.05789764     1.31599586    -0.00019403    -0.00015097     0.00045934
H         0.89781911    -0.03953432    -0.55467962     0.00004481    -0.00051656     0.00001483
H         0.81506376    -0.10644014     1.84407132     0.00108168     0.00038267     0.00083773
H        -0.96750009    -0.06842496     1.78854461     0.00151487     0.00049499    -0.00043729
H        -1.02671858     0.07486931    -0.52457542    -0.00093151    -0.00049502    -0.00054087
     6
  Step:     5            Position(A)                                  Velocity(au)
C        -0.03173876     0.02407835     0.00110680     0.00007266     0.00019801    -0.00063325
N        -0.04055281    -0.05872773     1.31874945    -0.00020285    -0.00015180     0.00054213
H         0.89818510    -0.04244324    -0.55465256     0.00009013    -0.00054301    -0.00000664
H         0.82131603    -0.10444383     1.84891529     0.00118068     0.00034755     0.00091798
H        -0.95910786    -0.06579371     1.78623243     0.00152320     0.00046524    -0.00039459
H        -1.03159760     0.07208362    -0.52744957    -0.00084103    -0.00051977    -0.00050456
     6
  Step:     6            Position(A)                                  Velocity(au)
C        -0.03136967     0.02519311    -0.00265583     0.00006115     0.00020739    -0.00073285
N        -0.04168212    -0.05956307     1.32194356    -0.00020526    -0.00015233     0.00061744
H         0.89880794    -0.04549170    -0.55475248     0.00013787    -0.00056546    -0.00003129
H         0.82801689    -0.10262718     1.85414241     0.00124070     0.00031584     0.00097395
H        -0.95078913    -0.06332080     1.78421560     0.00148159     0.00043590    -0.00032783
H        -1.03594552     0.06916694    -0.53011088    -0.00073661    -0.00054085    -0.00046239
     6
  Step:     7            Position(A)                                  Velocity(au)
C        -0.03106666     0.02635760    -0.00694725     0.00004852     0.00021516    -0.00082187
N        -0.04280866    -0.06040180     1.32553519    -0.00020098    -0.00015234     0.00068362
H         0.89970033    -0.04865773    -0.55499645     0.00018727    -0.00058337    -0.00005871
H         0.83495139    -0.10097268     1.85961912     0.00126075     0.00028701     0.00100484
H        -0.94282507    -0.06100314     1.78262958     0.00138773     0.00040710    -0.00023662
H        -1.03969296     0.06613963    -0.53253125    -0.00062115    -0.00055766    -0.00041581
     6
  Step:     8            Position(A)                                  Velocity(au)
C        -0.03083529     0.02756286    -0.01170769     0.00003508     0.00022109    -0.00089852
N        -0.04389563    -0.06124094     1.32947271    -0.00019006    -0.00015169     0.00073924
H         0.90087043    -0.05191678    -0.55539914     0.00023729    -0.00059637    -0.00008833
H         0.84190238    -0.09946613     1.86520943     0.00124157     0.00026049     0.00101090
H        -0.93550518    -0.05883714     1.78160951     0.00124206     0.00037899    -0.00012207
H        -1.04278662     0.06302507    -0.53469045    -0.00049799    -0.00056975    -0.00036641
     6
  Step:     9            Position(A)                                  Velocity(au)
C        -0.03067929     0.02879869    -0.01686803     0.00002122     0.00022501    -0.00096141
N        -0.04490713    -0.06207662     1.33369730    -0.00017292    -0.00015023     0.00078330
H         0.90232030    -0.05524237    -0.55597171     0.00028670    -0.00060425    -0.00011939
H         0.84865982    -0.09809656     1.87078068     0.00118566     0.00023577     0.00099348
H        -0.92911123    -0.05681863     1.78128177     0.00104840     0.00035175     0.00001306
H        -1.04519133     0.05984886    -0.53657683    -0.00037076    -0.00057688    -0.00031588
     6
  Step:    10            Position(A)                                  Velocity(au)
C        -0.03060033     0.03005408    -0.02235228     0.00000733     0.00022685    -0.00100978
N        -0.04581020    -0.06290424     1.33814523    -0.00015038    -0.00014790     0.00081534
H         0.90404477    -0.05860691    -0.55672097     0.00033416    -0.00060701    -0.00015104
H         0.85502984    -0.09685573     1.87620909     0.00109716     0.00021245     0.00095498
H        -0.92389744    -0.05494260     1.78175408     0.00081420     0.00032562     0.00016430
H        -1.04689159     0.05663792    -0.53818783    -0.00024324    -0.00057903    -0.00026597
     6
  Step:    11            Position(A)                                  Velocity(au)
C        -0.03059787     0.03131767    -0.02808075    -0.00000618     0.00022668    -0.00104358
N        -0.04657698    -0.06371889     1.34275097    -0.00012358    -0.00014471     0.00083559
H         0.90603081    -0.06198269    -0.55764882     0.00037832    -0.00060490    -0.00018240
H         0.86084285    -0.09573747     1.88138491     0.00098156     0.00019026     0.00089868
H        -0.92007028    -0.05320296     1.78310618     0.00055009     0.00030083     0.00032583
H        -1.04789230     0.05341926    -0.53953016    -0.00011915    -0.00057645    -0.00021836
     6
  Step:    12            Position(A)                                  Velocity(au)
C        -0.03066911     0.03257842    -0.03397392    -0.00001893     0.00022467    -0.00106361
N        -0.04718644    -0.06451572     1.34745058    -0.00009391    -0.00014074     0.00084494
H         0.90825783    -0.06534321    -0.55875223     0.00041805    -0.00059841    -0.00021269
H         0.86596078    -0.09473691     1.88621709     0.00084533     0.00016905     0.00082857
H        -0.91777151    -0.05159249     1.78538268     0.00026894     0.00027764     0.00049108
H        -1.04821843     0.05021842    -0.54061954    -0.00000187    -0.00056971    -0.00017462
     6
  Step:    13            Position(A)                                  Velocity(au)
C        -0.03080920     0.03382632    -0.03995706    -0.00005410     0.00039092    -0.00189415
N        -0.04762560    -0.06529039     1.35218568    -0.00011113    -0.00024070     0.00149381
H         0.91069884    -0.06866461    -0.56002374     0.00080005    -0.00104005    -0.00042656
H         0.87028186    -0.09384987     1.89063677     0.00122925     0.00026296     0.00132409
H        -0.91706729    -0.05010282     1.78858967    -0.00002753     0.00045303     0.00115527
H        -1.04791319     0.04705782    -0.54148001     0.00018696    -0.00098940    -0.00024059
     6
  Step:    14            Position(A)                                  Velocity(au)
C        -0.03112732     0.03597012    -0.05019872    -0.00005746     0.00036626    -0.00172151
N        -0.04815737    -0.06660634     1.36027107    -0.00007693    -0.00022407     0.00136076
H         0.91542528    -0.07444307    -0.56281790     0.00086343    -0.00100145    -0.00055353
H         0.87670034    -0.09237672     1.89776965     0.00103308     0.00025746     0.00119232
H        -0.91803514    -0.04762836     1.79548515    -0.00030460     0.00042207     0.00127338
H        -1.04691092     0.04162963    -0.54303161     0.00016171    -0.00092888    -0.00030814
     6
  Step:    15            Position(A)                                  Velocity(au)
C        -0.03146054     0.03797817    -0.05947156    -0.00002897     0.00016725    -0.00075733
N        -0.04849770    -0.06783032     1.36761081    -0.00002150    -0.00010154     0.00060046
H         0.92048640    -0.08001668    -0.56629837     0.00044696    -0.00047167    -0.00032572
H         0.88199253    -0.09093141     1.90415252     0.00040668     0.00012338     0.00051720
H        -0.92052012    -0.04531832     1.80302431    -0.00027199     0.00019244     0.00067275
H        -1.04608008     0.03652836    -0.54497302     0.00006226    -0.00042611    -0.00018405
     6
  Step:    16            Position(A)                                  Velocity(au)
C        -0.03164578     0.03890477    -0.06370954    -0.00003605     0.00016123    -0.00074387
N        -0.04853028    -0.06838801     1.37095817     0.00000873    -0.00009624     0.00058566
H         0.92303249    -0.08262704    -0.56817569     0.00045263    -0.00045363    -0.00033831
H         0.88377706    -0.09029119     1.90679396     0.00022934     0.00010411     0.00042106
H        -0.92277178    -0.04427540     1.80721150    -0.00051240     0.00017808     0.00080398
H        -1.04549939     0.03416371    -0.54594061     0.00013867    -0.00041243    -0.00016132
     6
  Step:    17            Position(A)                                  Velocity(au)
C        -0.03186734     0.03979735    -0.06786452    -0.00004225     0.00015679    -0.00073558
N        -0.04839918    -0.06891623     1.37421875     0.00003652    -0.00009202     0.00057577
H         0.92559333    -0.08513491    -0.57011551     0.00045688    -0.00043978    -0.00035147
H         0.88458013    -0.08975672     1.90890326     0.00006107     0.00008667     0.00033288
H        -0.92630148    -0.04330912     1.81209548    -0.00072907     0.00016677     0.00092751
H        -1.04451552     0.03187503    -0.54679321     0.00020702    -0.00040331    -0.00014484
     6
  Step:    18            Position(A)                                  Velocity(au)
C        -0.03211997     0.04066454    -0.07196545    -0.00004751     0.00015350    -0.00073097
N        -0.04812041    -0.06942077     1.37742045     0.00006157    -0.00008855     0.00056970
H         0.92816040    -0.08756297    -0.57212047     0.00045880    -0.00042880    -0.00036465
H         0.88446254    -0.08931841     1.91053008    -0.00009799     0.00007037     0.00025214
H        -0.93095456    -0.04240368     1.81762154    -0.00091780     0.00015756     0.00104028
H        -1.04317584     0.02963704    -0.54756628     0.00026744    -0.00039778    -0.00013421
     6
  Step:    19            Position(A)                                  Velocity(au)
C        -0.03239822     0.04151269    -0.07603296    -0.00005172     0.00015093    -0.00072829
N        -0.04771117    -0.06990573     1.38058499     0.00008348    -0.00008553     0.00056613
H         0.93072027    -0.08992670    -0.57419034     0.00045723    -0.00041935    -0.00037708
H         0.88348507    -0.08897034     1.91172082    -0.00024671     0.00005465     0.00017873
H        -0.93655765    -0.04154844     1.82372038    -0.00107380     0.00014959     0.00113863
H        -1.04152688     0.02742993    -0.54829298     0.00031942    -0.00039477    -0.00012914
     6
  Step:    20            Position(A)                                  Velocity(au)
C        -0.03269608     0.04234575    -0.08007801    -0.00005476     0.00014870    -0.00072600
N        -0.04719049    -0.07037354     1.38372671     0.00010181    -0.00008272     0.00056391
H         0.93325356    -0.09223418    -0.57632090     0.00045120    -0.00041027    -0.00038808
H         0.88171432    -0.08870964     1.91252103    -0.00038296     0.00003911     0.00011316
H        -0.94291589    -0.04073736     1.83030507    -0.00119268     0.00014218     0.00121917
H        -1.03961771     0.02523956    -0.54900478     0.00036211    -0.00039344    -0.00012946
     6
  Step:    21            Position(A)                                  Velocity(au)
C        -0.03300689     0.04316568    -0.08410321    -0.00005651     0.00014657    -0.00072300
N        -0.04657948    -0.07082529     1.38685342     0.00011614    -0.00007994     0.00056214
H         0.93573585    -0.09448730    -0.57850419     0.00044008    -0.00040075    -0.00039708
H         0.87922805    -0.08853563     1.91297870    -0.00050404     0.00002347     0.00005635
H        -0.94981544    -0.03996794     1.83727262    -0.00127133     0.00013486     0.00127935
H        -1.03750170     0.02305647    -0.54973208     0.00039460    -0.00039316    -0.00013509
     6
  Step:    22            Position(A)                                  Velocity(au)
C        -0.03332343     0.04397299    -0.08810492    -0.00005689     0.00014434    -0.00071850
N        -0.04590104    -0.07126112     1.38996778     0.00012620    -0.00007708     0.00056015
H         0.93813948    -0.09668343    -0.58072943     0.00042356    -0.00039021    -0.00040376
H         0.87611835    -0.08844910     1.91314664    -0.00060706     0.00000756     0.00000946
H        -0.95703061    -0.03924014     1.84450879    -0.00130843     0.00012731     0.00131776
H        -1.03523675     0.02087458    -0.55050457     0.00041614    -0.00039354    -0.00014592
     6
  Step:    23            Position(A)                                  Velocity(au)
C        -0.03363814     0.04476723    -0.09207534    -0.00005588     0.00014192    -0.00071205
N        -0.04517928    -0.07168054     1.39306865     0.00013181    -0.00007406     0.00055747
H         0.94043550    -0.09881685    -0.58298410     0.00040166    -0.00037828    -0.00040794
H         0.87249238    -0.08845179     1.91308362    -0.00068932    -0.00000874    -0.00002635
H        -0.96433318    -0.03855536     1.85189396    -0.00130441     0.00011939     0.00133409
H        -1.03288436     0.01868996    -0.55135116     0.00042625    -0.00039434    -0.00016182
     6
  Step:    24            Position(A)                                  Velocity(au)
C        -0.03394334     0.04554737    -0.09600417    -0.00005348     0.00013924    -0.00070345
N        -0.04443882    -0.07208270     1.39615219     0.00013297    -0.00007085     0.00055378
H         0.94259534    -0.10087996    -0.58525491     0.00037466    -0.00036480    -0.00040962
H         0.86847124    -0.08854605     1.91285433    -0.00074858    -0.00002550    -0.00005005
H        -0.97150125    -0.03791571     1.85930874    -0.00126134     0.00011104     0.00132902
H        -1.03050813     0.01649996    -0.55229969     0.00042475    -0.00039545    -0.00018255
     6
  Step:    25            Position(A)                                  Velocity(au)
C        -0.03423151     0.04631209    -0.09987994    -0.00004976     0.00013630    -0.00069266
N        -0.04370405    -0.07246658     1.39921272     0.00012980    -0.00006744     0.00054888
H         0.94459228    -0.10286416    -0.58752869     0.00034307    -0.00034968    -0.00040893
H         0.86418709    -0.08873467     1.91252830    -0.00078323    -0.00004277    -0.00006092
H        -0.97832749    -0.03732338     1.86663908    -0.00118262     0.00010232     0.00130402
H        -1.02817187     0.01430249    -0.55337647     0.00041185    -0.00039688    -0.00020780
     6
  Step:    26            Position(A)                                  Velocity(au)
C        -0.03449551     0.04705998    -0.10369106    -0.00004480     0.00013311    -0.00067981
N        -0.04299834    -0.07283113     1.40224344     0.00012256    -0.00006385     0.00054268
H         0.94640263    -0.10476060    -0.58979310     0.00030756    -0.00033299    -0.00040613
H         0.85977930    -0.08902068     1.91217823    -0.00079246    -0.00006060    -0.00005860
H        -0.98462553    -0.03678017     1.87378027    -0.00107258     0.00009334     0.00126120
H        -1.02593763     0.01209558    -0.55460575     0.00038809    -0.00039865    -0.00023715
     6
  Step:    27            Position(A)                                  Velocity(au)
C        -0.03472884     0.04778971    -0.10742657    -0.00003875     0.00012969    -0.00066510
N        -0.04234346    -0.07317534     1.40523710     0.00011161    -0.00006009     0.00053518
H         0.94800658    -0.10656070    -0.59203721     0.00026891    -0.00031482    -0.00040153
H         0.85538990    -0.08940738     1.91187777    -0.00077629    -0.00007903    -0.00004314
H        -0.99023438    -0.03628715     1.88063987    -0.00093617     0.00008426     0.00120305
H        -1.02386362     0.00987700    -0.55600916     0.00035439    -0.00040087    -0.00027011
     6
  Step:    28            Position(A)                                  Velocity(au)
C        -0.03492586     0.04850016    -0.11107669    -0.00003179     0.00012611    -0.00064881
N        -0.04175900    -0.07349836     1.40818640     0.00009737    -0.00005619     0.00052644
H         0.94938874    -0.10825650    -0.59425194     0.00022795    -0.00029532    -0.00039551
H         0.85115886    -0.08989828     1.91169922    -0.00073560    -0.00009811    -0.00001501
H        -0.99502133    -0.03584449     1.88713969    -0.00077868     0.00007526     0.00113232
H        -1.02200227     0.00764403    -0.55760523     0.00031195    -0.00040366    -0.00030608
     6
  Step:    29            Position(A)                                  Velocity(au)
C        -0.03508190     0.04919044    -0.11463321    -0.00002408     0.00012240    -0.00063127
N        -0.04126193    -0.07379950     1.41108447     0.00008036    -0.00005220     0.00051657
H         0.95053851    -0.10984097    -0.59643032     0.00018555    -0.00027469    -0.00038848
H         0.84721927    -0.09049714     1.91171102    -0.00067209    -0.00011790     0.00002484
H        -0.99888347    -0.03545124     1.89321703    -0.00060543     0.00006653     0.00105182
H        -1.02039870     0.00539333    -0.55940894     0.00026220    -0.00040714    -0.00034442
     6
  Step:    30            Position(A)                                  Velocity(au)
C        -0.03519340     0.04985995    -0.11808960    -0.00001585     0.00011863    -0.00061277
N        -0.04086628    -0.07407825     1.41392511     0.00006112    -0.00004813     0.00050573
H         0.95145006    -0.11130806    -0.59856765     0.00014255    -0.00025309    -0.00038084
H         0.84369243    -0.09120804     1.91197519    -0.00058828    -0.00013845     0.00007506
H        -1.00174716    -0.03510538     1.89882463    -0.00042152     0.00005828     0.00096427
H        -1.01908947     0.00312095    -0.56143148     0.00020675    -0.00041143    -0.00038444
     6
  Step:    31            Position(A)                                  Velocity(au)
C        -0.03525796     0.05050838    -0.12144107    -0.00000729     0.00011483    -0.00059362
N        -0.04058294    -0.07433427     1.41670306     0.00004021    -0.00004403     0.00049408
H         0.95212228    -0.11265273    -0.60066144     0.00009977    -0.00023069    -0.00037299
H         0.84068351    -0.09203534     1.91254494    -0.00048737    -0.00015983     0.00013389
H        -1.00356655    -0.03480373     1.90393004    -0.00023172     0.00005071     0.00087223
H        -1.01810173     0.00082233    -0.56367999     0.00014732    -0.00041663    -0.00042540
     6
  Step:    32            Position(A)                                  Velocity(au)
C        -0.03527436     0.05113563    -0.12468439     0.00000139     0.00011104    -0.00057405
N        -0.04041955    -0.07456741     1.41941404     0.00001823    -0.00003991     0.00048178
H         0.95255849    -0.11387091    -0.60271139     0.00005796    -0.00020766    -0.00036530
H         0.83827799    -0.09298371     1.91346268    -0.00037312    -0.00018210     0.00019927
H        -1.00432146    -0.03454204     1.90851462    -0.00004039     0.00004399     0.00077802
H        -1.01745286    -0.00150759    -0.56615750     0.00008565    -0.00042281    -0.00046659
     6
  Step:    33            Position(A)                                  Velocity(au)
C        -0.03524256     0.05174185    -0.12781767     0.00000997     0.00010730    -0.00055426
N        -0.04038043    -0.07477763     1.42205474    -0.00000424    -0.00003580     0.00046899
H         0.95276610    -0.11495937    -0.60471918     0.00001781    -0.00018411    -0.00035809
H         0.83653885    -0.09405812     1.91475844    -0.00024973    -0.00020530     0.00026887
H        -1.00401521    -0.03431504     1.91257233     0.00014845     0.00003833     0.00068379
H        -1.01715032    -0.00387425    -0.56886290     0.00002350    -0.00043002    -0.00050726
     6
  Step:    34            Position(A)                                  Velocity(au)
C        -0.03516365     0.05232730    -0.13083991     0.00001827     0.00010362    -0.00053436
N        -0.04046659    -0.07496503     1.42462259    -0.00002660    -0.00003172     0.00045581
H         0.95275633    -0.11591559    -0.60668829    -0.00002002    -0.00016016    -0.00035167
H         0.83550457    -0.09526377     1.91644866    -0.00012165    -0.00022948     0.00034019
H        -1.00267278    -0.03411639     1.91610867     0.00033108     0.00003389     0.00059150
H        -1.01719192    -0.00628329    -0.57179099    -0.00003746    -0.00043828    -0.00054667
     6
  Step:    35            Position(A)                                  Velocity(au)
C        -0.03503975     0.05289235    -0.13375071     0.00002609     0.00010001    -0.00051443
N        -0.04067577    -0.07512977     1.42711564    -0.00004828    -0.00002767     0.00044233
H         0.95254380    -0.11673762    -0.60862379    -0.00005497    -0.00013589    -0.00034629
H         0.83518820    -0.09660600     1.91853559     0.00000657    -0.00025464     0.00041069
H        -1.00033925    -0.03393875     1.91913979     0.00050398     0.00003088     0.00050297
H        -1.01756622    -0.00874050    -0.57493265    -0.00009562    -0.00044760    -0.00058414
     6
  Step:    36            Position(A)                                  Velocity(au)
C        -0.03487401     0.05343740    -0.13655011     0.00003328     0.00009648    -0.00049454
N        -0.04100252    -0.07527214     1.42953245    -0.00006872    -0.00002368     0.00042863
H         0.95214621    -0.11742394    -0.61053213    -0.00008649    -0.00011135    -0.00034218
H         0.83557748    -0.09809024     1.92100730     0.00013047    -0.00028079     0.00047785
H        -0.99707855    -0.03377367     1.92169168     0.00066385     0.00002948     0.00041992
H        -1.01825329    -0.01125164    -0.57827495    -0.00014953    -0.00045796    -0.00061898
     6
  Step:    37            Position(A)                                  Velocity(au)
C        -0.03467040     0.05396294    -0.13923865     0.00003969     0.00009303    -0.00047478
N        -0.04143836    -0.07539250     1.43187214    -0.00008739    -0.00001976     0.00041481
H         0.95158398    -0.11797329    -0.61242095    -0.00011413    -0.00008658    -0.00033952
H         0.83663603    -0.09972192     1.92383831     0.00024590    -0.00030793     0.00053933
H        -0.99297246    -0.03361159     1.92379963     0.00080751     0.00002993     0.00034398
H        -1.01922554    -0.01382249    -0.58180151    -0.00019790    -0.00046936    -0.00065060
     6
  Step:    38            Position(A)                                  Velocity(au)
C        -0.03443368     0.05446947    -0.14181750     0.00004518     0.00008967    -0.00045525
N        -0.04197200    -0.07549136     1.43413448    -0.00010380    -0.00001594     0.00040097
H         0.95087997    -0.11838450    -0.61429890    -0.00013748    -0.00006157    -0.00033851
H         0.83830554    -0.10150650     1.92699073     0.00034916    -0.00033607     0.00059302
H        -0.98811984    -0.03344159     1.92550787     0.00093194     0.00003249     0.00027674
H        -1.02044885    -0.01645887    -0.58549291    -0.00023966    -0.00048184    -0.00067849
     6
  Step:    39            Position(A)                                  Velocity(au)
C        -0.03416922     0.05495756    -0.14428818     0.00004967     0.00008642    -0.00043598
N        -0.04258967    -0.07556935     1.43631960    -0.00011754    -0.00001225     0.00038714
H         0.95005911    -0.11865622    -0.61617563    -0.00015616    -0.00003624    -0.00033933
H         0.84050885    -0.10344957     1.93041599     0.00043719    -0.00036529     0.00063720
H        -0.98263561    -0.03325118     1.92686919     0.00103435     0.00003751     0.00021972
H        -1.02188376    -0.01916694    -0.58932719    -0.00027397    -0.00049551    -0.00070225
     6
  Step:    40            Position(A)                                  Velocity(au)
C        -0.03388284     0.05542780    -0.14665232     0.00005309     0.00008327    -0.00041693
N        -0.04327544    -0.07562721     1.43842768    -0.00012827    -0.00000870     0.00037327
H         0.94914823    -0.11878639    -0.61806189    -0.00016982    -0.00001035    -0.00034223
H         0.84315379    -0.10555739     1.93405697     0.00050765    -0.00039582     0.00067051
H        -0.97664935    -0.03302564     1.92794444     0.00111228     0.00004553     0.00017431
H        -1.02348702    -0.02195388    -0.59328056    -0.00030031    -0.00051072    -0.00072163
     6
  Step:    41            Position(A)                                  Velocity(au)
C        -0.03358061     0.05588082    -0.14891093     0.00005541     0.00008024    -0.00039777
N        -0.04401183    -0.07566580     1.44045835    -0.00013576    -0.00000530     0.00035913
H         0.94817620    -0.11877101    -0.61997015    -0.00017790     0.00001683    -0.00034784
H         0.84613754    -0.10783833     1.93785040     0.00055907    -0.00042856     0.00069206
H        -0.97030307    -0.03274637     1.92880189     0.00116380     0.00005782     0.00014183
H        -1.02521345    -0.02482962    -0.59732839    -0.00031868    -0.00052857    -0.00073673
     6
  Step:    42            Position(A)                                  Velocity(au)
C        -0.03326859     0.05631736    -0.15106204     0.00005677     0.00007748    -0.00037564
N        -0.04478046    -0.07568601     1.44240896    -0.00014011    -0.00000205     0.00034268
H         0.94717601    -0.11859979    -0.62191798    -0.00017662     0.00004968    -0.00036102
H         0.84935163    -0.11030839     1.94172915     0.00059148    -0.00046939     0.00070142
H        -0.96374754    -0.03238467     1.92951680     0.00118820     0.00008180     0.00012426
H        -1.02701989    -0.02781358    -0.60144789    -0.00033266    -0.00055676    -0.00075057
     6
  Step:    43            Position(A)                                  Velocity(au)
C        -0.03295130     0.05673958    -0.15307464     0.00005948     0.00008010    -0.00033120
N        -0.04556480    -0.07568857     1.44425676    -0.00014623     0.00000086     0.00031448
H         0.94621846    -0.11822031    -0.62397178    -0.00013599     0.00003877    -0.00044427
H         0.85269370    -0.11304115     1.94562518     0.00063377    -0.00049651     0.00073882
H        -0.95713266    -0.03183972     1.93017917     0.00122805     0.00009748     0.00013157
H        -1.02890074    -0.03100088    -0.60564795    -0.00040262    -0.00060629    -0.00084970
     6
  Step:    44            Position(A)                                  Velocity(au)
C        -0.03262446     0.05717474    -0.15487174     0.00005805     0.00007705    -0.00031677
N        -0.04636918    -0.07567584     1.44596796    -0.00014253     0.00000365     0.00030248
H         0.94545607    -0.11796811    -0.62643375    -0.00013621     0.00005656    -0.00044674
H         0.85620096    -0.11583725     1.94969350     0.00062254    -0.00051788     0.00072325
H        -0.95039352    -0.03130059     1.93090816     0.00119045     0.00010384     0.00013951
H        -1.03110156    -0.03435862    -0.61034850    -0.00038792    -0.00061135    -0.00084475
     6