|===============================================================================
|
|  DFTB+ release 20.1
|
|  Copyright (C) 2006 - 2020  DFTB+ developers group
|
|===============================================================================
|
|  When publishing results obtained with DFTB+, please cite the following
|  reference:
|
|  * DFTB+, a software package for efficient approximate density functional
|    theory based atomistic simulations, J. Chem. Phys. 152, 124101 (2020).
|    [doi: 10.1063/1.5143190]
|
|  You should also cite additional publications crediting the parametrization
|  data you use. Please consult the documentation of the SK-files for the
|  references.
|
|===============================================================================

Reading input file 'dftb_in.hsd'
Parser version: 8

--------------------------------------------------------------------------------
Reading SK-files:
Done.


Processed input in HSD format written to 'dftb_pin.hsd'

Starting initialization...
--------------------------------------------------------------------------------
OpenMP threads:              1
Chosen random seed:          281248627
Mode:                        Static calculation
Self consistent charges:     Yes
SCC-tolerance:                 0.100000E-05
Max. scc iterations:                    100
Shell resolved Hubbard:      No
Spin polarisation:           No
Nr. of up electrons:            16.000000
Nr. of down electrons:          16.000000
Periodic boundaries:         No
Electronic solver:           Relatively robust
Mixer:                       Broyden mixer
Mixing parameter:                  0.200000
Maximal SCC-cycles:                     100
Nr. of chrg. vec. in memory:              0
Electronic temperature:        0.100000E-07 H      0.272114E-06 eV
Initial charges:             Set automatically (system chrg:   0.100E+01)
Included shells:             C:  s, p
                             H:  s
                             N:  s, p
Extra options:
                             Mulliken analysis
                             Force calculation
Force type                   original
                             Eigenvector printing

--------------------------------------------------------------------------------

***  Geometry step: 0

 iSCC Total electronic   Diff electronic      SCC error    
    1   -0.14124793E+02    0.00000000E+00    0.41456625E+00
    2   -0.14138995E+02   -0.14201779E-01    0.31814837E+00
    3   -0.14145559E+02   -0.65641753E-02    0.18674476E+00
    4   -0.14146349E+02   -0.78993410E-03    0.31828996E-01
    5   -0.14146396E+02   -0.47086504E-04    0.10328095E-01
    6   -0.14146415E+02   -0.18559485E-04    0.39768829E-02
    7   -0.14146416E+02   -0.13764540E-05    0.47529974E-03
    8   -0.14146416E+02   -0.64322716E-08    0.32419218E-03
    9   -0.14146416E+02   -0.13062795E-07    0.42687760E-04
   10   -0.14146416E+02   -0.13272050E-09    0.94972421E-05
   11   -0.14146416E+02   -0.10530243E-10    0.15297051E-05
   12   -0.14146416E+02   -0.73008266E-12    0.23916570E-06
>> Charges saved for restart in charges.bin

Total Energy:                      -13.6543652194 H         -371.5542 eV
Extrapolated to 0:                 -13.6543652194 H         -371.5542 eV
Total Mermin free energy:          -13.6543652194 H         -371.5542 eV
Force related energy:              -13.6543652194 H         -371.5542 eV

--------------------------------------------------------------------------------
DFTB+ running times                          cpu [s]             wall clock [s]
--------------------------------------------------------------------------------
SCC                                    +     0.04  ( 85.8%)      0.07  ( 89.2%)
--------------------------------------------------------------------------------
Missing                                +     0.01  ( 14.2%)      0.01  ( 10.8%)
Total                                  =     0.04  (100.0%)      0.08  (100.0%)
--------------------------------------------------------------------------------
