 Fermi distribution function

Calculation with static geometry


********************************************************************************
 iSCC Total electronic   Diff electronic      SCC error    
   10   -0.54121490E+01   -0.16431301E-12    0.10551916E-06
********************************************************************************

 Total charge:     1.00000000

 Atomic gross charges (e)
 Atom           Charge
    1       0.17564746
    2      -0.06331867
    3       0.15216513
    4       0.27661049
    5       0.27497699
    6       0.18391860

Nr. of electrons (up):     12.00000000
Atom populations (up)
 Atom       Population
    1       3.82435254
    2       5.06331867
    3       0.84783487
    4       0.72338951
    5       0.72502301
    6       0.81608140

l-shell populations (up)
 Atom Sh.   l       Population
    1   1   0       1.32017634
    1   2   1       2.50417619
    2   1   0       1.42499077
    2   2   1       3.63832790
    3   1   0       0.84783487
    4   1   0       0.72338951
    5   1   0       0.72502301
    6   1   0       0.81608140

Orbital populations (up)
 Atom Sh.   l   m       Population  Label
    1   1   0   0       1.32017634  s
    1   2   1  -1       0.59179547  p_y
    1   2   1   0       0.87371768  p_z
    1   2   1   1       1.03866304  p_x
    2   1   0   0       1.42499077  s
    2   2   1  -1       1.33289984  p_y
    2   2   1   0       1.10459113  p_z
    2   2   1   1       1.20083693  p_x
    3   1   0   0       0.84783487  s
    4   1   0   0       0.72338951  s
    5   1   0   0       0.72502301  s
    6   1   0   0       0.81608140  s

Fermi level:                        -0.4946136950 H          -13.4591 eV
Band energy:                        -8.9179645848 H         -242.6702 eV
TS:                                  0.0000000000 H            0.0000 eV
Band free energy (E-TS):            -8.9179645848 H         -242.6702 eV
Extrapolated E(0K):                 -8.9179645848 H         -242.6702 eV
Input / Output electrons (q):     12.0000000000     12.0000000000

Energy H0:                          -5.5449796800 H         -150.8866 eV
Energy SCC:                          0.1328306412 H            3.6145 eV
Total Electronic energy:            -5.4121490389 H         -147.2721 eV
Repulsive energy:                    0.1830770333 H            4.9818 eV
Total energy:                       -5.2290720055 H         -142.2903 eV
Extrapolated to 0:                  -5.2290720055 H         -142.2903 eV
Total Mermin free energy:           -5.2290720055 H         -142.2903 eV
Force related energy:               -5.2290720055 H         -142.2903 eV

SCC converged

Excitation Energy:                   0.1494445279 H            4.0666 eV

Total Forces
    1     -0.004655173751     -0.002624656596      0.044917990436
    2      0.001464242139      0.001447253677     -0.058084971321
    3     -0.004970194333      0.005627735415      0.002204893093
    4     -0.007567036112     -0.005387926335      0.002003351903
    5      0.005836992034      0.007947407487      0.006774855905
    6      0.009891170022     -0.007009813648      0.002183879985

Maximal derivative component:        0.580850E-01 au


