     6
  Step:   300            Position(A)                                  Velocity(au)
C        -0.07269859     0.00961649     0.01907948    -0.00005359    -0.00004059    -0.00003719
N         0.01315608    -0.05676934     1.29967939     0.00012598     0.00002018     0.00008749
H         0.01576101    -0.84270562    -0.66416228     0.00115359     0.00004435    -0.00009890
H        -0.21545755     0.76325117     1.86498235     0.00079753     0.00025086     0.00004135
H        -0.15583296    -0.92229095     1.82616959    -0.00183756    -0.00003528    -0.00074240
H        -0.17397064     1.00627452    -0.42311736    -0.00122556    -0.00005677     0.00002734
