     6
  Step:     0            Position(A)                                  Velocity(au)
C        -0.04405741     0.01690862     0.03194244     0.00004555     0.00000783     0.00021959
N        -0.03573769    -0.04114642     1.29151475    -0.00010272     0.00001823    -0.00025881
H         0.91872453    -0.05808431    -0.51322053    -0.00054919     0.00004847     0.00027976
H         0.80053858    -0.15766803     1.79285662    -0.00018242    -0.00022590     0.00015324
H        -0.96548797    -0.13033426     1.84964592     0.00110058     0.00006337     0.00015944
H        -0.94509895     0.04660893    -0.56521221     0.00051559    -0.00023252     0.00038736
     6
  Step:     1            Position(A)                                  Velocity(au)
C        -0.04380067     0.01696088     0.03295215     0.00004845     0.00001138     0.00014889
N        -0.03637458    -0.04104731     1.29027766    -0.00012949     0.00001799    -0.00019261
H         0.91584013    -0.05784006    -0.51188532    -0.00050173     0.00004058     0.00020637
H         0.80012045    -0.15900994     1.79418627     0.00002610    -0.00026464     0.00033011
H        -0.95896736    -0.12998359     1.85029419     0.00127695     0.00006436     0.00008094
H        -0.94252650     0.04535615    -0.56336644     0.00042069    -0.00022583     0.00028491
     6
  Step:     2            Position(A)                                  Velocity(au)
C        -0.04352763     0.01703302     0.03357034     0.00005160     0.00001511     0.00007686
N        -0.03715353    -0.04094971     1.28940882    -0.00015459     0.00001770    -0.00012462
H         0.91323870    -0.05764065    -0.51096415    -0.00044688     0.00003216     0.00012874
H         0.80082396    -0.16056158     1.79646596     0.00022491    -0.00030263     0.00049933
H        -0.95152617    -0.12963060     1.85053093     0.00143781     0.00006413     0.00001031
H        -0.94049927     0.04413977    -0.56209712     0.00031752    -0.00021961     0.00017740
     6
  Step:     3            Position(A)                                  Velocity(au)
C        -0.04323702     0.01712590     0.03379178     0.00005497     0.00001898     0.00000400
N        -0.03806341    -0.04085392     1.28891630    -0.00017737     0.00001735    -0.00005526
H         0.91095822    -0.05748870    -0.51047888    -0.00038536     0.00002328     0.00004712
H         0.80257743    -0.16231594     1.79964117     0.00040820    -0.00033893     0.00065696
H        -0.94326011    -0.12928299     1.85040683     0.00157936     0.00006228    -0.00004977
H        -0.93905776     0.04295703    -0.56142843     0.00020752    -0.00021389     0.00006580
     6
  Step:     4            Position(A)                                  Velocity(au)
C        -0.04292763     0.01724018     0.03361400     0.00005853     0.00002295    -0.00006914
N        -0.03908967    -0.04076027     1.28880566    -0.00019716     0.00001695     0.00001494
H         0.90903223    -0.05738648    -0.51044980    -0.00031796     0.00001401    -0.00003815
H         0.80527984    -0.16426126     1.80363726     0.00057086    -0.00037264     0.00079937
H        -0.93428615    -0.12895077     1.84998769     0.00169710     0.00005834    -0.00009636
H        -0.93823405     0.04180501    -0.56137886     0.00009231    -0.00020863    -0.00004876
     6
  Step:     5            Position(A)                                  Velocity(au)
C        -0.04259852     0.01737628     0.03303757     0.00006222     0.00002697    -0.00014188
N        -0.04021430    -0.04066905     1.28907931    -0.00021330     0.00001649     0.00008527
H         0.90748946    -0.05733588    -0.51089502    -0.00024566     0.00000442    -0.00012649
H         0.80880514    -0.16638115     1.80836168     0.00070852    -0.00040285     0.00092327
H        -0.92474597    -0.12864654     1.84935566     0.00178593     0.00005182    -0.00012631
H        -0.93805072     0.04068097    -0.56196033    -0.00002616    -0.00020379    -0.00016486
     6
  Step:     6            Position(A)                                  Velocity(au)
C        -0.04224907     0.01753431     0.03206669     0.00006595     0.00003096    -0.00021342
N        -0.04141593    -0.04058048     1.28973560    -0.00022516     0.00001599     0.00015482
H         0.90635304    -0.05733827    -0.51182930    -0.00016963    -0.00000537    -0.00021710
H         0.81300691    -0.16865473     1.81370630     0.00081770    -0.00042873     0.00102586
H        -0.91480897    -0.12838567     1.84861020     0.00184038     0.00004220    -0.00013636
H        -0.93851935     0.03958251    -0.56317677    -0.00014561    -0.00019926    -0.00028078
     6
  Step:     7            Position(A)                                  Velocity(au)
C        -0.04187920     0.01771399     0.03070994     0.00006962     0.00003485    -0.00028280
N        -0.04266993    -0.04049463     1.29076782    -0.00023213     0.00001550     0.00022248
H         0.90563937    -0.05739440    -0.51326274    -0.00009130    -0.00001521    -0.00030884
H         0.81772322    -0.17105703     1.81955005     0.00089584    -0.00044950     0.00110488
H        -0.90467411    -0.12818632     1.84786849     0.00185501     0.00002900    -0.00012339
H        -0.93963881     0.03850778    -0.56502256    -0.00026343    -0.00019493    -0.00039448
     6
  Step:     8            Position(A)                                  Velocity(au)
C        -0.04148945     0.01791461     0.02898097     0.00007308     0.00003855    -0.00034894
N        -0.04394878    -0.04041137     1.29216312    -0.00023376     0.00001504     0.00028698
H         0.90535684    -0.05750424    -0.51519916    -0.00001234    -0.00002495    -0.00040033
H         0.82278160    -0.17355934     1.82576187     0.00094146    -0.00046452     0.00115874
H        -0.89456855    -0.12806922     1.84726391     0.00182503     0.00001183    -0.00008475
H        -0.94139365     0.03745557    -0.56748099    -0.00037672    -0.00019068    -0.00050367
     6
  Step:     9            Position(A)                                  Velocity(au)
C        -0.04108107     0.01813497     0.02689923     0.00007621     0.00004195    -0.00041068
N        -0.04522274    -0.04033036     1.29390183    -0.00022973     0.00001467     0.00034696
H         0.90550455    -0.05766684    -0.51763458     0.00006533    -0.00003438    -0.00048988
H         0.82800464    -0.17612995     1.83220431     0.00095423    -0.00047332     0.00118664
H        -0.88474342    -0.12805715     1.84694291     0.00174702    -0.00000959    -0.00001872
H        -0.94375285     0.03642540    -0.57052299    -0.00048246    -0.00018638    -0.00060591
     6
  Step:    10            Position(A)                                  Velocity(au)
C        -0.04065610     0.01837336     0.02449024     0.00007886     0.00004497    -0.00046685
N        -0.04646079    -0.04025100     1.29595707    -0.00021995     0.00001441     0.00040109
H         0.90607124    -0.05788021    -0.52055589     0.00013970    -0.00004331    -0.00057566
H         0.83321594    -0.17873502     1.83873755     0.00093498    -0.00047563     0.00118862
H        -0.87546518    -0.12817406     1.84705920     0.00161966    -0.00003529     0.00007509
H        -0.94666925     0.03541756    -0.57410647    -0.00057764    -0.00018190    -0.00069874
     6
  Step:    11            Position(A)                                  Velocity(au)
C        -0.04021731     0.01862754     0.02178571     0.00008090     0.00004751    -0.00051633
N        -0.04763189    -0.04017248     1.29829501    -0.00020460     0.00001432     0.00044813
H         0.90703469    -0.05814122    -0.52393996     0.00020868    -0.00005152    -0.00065575
H         0.83824565    -0.18133958     1.84522352     0.00088560    -0.00047137     0.00116554
H        -0.86700293    -0.12844372     1.84776537     0.00144431    -0.00006506     0.00019530
H        -0.95007986     0.03443305    -0.57817643    -0.00065944    -0.00017712    -0.00077984
     6
  Step:    12            Position(A)                                  Velocity(au)
C        -0.03976820     0.01889481     0.01882312     0.00008220     0.00004949    -0.00055815
N        -0.04870643    -0.04009383     1.30087558    -0.00018415     0.00001440     0.00048708
H         0.90836167    -0.05844565    -0.52775325     0.00027031    -0.00005880    -0.00072825
H         0.84293605    -0.18390862     1.85153017     0.00080906    -0.00046072     0.00111910
H        -0.85961291    -0.12888814     1.84920270     0.00122545    -0.00009834     0.00033849
H        -0.95390704     0.03347358    -0.58266573    -0.00072541    -0.00017194    -0.00084716
     6
  Step:    13            Position(A)                                  Velocity(au)
C        -0.03931292     0.01917202     0.01564504     0.00008268     0.00005085    -0.00059150
N        -0.04965790    -0.04001403     1.30365382    -0.00015936     0.00001466     0.00051725
H         0.91000859    -0.05878818    -0.53195199     0.00032281    -0.00006499    -0.00079136
H         0.84714679    -0.18640832     1.85753561     0.00070916    -0.00044405     0.00105168
H        -0.85352071    -0.12952566     1.85148937     0.00097080    -0.00013424     0.00049914
H        -0.95806073     0.03254144    -0.58749675    -0.00077365    -0.00016627    -0.00089907
     6
  Step:    14            Position(A)                                  Velocity(au)
C        -0.03885609     0.01945571     0.01229810     0.00008227     0.00005153    -0.00061582
N        -0.05046435    -0.03993212     1.30658151    -0.00013123     0.00001507     0.00053827
H         0.91192273    -0.05916252    -0.53648299     0.00036475    -0.00006991    -0.00084356
H         0.85075903    -0.18880707     1.86313162     0.00059039    -0.00042194     0.00096631
H        -0.84890377    -0.13036900     1.85470883     0.00069092    -0.00017154     0.00066980
H        -0.96244141     0.03163943    -0.59258366    -0.00080289    -0.00016005    -0.00093445
     6
  Step:    15            Position(A)                                  Velocity(au)
C        -0.03840270     0.01974217     0.00883174     0.00008093     0.00005153    -0.00063084
N        -0.05110978    -0.03984730     1.30960910    -0.00010098     0.00001559     0.00055017
H         0.91404413    -0.05956162    -0.54128495     0.00039511    -0.00007346    -0.00088365
H         0.85367873    -0.19107656     1.86822672     0.00045772    -0.00039514     0.00086650
H        -0.84587649    -0.13142358     1.85889991     0.00039862    -0.00020878     0.00084166
H        -0.96694378     0.03077072    -0.59783530    -0.00081266    -0.00015324    -0.00095280
     6
  Step:    16            Position(A)                                  Velocity(au)
C        -0.03795786     0.02002760     0.00529660     0.00007868     0.00005084    -0.00063663
N        -0.05158511    -0.03975906     1.31268767    -0.00006995     0.00001617     0.00055337
H         0.91630796    -0.05997787    -0.54629045     0.00041340    -0.00007560    -0.00091096
H         0.85583921    -0.19319269     1.87274873     0.00031647    -0.00036461     0.00075617
H        -0.84447957    -0.13268623     1.86405018     0.00010782    -0.00024437     0.00100532
H        -0.97146098     0.02993867    -0.60315856    -0.00080334    -0.00014585    -0.00095435
     6
  Step:    17            Position(A)                                  Velocity(au)
C        -0.03752657     0.02030825     0.00174273     0.00007558     0.00004950    -0.00063370
N        -0.05188866    -0.03966724     1.31577101    -0.00003947     0.00001675     0.00054872
H         0.91864741    -0.06040341    -0.55142870     0.00041973    -0.00007633    -0.00092546
H         0.85720271    -0.19513662     1.87664691     0.00017198    -0.00033146     0.00063954
H        -0.84467585    -0.13414475     1.87009435    -0.00016778    -0.00027680     0.00115191
H        -0.97588915     0.02914659    -0.60846218    -0.00077618    -0.00013797    -0.00094011
     6
  Step:    18            Position(A)                                  Velocity(au)
C        -0.03711347     0.02058064    -0.00178278     0.00007176     0.00004761    -0.00062305
N        -0.05202605    -0.03957199     1.31881773    -0.00001077     0.00001727     0.00053748
H         0.92099702    -0.06083055    -0.55662926     0.00041488    -0.00007575    -0.00092797
H         0.85776044    -0.19689561     1.87989334     0.00002929    -0.00029694     0.00052088
H        -0.84635396    -0.13577854     1.87691879    -0.00041628    -0.00030485     0.00127430
H        -0.98013209     0.02839735    -0.61366102    -0.00073334    -0.00012973    -0.00091198
     6
  Step:    19            Position(A)                                  Velocity(au)
C        -0.03672254     0.02084172    -0.00523845     0.00006737     0.00004527    -0.00060617
N        -0.05200938    -0.03947375     1.32179338     0.00001516     0.00001771     0.00052125
H         0.92329609    -0.06125217    -0.56182642     0.00040020    -0.00007404    -0.00092015
H         0.85753091    -0.19846378     1.88248325    -0.00010724    -0.00026237     0.00040426
H        -0.84934019    -0.13756048     1.88437261    -0.00062889    -0.00032776     0.00136802
H        -0.98410603     0.02769303    -0.61868070    -0.00067769    -0.00012134    -0.00087261
     6
  Step:    20            Position(A)                                  Velocity(au)
C        -0.03635678     0.02108912    -0.00859094     0.00006263     0.00004263    -0.00058486
N        -0.05185574    -0.03937310     1.32467220     0.00003770     0.00001806     0.00050185
H         0.92549186    -0.06166215    -0.56696396     0.00037746    -0.00007144    -0.00090439
H         0.85655599    -0.19984244     1.88443381    -0.00023435    -0.00022902     0.00029319
H        -0.85341739    -0.13945979     1.89228369    -0.00080079    -0.00034539     0.00143172
H        -0.98774357     0.02703457    -0.62346177    -0.00061252    -0.00011305    -0.00082520
     6
  Step:    21            Position(A)                                  Velocity(au)
C        -0.03601809     0.02132120    -0.01181687     0.00005773     0.00003982    -0.00056104
N        -0.05158537    -0.03927060     1.32743809     0.00005653     0.00001835     0.00048104
H         0.92754169    -0.06205570    -0.57199894     0.00034856    -0.00006820    -0.00088343
H         0.85489496    -0.20103980     1.88578097    -0.00035004    -0.00019798     0.00019028
H        -0.85834744    -0.14144542     1.90047642    -0.00093104    -0.00035811     0.00146680
H        -0.99099563     0.02642145    -0.62796244    -0.00054104    -0.00010512    -0.00077299
     6
  Step:    22            Position(A)                                  Velocity(au)
C        -0.03570726     0.02153712    -0.01490333     0.00005159     0.00003887    -0.00059054
N        -0.05121969    -0.03916666     1.33008446     0.00007347     0.00001761     0.00050364
H         0.92941361    -0.06242947    -0.57690359     0.00028711    -0.00010719    -0.00081696
H         0.85261760    -0.20206996     1.88657465    -0.00047425    -0.00012444     0.00008599
H        -0.86389272    -0.14348893     1.90878697    -0.00101336    -0.00041838     0.00144392
H        -0.99383089     0.02585183    -0.63215882    -0.00043539    -0.00005787    -0.00067489
     6
  Step:    23            Position(A)                                  Velocity(au)
C        -0.03543802     0.02175822    -0.01845618     0.00004478     0.00003997    -0.00067371
N        -0.05075932    -0.03907259     1.33310044     0.00008826     0.00001564     0.00057033
H         0.93076963    -0.06326085    -0.58118391     0.00019632    -0.00016403    -0.00070749
H         0.84956304    -0.20243891     1.88674771    -0.00060701    -0.00003536    -0.00002431
H        -0.86974051    -0.14614926     1.91671017    -0.00104977    -0.00049829     0.00136780
H        -0.99589067     0.02577078    -0.63555011    -0.00029966     0.00000405    -0.00053351
     6
  Step:    24            Position(A)                                  Velocity(au)
C        -0.03520441     0.02198595    -0.02246851     0.00003870     0.00004110    -0.00075303
N        -0.05022865    -0.03899101     1.33648871     0.00009896     0.00001351     0.00063497
H         0.93161810    -0.06427139    -0.58484802     0.00010782    -0.00018971    -0.00060107
H         0.84580143    -0.20246704     1.88630165    -0.00072373     0.00001625    -0.00012854
H        -0.87568069    -0.14908431     1.92414612    -0.00105229    -0.00053860     0.00127530
H        -0.99719580     0.02589731    -0.63814968    -0.00016819     0.00003453    -0.00039635
     6
  Step:    25            Position(A)                                  Velocity(au)
C        -0.03500398     0.02221922    -0.02690159     0.00003297     0.00004200    -0.00082490
N        -0.04964948    -0.03892106     1.34022176     0.00010585     0.00001159     0.00069412
H         0.93197890    -0.06538845    -0.58792509     0.00002337    -0.00020577    -0.00049994
H         0.84144628    -0.20225662     1.88530615    -0.00081855     0.00005312    -0.00021892
H        -0.88154219    -0.15218976     1.93101299    -0.00102613    -0.00056419     0.00116870
H        -0.99777701     0.02615801    -0.63999522    -0.00004264     0.00005539    -0.00026614
     6
  Step:    26            Position(A)                                  Velocity(au)
C        -0.03483498     0.02245650    -0.03171099     0.00002751     0.00004258    -0.00088814
N        -0.04904263    -0.03886116     1.34426593     0.00010904     0.00000998     0.00074658
H         0.93187996    -0.06657690    -0.59044952    -0.00005554    -0.00021679    -0.00040484
H         0.83663014    -0.20187192     1.88384876    -0.00088785     0.00007973    -0.00029259
H        -0.88717780    -0.15540571     1.93724070    -0.00097499    -0.00058037     0.00104988
H        -0.99767351     0.02651798    -0.64113159     0.00007532     0.00007138    -0.00014412
     6
  Step:    27            Position(A)                                  Velocity(au)
C        -0.03469594     0.02269604    -0.03684760     0.00002228     0.00004281    -0.00094165
N        -0.04842840    -0.03880927     1.34858248     0.00010857     0.00000876     0.00079122
H         0.93135694    -0.06781621    -0.59245882    -0.00012735    -0.00022465    -0.00031645
H         0.83150345    -0.20136370     1.88202951    -0.00092830     0.00009775    -0.00034732
H        -0.89246078    -0.15868922     1.94277033    -0.00090233    -0.00058928     0.00092094
H        -0.99693353     0.02695738    -0.64160914     0.00018374     0.00008445    -0.00003150
     6
  Step:    28            Position(A)                                  Velocity(au)
C        -0.03458549     0.02293590    -0.04225708     0.00001729     0.00004265    -0.00098442
N        -0.04782670    -0.03876309     1.35312724     0.00010453     0.00000796     0.00082702
H         0.93045371    -0.06909288    -0.59399362    -0.00019044    -0.00023026    -0.00023552
H         0.82623364    -0.20077722     1.87995893    -0.00093706     0.00010778    -0.00038137
H        -0.89728352    -0.16200539     1.94755480    -0.00081176    -0.00059196     0.00078437
H        -0.99561567     0.02746381    -0.64148438     0.00028048     0.00009557     0.00007032
     6
  Step:    29            Position(A)                                  Velocity(au)
C        -0.03450212     0.02317403    -0.04788006     0.00001260     0.00004211    -0.00101569
N        -0.04725688    -0.03872003     1.35785095     0.00009710     0.00000764     0.00085321
H         0.92922268    -0.07039672    -0.59509832    -0.00024326    -0.00023411    -0.00016291
H         0.82100179    -0.20015581     1.87775548    -0.00091240     0.00011014    -0.00039367
H        -0.90155816    -0.16532332     1.95156074    -0.00070718    -0.00058911     0.00064313
H        -0.99379023     0.02802838    -0.64082106     0.00036329     0.00010520     0.00015987
     6
  Step:    30            Position(A)                                  Velocity(au)
C        -0.03444408     0.02340835    -0.05365336     0.00000826     0.00004119    -0.00103512
N        -0.04673723    -0.03867738     1.36270049     0.00008655     0.00000780     0.00086942
H         0.92772431    -0.07171965    -0.59582150    -0.00028446    -0.00023657    -0.00009947
H         0.81599627    -0.19954138     1.87554179    -0.00085406     0.00010515    -0.00038406
H        -0.90521824    -0.16861535     1.95477090    -0.00059287    -0.00058144     0.00050057
H        -0.99153941     0.02864422    -0.63969062     0.00043015     0.00011366     0.00023575
     6
  Step:    31            Position(A)                                  Velocity(au)
C        -0.03440925     0.02363687    -0.05951241     0.00000435     0.00003992    -0.00104299
N        -0.04628427    -0.03863233     1.36762116     0.00007331     0.00000847     0.00087581
H         0.92602599    -0.07305525    -0.59621609    -0.00031309    -0.00023799    -0.00004592
H         0.81140419    -0.19897414     1.87343958    -0.00076359     0.00009330    -0.00035344
H        -0.90822065    -0.17185736     1.95718597    -0.00047334    -0.00056980     0.00036017
H        -0.98895637     0.02930571    -0.63817174     0.00047942     0.00012116     0.00029690
     6
  Step:    32            Position(A)                                  Velocity(au)
C        -0.03439514     0.02385777    -0.06539437     0.00000092     0.00003837    -0.00104016
N        -0.04591197    -0.03858209     1.37255956     0.00005793     0.00000961     0.00087312
H         0.92419982    -0.07439868    -0.59633845    -0.00032867    -0.00023869    -0.00000275
H         0.80740050    -0.19849114     1.87156314    -0.00064442     0.00007533    -0.00030386
H        -0.91054664    -0.17502969     1.95882531    -0.00035305    -0.00055523     0.00022527
H        -0.98614258     0.03000808    -0.63634842     0.00051012     0.00012786     0.00034271
     6
  Step:    33            Position(A)                                  Velocity(au)
C        -0.03439888     0.02406957    -0.07124142    -0.00000196     0.00003661    -0.00102801
N        -0.04563105    -0.03852401     1.37746661     0.00004104     0.00001119     0.00086255
H         0.92231984    -0.07574680    -0.59624705    -0.00033128    -0.00023907     0.00002994
H         0.80413764    -0.19812469     1.87001321    -0.00050155     0.00005223    -0.00023834
H        -0.91220173    -0.17811824     1.95972615    -0.00023616    -0.00053889     0.00009881
H        -0.98320414     0.03074742    -0.63430726     0.00052199     0.00013394     0.00037316
     6
  Step:    34            Position(A)                                  Velocity(au)
C        -0.03441732     0.02427120    -0.07700342    -0.00000426     0.00003471    -0.00100822
N        -0.04544847    -0.03845568     1.38230004     0.00002333     0.00001318     0.00084557
H         0.92045875    -0.07709842    -0.59600032    -0.00032149    -0.00023949     0.00005238
H         0.80173667    -0.19790127     1.86887166    -0.00034108     0.00002515    -0.00016055
H        -0.91321354    -0.18111521     1.95994115    -0.00012624    -0.00052198    -0.00001691
H        -0.98024791     0.03152068    -0.63213440     0.00051536     0.00013961     0.00038872
     6
  Step:    35            Position(A)                                  Velocity(au)
C        -0.03444708     0.02446197    -0.08263956    -0.00000596     0.00003274    -0.00098251
N        -0.04536729    -0.03837503     1.38702593     0.00000547     0.00001550     0.00082374
H         0.91868537    -0.07845425    -0.59565483    -0.00030020    -0.00024028     0.00006512
H         0.80028161    -0.19784038     1.86819816    -0.00016969    -0.00000467    -0.00007450
H        -0.91362891    -0.18401930     1.95953500    -0.00002622    -0.00050563    -0.00012025
H        -0.97737789     0.03232573    -0.62991265     0.00049111     0.00014503     0.00039029
     6
  Step:    36            Position(A)                                  Velocity(au)
C        -0.03448471     0.02464157    -0.08811856    -0.00000705     0.00003075    -0.00095248
N        -0.04538664    -0.03828029     1.39161898    -0.00001191     0.00001811     0.00079850
H         0.91706256    -0.07981669    -0.59526362    -0.00026859    -0.00024171     0.00006892
H         0.79981701    -0.19795408     1.86802882     0.00000589    -0.00003593     0.00001577
H        -0.91351019    -0.18683541     1.95858077     0.00006163    -0.00049085    -0.00021019
H        -0.97469195     0.03316144    -0.62771901     0.00045053     0.00015039     0.00037907
     6
  Step:    37            Position(A)                                  Velocity(au)
C        -0.03452682     0.02480998    -0.09341798    -0.00000755     0.00002879    -0.00091947
N        -0.04550207    -0.03817010     1.39606187    -0.00002821     0.00002093     0.00077107
H         0.91564598    -0.08118945    -0.59487495    -0.00022793    -0.00024395     0.00006469
H         0.80034827    -0.19824701     1.86837661     0.00017915    -0.00006741     0.00010643
H        -0.91293150    -0.18957383     1.95715648     0.00013563    -0.00047845    -0.00028619
H        -0.97227963     0.03402760    -0.62562308     0.00039515     0.00015583     0.00035640
     6
  Step:    38            Position(A)                                  Velocity(au)
C        -0.03457016     0.02496740    -0.09852270    -0.00000750     0.00002689    -0.00088452
N        -0.04570588    -0.03804344     1.40034395    -0.00004292     0.00002391     0.00074241
H         0.91448348    -0.08257711    -0.59453166    -0.00017958    -0.00024711     0.00005342
H         0.80184421    -0.19871680     1.86923314     0.00034413    -0.00009793     0.00019401
H        -0.91197548    -0.19224924     1.95534243     0.00019458    -0.00046906    -0.00034807
H        -0.97022071     0.03492472    -0.62368625     0.00032670     0.00016145     0.00032372
     6
  Step:    39            Position(A)                                  Velocity(au)
C        -0.03461171     0.02511412    -0.10342329    -0.00000696     0.00002504    -0.00084840
N        -0.04598757    -0.03789963     1.40445976    -0.00005559     0.00002699     0.00071323
H         0.91361459    -0.08398468    -0.59427072    -0.00012499    -0.00025119     0.00003614
H         0.80424092    -0.19935479     1.87057122     0.00049554    -0.00012648     0.00027551
H        -0.91073048    -0.19487964     1.95321924     0.00023767    -0.00046314    -0.00039590
H        -0.96858407     0.03585389    -0.62196123     0.00024714     0.00016734     0.00028255
     6
  Step:    40            Position(A)                                  Velocity(au)
C        -0.03464879     0.02525052    -0.10811466    -0.00000596     0.00002326    -0.00081172
N        -0.04633438    -0.03773829     1.40840765    -0.00006587     0.00003012     0.00068404
H         0.91307029    -0.08541701    -0.59412311    -0.00006566    -0.00025613     0.00001390
H         0.80744677    -0.20014676     1.87234805     0.00062896    -0.00015217     0.00034846
H        -0.90928836    -0.19748548     1.95086640     0.00026449    -0.00046103    -0.00042997
H        -0.96742654     0.03681662    -0.62049172     0.00015863     0.00017352     0.00023446
     6
  Step:    41            Position(A)                                  Velocity(au)
C        -0.03467911     0.02537699    -0.11259494    -0.00000461     0.00002155    -0.00077493
N        -0.04673184    -0.03755928     1.41218871    -0.00007350     0.00003327     0.00065521
H         0.91287266    -0.08687874    -0.59411366    -0.00000315    -0.00026187    -0.00001223
H         0.81134759    -0.20107413     1.87450853     0.00074092    -0.00017431     0.00041100
H        -0.90774199    -0.20008880     1.94836100     0.00027499    -0.00046293    -0.00045077
H        -0.96679174     0.03781452    -0.61931211     0.00006353     0.00018002     0.00018105
     6
  Step:    42            Position(A)                                  Velocity(au)
C        -0.03470084     0.02549390    -0.11686472    -0.00000297     0.00001991    -0.00073841
N        -0.04716430    -0.03736267     1.41580590    -0.00007832     0.00003639     0.00062701
H         0.91303471    -0.08837391    -0.59426119     0.00006095    -0.00026827    -0.00004120
H         0.81581283    -0.20211496     1.87698881     0.00082899    -0.00019242     0.00046186
H        -0.90618335    -0.20271265     1.94577663     0.00026951    -0.00046897    -0.00045897
H        -0.96670921     0.03884927    -0.61844737    -0.00003563     0.00018679     0.00012400
     6
  Step:    43            Position(A)                                  Velocity(au)
C        -0.03471266     0.02560162    -0.12092667    -0.00000115     0.00001832    -0.00070247
N        -0.04761558    -0.03714870     1.41926355    -0.00008029     0.00003947     0.00059964
H         0.91356034    -0.08990573    -0.59457849     0.00012506    -0.00027519    -0.00007200
H         0.82070138    -0.20324527     1.87971981     0.00089184    -0.00020620     0.00050038
H        -0.90470103    -0.20538037     1.94318226     0.00024877    -0.00047916    -0.00045548
H        -0.96719377     0.03992218    -0.61791302    -0.00013625     0.00019384     0.00006491
     6
  Step:    44            Position(A)                                  Velocity(au)
C        -0.03471380     0.02570042    -0.12478512     0.00000077     0.00001677    -0.00066739
N        -0.04806957    -0.03691767     1.42256691    -0.00007946     0.00004249     0.00057324
H         0.91444471    -0.09147664    -0.59507300     0.00018765    -0.00028248    -0.00010371
H         0.82586836    -0.20443987     1.88263058     0.00092921    -0.00021554     0.00052646
H        -0.90337842    -0.20811525     1.94064111     0.00021391    -0.00049345    -0.00044139
H        -0.96824541     0.04103480    -0.61771552    -0.00023573     0.00020116     0.00000536
     6