 Fermi distribution function

Calculation with static geometry


********************************************************************************
 iSCC Total electronic   Diff electronic      SCC error    
    9   -0.54399876E+01   -0.38289372E-11    0.31366120E-06
********************************************************************************

 Total charge:     1.00000000

 Atomic gross charges (e)
 Atom           Charge
    1       0.19859580
    2      -0.07529012
    3       0.16286909
    4       0.26799219
    5       0.28877083
    6       0.15706222

Nr. of electrons (up):     12.00000000
Atom populations (up)
 Atom       Population
    1       3.80140420
    2       5.07529012
    3       0.83713091
    4       0.73200781
    5       0.71122917
    6       0.84293778

l-shell populations (up)
 Atom Sh.   l       Population
    1   1   0       1.29457901
    1   2   1       2.50682519
    2   1   0       1.41502928
    2   2   1       3.66026084
    3   1   0       0.83713091
    4   1   0       0.73200781
    5   1   0       0.71122917
    6   1   0       0.84293778

Orbital populations (up)
 Atom Sh.   l   m       Population  Label
    1   1   0   0       1.29457901  s
    1   2   1  -1       0.58626690  p_y
    1   2   1   0       0.88910265  p_z
    1   2   1   1       1.03145564  p_x
    2   1   0   0       1.41502928  s
    2   2   1  -1       1.35108754  p_y
    2   2   1   0       1.09604657  p_z
    2   2   1   1       1.21312673  p_x
    3   1   0   0       0.83713091  s
    4   1   0   0       0.73200781  s
    5   1   0   0       0.71122917  s
    6   1   0   0       0.84293778  s

Fermi level:                        -0.4848432955 H          -13.1933 eV
Band energy:                        -8.9596684638 H         -243.8050 eV
TS:                                  0.0000000000 H            0.0000 eV
Band free energy (E-TS):            -8.9596684638 H         -243.8050 eV
Extrapolated E(0K):                 -8.9596684638 H         -243.8050 eV
Input / Output electrons (q):     12.0000000000     12.0000000000

Energy H0:                          -5.5735620182 H         -151.6643 eV
Energy SCC:                          0.1335744255 H            3.6347 eV
Total Electronic energy:            -5.4399875927 H         -148.0296 eV
Repulsive energy:                    0.2017817638 H            5.4908 eV
Total energy:                       -5.2382058290 H         -142.5388 eV
Extrapolated to 0:                  -5.2382058290 H         -142.5388 eV
Total Mermin free energy:           -5.2382058290 H         -142.5388 eV
Force related energy:               -5.2382058290 H         -142.5388 eV

SCC converged

Excitation Energy:                   0.1566192391 H            4.2618 eV

Total Forces
    1      0.006183155457     -0.002393498175     -0.013378142483
    2      0.000117428332      0.007014926879     -0.008187909336
    3     -0.008994324993      0.008811873709      0.006468586192
    4     -0.009086554918     -0.010478785065      0.005336634655
    5      0.008551327635      0.007007906980      0.006216454721
    6      0.003228968486     -0.009962424327      0.003544376252

Maximal derivative component:        0.133781E-01 au


