     6
  Step:   120            Position(A)                                  Velocity(au)
C        -0.02216424     0.11202466    -0.02880009     0.00005620     0.00017374    -0.00003300
N        -0.04500108    -0.07241342     1.34941472    -0.00001119    -0.00015236    -0.00008840
H         0.75836957    -0.55336502    -0.58084993    -0.00065203    -0.00113553     0.00084374
H         0.84629804    -0.00791487     1.86873817    -0.00022615     0.00127033     0.00037744
H        -0.95334903    -0.26535515     1.82626651     0.00046263    -0.00027343     0.00006227
H        -0.97479550    -0.17175857    -0.63087613    -0.00009862     0.00018561     0.00033830
