|===============================================================================
|
|  DFTB+ release 20.1
|
|  Copyright (C) 2006 - 2020  DFTB+ developers group
|
|===============================================================================
|
|  When publishing results obtained with DFTB+, please cite the following
|  reference:
|
|  * DFTB+, a software package for efficient approximate density functional
|    theory based atomistic simulations, J. Chem. Phys. 152, 124101 (2020).
|    [doi: 10.1063/1.5143190]
|
|  You should also cite additional publications crediting the parametrization
|  data you use. Please consult the documentation of the SK-files for the
|  references.
|
|===============================================================================

Reading input file 'dftb_in.hsd'
Parser version: 8

--------------------------------------------------------------------------------
Reading SK-files:
Done.


Processed input in HSD format written to 'dftb_pin.hsd'

Starting initialization...
--------------------------------------------------------------------------------
OpenMP threads:              1
Chosen random seed:          498024262
Mode:                        Static calculation
Self consistent charges:     Yes
SCC-tolerance:                 0.100000E-05
Max. scc iterations:                   1000
Shell resolved Hubbard:      No
Spin polarisation:           No
Nr. of up electrons:            16.000000
Nr. of down electrons:          16.000000
Periodic boundaries:         No
Electronic solver:           Relatively robust
Maximal SCC-cycles:                    1000
Initial charges:             Set automatically (system chrg:   0.100E+01)
Included shells:             C:  s, p
                             H:  s
                             N:  s, p
Spin coupling constants:     C   1(s)-1(s):  -0.455900E-01
                             C   1(s)-2(p):  -0.293000E-01
                             C   2(p)-1(s):  -0.293000E-01
                             C   2(p)-2(p):  -0.275500E-01
                             H   1(s)-1(s):  -0.792500E-01
                             N   1(s)-1(s):  -0.468700E-01
                             N   1(s)-2(p):  -0.317000E-01
                             N   2(p)-1(s):  -0.317000E-01
                             N   2(p)-2(p):  -0.307200E-01
Range separated hybrid:      Yes
  Screening parameter omega:   0.300000E+00
  Range separated algorithm:   MatrixBased
Extra options:
                             Mulliken analysis
                             Force calculation
Force type                   original
                             Eigenvector printing


REKS Calcuation:             Yes
SSR(2,2) Calcuation:         Yes
Energy Functional:           (PPS+OSS)/2
Number of Core Orbitals:                 15
Number of Active Orbitals:                2
Number of Basis:                         32
Number of States:                         2
State-Averaging Weight:          0.500000
                                 0.500000
State of Interest:                        1
Initial Guess:               Diagonalize H0 matrix
Newton-Raphson for FON opt:  Yes
NR max. Iterations:                      50
Level Shifting:              Yes
Shift Value:                     0.300000
W Scale Factor:              C  =    3.200000
                             H  =    3.200000
                             N  =    3.200000
Transition Dipole:           No
Gradient of Microstate:      No
CP-REKS Solver:              Preconditioned Conjugate-Gradient
CG max. Iterations:                     100
CG Tolerance:                  0.100000E-07
Memory for A and Hxc:        Direct Updating Without Saving
Non-Adiabatic Coupling:      Yes

--------------------------------------------------------------------------------

***  Geometry step: 0

  iSCC       reks energy        Diff energy         x_a       SCC error   
    1      -16.4108552450       0.0000000000     0.999947    1.20447074
    2      -16.4212341194      -0.0103788744     0.999993    0.02697441
    3      -16.4235048642      -0.0022707448     0.999997    0.01172863
    4      -16.4243147396      -0.0008098753     0.999999    0.00711887
    5      -16.4246700140      -0.0003552744     0.999999    0.00466356
    6      -16.4248449055      -0.0001748915     0.999999    0.00317855
    7      -16.4249387413      -0.0000938358     1.000000    0.00222979
    8      -16.4249931569      -0.0000544156     1.000000    0.00160480
    9      -16.4250270959      -0.0000339391     1.000000    0.00124821
   10      -16.4250496787      -0.0000225828     1.000000    0.00099874
   11      -16.4250655238      -0.0000158451     1.000000    0.00080922
   12      -16.4250770988      -0.0000115749     1.000000    0.00076406
   13      -16.4250858019      -0.0000087031     1.000000    0.00070953
   14      -16.4250924768      -0.0000066749     1.000000    0.00065135
   15      -16.4250976647      -0.0000051879     1.000000    0.00059340
   16      -16.4251017324      -0.0000040677     1.000000    0.00053786
   17      -16.4251049404      -0.0000032080     1.000000    0.00048583
   18      -16.4251074800      -0.0000025396     1.000000    0.00043779
   19      -16.4251094954      -0.0000020154     1.000000    0.00039386
   20      -16.4251110975      -0.0000016021     1.000000    0.00035393
   21      -16.4251123725      -0.0000012750     1.000000    0.00031778
   22      -16.4251133878      -0.0000010153     1.000000    0.00028516
   23      -16.4251141967      -0.0000008089     1.000000    0.00025577
   24      -16.4251148415      -0.0000006447     1.000000    0.00022933
   25      -16.4251153554      -0.0000005139     1.000000    0.00020556
   26      -16.4251157651      -0.0000004097     1.000000    0.00018421
   27      -16.4251160918      -0.0000003267     1.000000    0.00016504
   28      -16.4251163522      -0.0000002605     1.000000    0.00014784
   29      -16.4251165599      -0.0000002077     1.000000    0.00013241
   30      -16.4251167255      -0.0000001656     1.000000    0.00011856
   31      -16.4251168575      -0.0000001320     1.000000    0.00010615
   32      -16.4251169627      -0.0000001053     1.000000    0.00009502
   33      -16.4251170467      -0.0000000839     1.000000    0.00008505
   34      -16.4251171136      -0.0000000669     1.000000    0.00007611
   35      -16.4251171669      -0.0000000533     1.000000    0.00006810
   36      -16.4251172094      -0.0000000425     1.000000    0.00006093
   37      -16.4251172434      -0.0000000339     1.000000    0.00005450
   38      -16.4251172704      -0.0000000270     1.000000    0.00004875
   39      -16.4251172919      -0.0000000215     1.000000    0.00004360
   40      -16.4251173091      -0.0000000172     1.000000    0.00003899
   41      -16.4251173228      -0.0000000137     1.000000    0.00003486
   42      -16.4251173337      -0.0000000109     1.000000    0.00003117
   43      -16.4251173424      -0.0000000087     1.000000    0.00002786
   44      -16.4251173494      -0.0000000069     1.000000    0.00002491
   45      -16.4251173549      -0.0000000055     1.000000    0.00002226
   46      -16.4251173593      -0.0000000044     1.000000    0.00001990
   47      -16.4251173628      -0.0000000035     1.000000    0.00001778
   48      -16.4251173656      -0.0000000028     1.000000    0.00001589
   49      -16.4251173679      -0.0000000022     1.000000    0.00001420
   50      -16.4251173696      -0.0000000018     1.000000    0.00001269
   51      -16.4251173710      -0.0000000014     1.000000    0.00001134
   52      -16.4251173722      -0.0000000011     1.000000    0.00001013
   53      -16.4251173731      -0.0000000009     1.000000    0.00000905
   54      -16.4251173738      -0.0000000007     1.000000    0.00000808
   55      -16.4251173744      -0.0000000006     1.000000    0.00000722
   56      -16.4251173748      -0.0000000005     1.000000    0.00000645
   57      -16.4251173752      -0.0000000004     1.000000    0.00000576
   58      -16.4251173755      -0.0000000003     1.000000    0.00000515
   59      -16.4251173757      -0.0000000002     1.000000    0.00000460
   60      -16.4251173759      -0.0000000002     1.000000    0.00000411
   61      -16.4251173760      -0.0000000001     1.000000    0.00000367
   62      -16.4251173762      -0.0000000001     1.000000    0.00000328
   63      -16.4251173763      -0.0000000001     1.000000    0.00000293
   64      -16.4251173763      -0.0000000001     1.000000    0.00000261
   65      -16.4251173764      -0.0000000001     1.000000    0.00000233
   66      -16.4251173764      -0.0000000000     1.000000    0.00000208
   67      -16.4251173765      -0.0000000000     1.000000    0.00000186
   68      -16.4251173765      -0.0000000000     1.000000    0.00000166
   69      -16.4251173765      -0.0000000000     1.000000    0.00000148
   70      -16.4251173765      -0.0000000000     1.000000    0.00000133
   71      -16.4251173766      -0.0000000000     1.000000    0.00000118
   72      -16.4251173766      -0.0000000000     1.000000    0.00000106
   73      -16.4251173766      -0.0000000000     1.000000    0.00000094
  
--------------------------------------------------
 Final SA-REKS(2,2) energy:     -16.42511738
  
 State     Energy      FON(1)    FON(2)   Spin
  PPS  -16.48319280   1.999999  0.000001  0.00
  OSS  -16.36704195   1.000000  1.000000  0.00
 Trip  -16.39491356   1.000000  1.000000  1.00
--------------------------------------------------

 Lagrangian Wab:   0.00427761  0.00427772

--------------------------------------------------
 SSR: 2SI-2SA-REKS(2,2) Hamiltonian matrix
               PPS           OSS
   PPS   -16.48319280    0.00604623
   OSS     0.00604623  -16.36704195
--------------------------------------------------

----------------------------------------------------------------
 SSR: 2SI-2SA-REKS(2,2) states
                    E_n       C_{PPS}    C_{OSS}
 SSR state  1  -16.48350669  -0.998655   0.051845
 SSR state  2  -16.36672806  -0.051845  -0.998655
----------------------------------------------------------------

 unrelaxed SSR FONs for S0:  1.997312  0.002688

Total Energy:                      -16.4835066932 H         -448.5390 eV
Extrapolated to 0:                 -16.4835066932 H         -448.5390 eV

----------------------------------------------------------------------------------
 Solving CP-REKS equation for  1 state vector...
----------------------------------------------------------------------------------
  CG solver: Constructing Y initial guess
  CG solver: Iteration    1    eps =    0.001200142810
  CG solver: Iteration    2    eps =    0.000111265288
  CG solver: Iteration    3    eps =    0.000037645718
  CG solver: Iteration    4    eps =    0.000002016510
  CG solver: Iteration    5    eps =    0.000001023246
  CG solver: Iteration    6    eps =    0.000000390381
  CG solver: Iteration    7    eps =    0.000000023061
  CG solver: Iteration    8    eps =    0.000000001616
  Convergence reached in CG solver after    8 iterations
  CG solver: Calculating converged R, Z, Q2 matrix
----------------------------------------------------------------------------------

----------------------------------------------------------------------------------
 Solving CP-REKS equation for SI between  1 and  2 state vectors...
----------------------------------------------------------------------------------
  CG solver: Constructing Y initial guess
  CG solver: Iteration    1    eps =    0.030312197527
  CG solver: Iteration    2    eps =    0.000894145083
  CG solver: Iteration    3    eps =    0.000138923241
  CG solver: Iteration    4    eps =    0.000092363774
  CG solver: Iteration    5    eps =    0.000007632568
  CG solver: Iteration    6    eps =    0.000005076631
  CG solver: Iteration    7    eps =    0.000000783437
  CG solver: Iteration    8    eps =    0.000000052594
  CG solver: Iteration    9    eps =    0.000000009306
  Convergence reached in CG solver after    9 iterations
  CG solver: Calculating converged R, Z, Q2 matrix
----------------------------------------------------------------------------------

--------------------------------------------------
 Gradient Information
--------------------------------------------------
           1 st state (SSR)
    -0.01621412     0.06333851    -0.04482612
    -0.01170988    -0.05318797    -0.00461284
     0.01920765    -0.02421752    -0.02161493
    -0.00406759     0.00597217     0.01836929
     0.00315258    -0.01376214     0.00239390
     0.05118734     0.04477328     0.05553888
     0.00367305    -0.00547002     0.04615638
    -0.01537045    -0.01019426     0.00614201
     0.02197649    -0.00631427    -0.03874573
    -0.07450061    -0.02536810     0.01383800
     0.00575962     0.04784272     0.00152500
     0.02763272    -0.02882181    -0.03849313
    -0.00379542    -0.00200028     0.00554128
    -0.00693136     0.00740970    -0.00121200

           2 st state (SSR)
    -0.01580229     0.08477148    -0.06847627
    -0.01812493    -0.06426804     0.04194512
     0.02485448    -0.01187673    -0.01131978
    -0.00922561    -0.00604399     0.00415527
     0.00707095    -0.00472001     0.01098145
     0.04696947     0.01411836     0.02101765
    -0.00577226    -0.00306967     0.05135593
    -0.00462067    -0.00275045     0.00850712
     0.02010901    -0.00058885    -0.03619468
     0.01080229    -0.04136270    -0.00222641
     0.00476068     0.04722498     0.00909350
    -0.05527747    -0.01725867    -0.03184976
     0.00017906     0.00335567     0.00472694
    -0.00592272     0.00246862    -0.00171608
--------------------------------------------------
 Coupling Information
--------------------------------------------------
 between  1 and  2 states
--------------------------------------------------
 g vector - difference gradient
    -0.00001131    -0.01130024     0.01269904
     0.00357401     0.00659543    -0.02491668
    -0.00293186    -0.00636325    -0.00533977
     0.00265740     0.00616182     0.00731153
    -0.00201673    -0.00484349    -0.00449911
     0.00234527     0.01598132     0.01835284
     0.00435459    -0.00144348    -0.00300386
    -0.00556884    -0.00413564    -0.00102379
     0.00076078    -0.00269698    -0.00133576
    -0.04331311     0.00764177     0.00829219
     0.00052824     0.00030477    -0.00384129
     0.04218920    -0.00570782    -0.00335500
    -0.00201948    -0.00265152     0.00032622
    -0.00054816     0.00245731     0.00033344

 h vector - derivative coupling
     0.00187991    -0.00505075     0.00778071
     0.00335373     0.00984973    -0.01452198
    -0.00089503    -0.00153208    -0.00157882
     0.00061907     0.00116483     0.00159553
    -0.00045102    -0.00286226    -0.00174939
     0.00216055     0.00548478     0.00959499
    -0.00378050    -0.00227473    -0.00374641
    -0.00158387    -0.00378082     0.00158633
    -0.00170977     0.00174049    -0.00051228
    -0.00414114    -0.00383010     0.00208019
     0.00025048    -0.00005541    -0.00035141
     0.00489909     0.00100850    -0.00014756
    -0.00020655     0.00039315    -0.00079864
    -0.00039495    -0.00025533     0.00076874

 G vector - GDV
    -0.00020592    -0.01071649     0.01182508
     0.00320752     0.00554003    -0.02327898
    -0.00282342    -0.00617039    -0.00514758
     0.00257901     0.00600808     0.00710701
    -0.00195918    -0.00452106    -0.00429377
     0.00210894     0.01532746     0.01726062
     0.00472265    -0.00120018    -0.00259977
    -0.00537489    -0.00372191    -0.00118255
     0.00093374    -0.00286271    -0.00127553
    -0.04265145     0.00799730     0.00803221
     0.00049947     0.00030887    -0.00378425
     0.04145510    -0.00578157    -0.00332169
    -0.00198724    -0.00267798     0.00040717
    -0.00050432     0.00247054     0.00025204

 H vector - DCV - non-adiabatic coupling
     0.01600152    -0.05303830     0.07753019
     0.03173349     0.08974025    -0.14578050
    -0.01022286    -0.01869146    -0.01818200
     0.00762906     0.01538488     0.02007274
    -0.00562972    -0.02867321    -0.01888929
     0.02048142     0.06088584     0.09799614
    -0.02833790    -0.02065429    -0.03457239
    -0.01842811    -0.03586906     0.01260327
    -0.01388778     0.01243260    -0.00554766
    -0.07367758    -0.02584548     0.02507018
     0.00260180    -0.00020168    -0.00639919
     0.07913655     0.00352831    -0.00423179
    -0.00354994     0.00099738    -0.00651288
    -0.00384995     0.00000422     0.00684315
--------------------------------------------------


--------------------------------------------------------------------------------
DFTB+ running times                          cpu [s]             wall clock [s]
--------------------------------------------------------------------------------
SCC                                    +     0.11  ( 28.7%)      0.11  ( 29.1%)
      Dense to sparse                        0.02  (  5.4%)      0.03  (  6.5%)
  Density matrix creation                    0.01  (  3.0%)      0.02  (  4.2%)
Post-SCC processing                    +     0.26  ( 70.8%)      0.27  ( 69.9%)
  Force calculation                          0.26  ( 70.8%)      0.27  ( 69.6%)
--------------------------------------------------------------------------------
Missing                                +     0.00  (  0.5%)      0.00  (  1.0%)
Total                                  =     0.37  (100.0%)      0.38  (100.0%)
--------------------------------------------------------------------------------
