     6
  Step:   300            Position(A)                                  Velocity(au)
C        -0.02071110     0.01705476     0.03023153     0.00005263    -0.00000841    -0.00008938
N        -0.04815566    -0.05511275     1.28882389    -0.00011907    -0.00004485     0.00005954
H         0.19239723     0.95341264    -0.47367730    -0.00119166     0.00050364     0.00037467
H        -0.26806186    -0.94197758     1.74339288    -0.00077189     0.00020368     0.00027139
H        -0.03284037     0.76344750     1.90155773     0.00184988     0.00017732    -0.00040229
H        -0.18844029    -0.88204525    -0.54945217     0.00114118    -0.00016118    -0.00000606
