    14
  Step:     0            Position(A)                                  Velocity(au)
C        -6.03696832    -0.63103705    -0.12610750    -0.00009508    -0.00011303    -0.00015668
C        -4.71878702    -0.78971791     0.12949296     0.00013485    -0.00003782     0.00004954
H        -6.48606007     0.38783045    -0.24932707     0.00055591     0.00089959     0.00117010
H        -6.74271296    -1.47312889    -0.07925328    -0.00010605     0.00088370     0.00049910
H        -4.33120865    -1.77174081     0.23590930     0.00067748     0.00014081     0.00017602
C        -3.84110453     0.36907335     0.03190039    -0.00020270    -0.00002047     0.00005834
C        -2.46784085     0.39273350     0.15688194     0.00001040    -0.00036821     0.00003773
H        -4.33577470     1.29606957    -0.22787346     0.00055966     0.00057069     0.00013452
H        -1.74906001    -0.41642413     0.35905869    -0.00002210     0.00152728    -0.00104361
C        -1.82828773     1.63769310    -0.07734667     0.00008876     0.00050682    -0.00030124
H        -2.42176365     2.47550826    -0.54369828    -0.00105297    -0.00171578    -0.00085182
N        -0.61062829     1.90812044     0.25300711     0.00005348    -0.00010801     0.00029162
H        -0.23620752     2.86534985     0.08918382     0.00021750    -0.00141387    -0.00021120
H        -0.05514488     1.09872252     0.54568249    -0.00081270     0.00099843    -0.00020409
    14
  Step:     1            Position(A)                                  Velocity(au)
C        -6.03834494    -0.63219799    -0.12781045    -0.00015297    -0.00009616    -0.00015365
C        -4.71703671    -0.78995465     0.12997026     0.00018276    -0.00000621     0.00003724
H        -6.47950270     0.39663552    -0.23662338     0.00064334     0.00069602     0.00114920
H        -6.74361987    -1.46317255    -0.07397901    -0.00007799     0.00091295     0.00046336
H        -4.32304099    -1.77129928     0.23834163     0.00081002    -0.00005266     0.00026729
C        -3.84378721     0.36862121     0.03253802    -0.00028453    -0.00006123     0.00005846
C        -2.46726453     0.38880659     0.15728619     0.00009118    -0.00034263     0.00003429
H        -4.32975912     1.30271874    -0.22633219     0.00053839     0.00063514     0.00014847
H        -1.75040218    -0.40003587     0.34797854    -0.00018603     0.00141407    -0.00096825
C        -1.82786635     1.64326375    -0.08083057    -0.00001213     0.00050545    -0.00033409
H        -2.43273275     2.45581046    -0.55220244    -0.00095232    -0.00185053    -0.00071209
N        -0.60961165     1.90704460     0.25627952     0.00012660    -0.00008710     0.00030515
H        -0.23380531     2.84831683     0.08717987     0.00024353    -0.00164361    -0.00016374
H        -0.06357141     1.11062043     0.54354846    -0.00068479     0.00110851    -0.00016165
    14
  Step:     2            Position(A)                                  Velocity(au)
C        -6.04031489    -0.63314075    -0.12946892    -0.00020252    -0.00007367    -0.00014845
C        -4.71478871    -0.78985377     0.13030759     0.00022547     0.00002295     0.00002402
H        -6.47198583     0.40305720    -0.22418612     0.00072776     0.00047114     0.00112054
H        -6.74441914    -1.45315635    -0.06911629    -0.00008838     0.00089289     0.00042464
H        -4.31348786    -1.77289277     0.24175676     0.00092639    -0.00022068     0.00035409
C        -3.84732909     0.36773376     0.03317935    -0.00035937    -0.00009970     0.00005894
C        -2.46584611     0.38523779     0.15763211     0.00016323    -0.00030278     0.00002708
H        -4.32399647     1.30996450    -0.22462549     0.00051385     0.00067740     0.00016526
H        -1.75312986    -0.38548855     0.33787644    -0.00026899     0.00118850    -0.00086484
C        -1.82855307     1.64875076    -0.08465564    -0.00011127     0.00049154    -0.00036269
H        -2.44259745     2.43502443    -0.55927659    -0.00085776    -0.00190882    -0.00059507
N        -0.60785858     1.90621490     0.25968279     0.00018618    -0.00006392     0.00031526
H        -0.23087993     2.82939276     0.08560167     0.00031889    -0.00174593    -0.00013684
H        -0.07012593     1.12297340     0.54214606    -0.00046918     0.00107707    -0.00006925
    14
  Step:     3            Position(A)                                  Velocity(au)
C        -6.04277556    -0.63380973    -0.13105807    -0.00024205    -0.00004682    -0.00014094
C        -4.71210419    -0.78945263     0.13049570     0.00026236     0.00004794     0.00001005
H        -6.46358147     0.40694258    -0.21210949     0.00080223     0.00023983     0.00108271
H        -6.74555327    -1.44363896    -0.06468913    -0.00013928     0.00082222     0.00038442
H        -4.30277454    -1.77612706     0.24608800     0.00101870    -0.00034477     0.00043334
C        -3.85164919     0.36644008     0.03382744    -0.00042666    -0.00013523     0.00005961
C        -2.46369367     0.38218271     0.15787864     0.00022499    -0.00024917     0.00001626
H        -4.31851776     1.31753822    -0.22271691     0.00048656     0.00069348     0.00018563
H        -1.75628679    -0.37403517     0.32905844    -0.00026360     0.00085222    -0.00073488
C        -1.83030061     1.65401708    -0.08876508    -0.00020373     0.00046511    -0.00038521
H        -2.45149786     2.41405129    -0.56522078    -0.00078258    -0.00188034    -0.00050974
N        -0.60553852     1.90564630     0.26317646     0.00022917    -0.00004053     0.00032163
H        -0.22682889     2.81012129     0.08418618     0.00045269    -0.00169999    -0.00013670
H        -0.07383571     1.13418332     0.54203349    -0.00017059     0.00090553     0.00007150
    14
  Step:     4            Position(A)                                  Velocity(au)
C        -6.04561017    -0.63416498    -0.13255221    -0.00027075    -0.00001723    -0.00013109
C        -4.70904906    -0.78880495     0.13052735     0.00029324     0.00006761    -0.00000447
H        -6.45443540     0.40830389    -0.20049967     0.00086028     0.00001729     0.00103495
H        -6.74746624    -1.43516878    -0.06070646    -0.00022840     0.00070460     0.00034382
H        -4.29120180    -1.78043533     0.25123697     0.00108142    -0.00041267     0.00050247
C        -3.85666299     0.36477541     0.03448340    -0.00048644    -0.00016739     0.00006026
C        -2.46092400     0.37978670     0.15798793     0.00027673    -0.00018326     0.00000228
H        -4.31335201     1.32513568    -0.22056455     0.00045633     0.00068100     0.00020981
H        -1.75889652    -0.36684466     0.32179956    -0.00017553     0.00042061    -0.00058266
C        -1.83301010     1.65892592    -0.09308285    -0.00028523     0.00042624    -0.00040004
H        -2.45971781     2.39388834    -0.57042816    -0.00073860    -0.00175901    -0.00046317
N        -0.60284514     1.90532827     0.26671908     0.00025446    -0.00001937     0.00032439
H        -0.22097653     2.79220223     0.08261116     0.00064747    -0.00150176    -0.00016698
H        -0.07385801     1.14278351     0.54371033     0.00019087     0.00061812     0.00025090
    14
  Step:     5            Position(A)                                  Velocity(au)
C        -6.04869877    -0.63418661    -0.13392600    -0.00028888     0.00001307    -0.00011900
C        -4.70568910    -0.78797350     0.13039789     0.00031839     0.00008151    -0.00001928
H        -6.44476123     0.40732074    -0.18946795     0.00089604    -0.00018127     0.00097704
H        -6.75055006    -1.42822440    -0.05716731    -0.00034844     0.00054920     0.00030341
H        -4.27911639    -1.78515506     0.25708048     0.00111177    -0.00041909     0.00055953
C        -3.86229101     0.36277811     0.03514580    -0.00053959    -0.00019610     0.00006065
C        -2.45763974     0.37817349     0.15792847     0.00032076    -0.00010760    -0.00001416
H        -4.30853458     1.33243632    -0.21812685     0.00042231     0.00063943     0.00023756
H        -1.76012677    -0.36483353     0.31631168    -0.00002590    -0.00007533    -0.00041532
C        -1.83654050     1.66334192    -0.09751671    -0.00035252     0.00037521    -0.00040596
H        -2.46765613     2.37556962    -0.57535345    -0.00073377    -0.00154511    -0.00045870
N        -0.59997183     1.90522256     0.27027318     0.00026327    -0.00000272     0.00032405
H        -0.21266418     2.77726746     0.08053325     0.00089607    -0.00117034    -0.00022684
H        -0.06966009     1.14770597     0.54752234     0.00058012     0.00026132     0.00045134
    14
  Step:     6            Position(A)                                  Velocity(au)
C        -6.05193008    -0.63387910    -0.13515558    -0.00029779     0.00004172    -0.00010485
C        -4.70208368    -0.78702179     0.13010567     0.00033873     0.00008989    -0.00003407
H        -6.43483282     0.40433836    -0.17912509     0.00090448    -0.00034108     0.00090935
H        -6.75508908    -1.42315389    -0.05406877    -0.00048747     0.00037013     0.00026303
H        -4.26687971    -1.78960364     0.26347778     0.00110965    -0.00036508     0.00060332
C        -3.86846767     0.36048534     0.03581020    -0.00058765    -0.00022165     0.00006049
C        -2.45390672     0.37743283     0.15767809     0.00036112    -0.00002566    -0.00003214
H        -4.30411325     1.33912451    -0.21536738     0.00038309     0.00057012     0.00026821
H        -1.75946318    -0.36849265     0.31271373     0.00015101    -0.00059143    -0.00024194
C        -1.84072214     1.66713425    -0.10196391    -0.00040377     0.00031270    -0.00040236
H        -2.47577040     2.36008609    -0.58046311    -0.00076942    -0.00124729    -0.00049407
N        -0.59708555     1.90526879     0.27380830     0.00025899     0.00000803     0.00032121
H        -0.20137339     2.76659876     0.07764853     0.00117975    -0.00074975    -0.00030955
H        -0.06116682     1.14850029     0.55358423     0.00095269    -0.00010456     0.00065023
    14
  Step:     7            Position(A)                                  Velocity(au)
C        -6.05521349    -0.63327388    -0.13621988    -0.00029975     0.00006626    -0.00008896
C        -4.69827870    -0.78600689     0.12965254     0.00035566     0.00009353    -0.00004854
H        -6.42497407     0.39985899    -0.16957418     0.00088161    -0.00044862     0.00083287
H        -6.76121447    -1.42012710    -0.05141295    -0.00063040     0.00018473     0.00022201
H        -4.25484077    -1.79314192     0.27027921     0.00107719    -0.00025693     0.00063342
C        -3.87514691     0.35792916     0.03646909    -0.00063209    -0.00024453     0.00005956
C        -2.44973946     0.37761206     0.15722527     0.00040220     0.00005842    -0.00005070
H        -4.30015367     1.34490886    -0.21225918     0.00033693     0.00047604     0.00030078
H        -1.75682309    -0.37777225     0.31101869     0.00031537    -0.00107769    -0.00007205
C        -1.84537375     1.67018278    -0.10631919    -0.00043869     0.00024022    -0.00038953
H        -2.48448872     2.34828280    -0.58616221    -0.00083827    -0.00088358    -0.00056029
N        -0.59430596     1.90539816     0.27730026     0.00024642     0.00001291     0.00031632
H        -0.18685486     2.76086524     0.07376131     0.00146962    -0.00030291    -0.00040268
H        -0.04881820     1.14541856     0.56174744     0.00126420    -0.00041918     0.00082476
    14
  Step:     8            Position(A)                                  Velocity(au)
C        -6.05848759    -0.63242964    -0.13710173    -0.00029741     0.00008433    -0.00007168
C        -4.69430292    -0.78497568     0.12904387     0.00037044     0.00009319    -0.00006238
H        -6.41554581     0.39452400    -0.16090447     0.00082497    -0.00049289     0.00074906
H        -6.76888034    -1.41911267    -0.04921197    -0.00076124     0.00001101     0.00017937
H        -4.24331401    -1.79522439     0.27733500     0.00101827    -0.00010469     0.00065021
C        -3.88229594     0.35513587     0.03711309    -0.00067302    -0.00026497     0.00005782
C        -2.44510790     0.37871084     0.15656890     0.00044653     0.00014011    -0.00006897
H        -4.29674218     1.34953883    -0.20878715     0.00028192     0.00036150     0.00033414
H        -1.75256396    -0.39206915     0.31113755     0.00043150    -0.00148797     0.00008582
C        -1.85031929     1.67238954    -0.11048552    -0.00045836     0.00016060    -0.00036875
H        -2.49410911     2.34075605    -0.59272046    -0.00092427    -0.00048053    -0.00064241
N        -0.59169456     1.90555130     0.28072833     0.00023085     0.00001344     0.00030957
H        -0.16922259     2.75997198     0.06883906     0.00173154     0.00010160    -0.00049055
H        -0.03351000     1.13932989     0.57162748     0.00147994    -0.00063594     0.00095667
    14
  Step:     9            Position(A)                                  Velocity(au)
C        -6.06171991    -0.63142892    -0.13778796    -0.00029296     0.00009409    -0.00005331
C        -4.69017472    -0.78396825     0.12828781     0.00038319     0.00008909    -0.00007543
H        -6.40692635     0.38907598    -0.15318703     0.00073408    -0.00046738     0.00065966
H        -6.77786795    -1.41988623    -0.04748888    -0.00086559    -0.00013507     0.00013421
H        -4.23256408    -1.79543229     0.28450371     0.00093788     0.00007918     0.00065475
C        -3.88987054     0.35213247     0.03773410    -0.00070804    -0.00028238     0.00005555
C        -2.43997074     0.38067728     0.15571652     0.00049329     0.00021477    -0.00008625
H        -4.29398604     1.35281729    -0.20494915     0.00021622     0.00023180     0.00036704
H        -1.74738328    -0.41032439     0.31289612     0.00047592    -0.00178852     0.00022498
C        -1.85540124     1.67369619    -0.11438634    -0.00046480     0.00007813    -0.00034234
H        -2.50470880     2.33777026    -0.60021626    -0.00100505    -0.00007001    -0.00072205
N        -0.58925573     1.90569223     0.28407280     0.00021695     0.00001197     0.00030105
H        -0.14897414     2.76308788     0.06302963     0.00193341     0.00040547    -0.00055796
H        -0.01644175     1.13150617     0.58267647     0.00158072    -0.00072982     0.00103514
    14
  Step:    10            Position(A)                                  Velocity(au)
C        -6.06489655    -0.63037124    -0.13826797    -0.00028752     0.00009445    -0.00003402
C        -4.68591992    -0.78302662     0.12739362     0.00039254     0.00008082    -0.00008766
H        -6.39948647     0.38429910    -0.14647312     0.00061095    -0.00037190     0.00056645
H        -6.78781681    -1.42206764    -0.04627583    -0.00093276    -0.00024187     0.00008586
H        -4.22279618    -1.79349222     0.29165881     0.00084174     0.00028094     0.00064858
C        -3.89778570     0.34895821     0.03832831    -0.00073306    -0.00029534     0.00005313
C        -2.43431620     0.38340929     0.15468200     0.00053896     0.00027835    -0.00010207
H        -4.29201193     1.35460996    -0.20075744     0.00013819     0.00009302     0.00039807
H        -1.74215239    -0.43119639     0.31605952     0.00044021    -0.00196183     0.00034127
C        -1.86048767     1.67409879    -0.11797488    -0.00046036    -0.00000218    -0.00031305
H        -2.51609660     2.33922444    -0.60851667    -0.00105683     0.00031598    -0.00078065
N        -0.58694842     1.90581320     0.28731440     0.00020797     0.00001088     0.00029076
H        -0.12692558     2.76884236     0.05663263     0.00205188     0.00057241    -0.00059384
H         0.00107128     1.12336377     0.59427318     0.00156366    -0.00069784     0.00105730
    14
  Step:    11            Position(A)                                  Velocity(au)
C        -6.06800998    -0.62936271    -0.13853211    -0.00028144     0.00008540    -0.00001386
C        -4.68158707    -0.78220015     0.12637007     0.00039631     0.00006778    -0.00009913
H        -6.39356073     0.38093994    -0.14079488     0.00046033    -0.00021432     0.00047106
H        -6.79827384    -1.42517750    -0.04561057    -0.00095681    -0.00030313     0.00003402
H        -4.21414938    -1.78928612     0.29869274     0.00073609     0.00048626     0.00063356
C        -3.90590767     0.34567125     0.03889636    -0.00074432    -0.00030223     0.00005087
C        -2.42817994     0.38676671     0.15348344     0.00057950     0.00032823    -0.00011614
H        -4.29096278     1.35485238    -0.19624061     0.00004657    -0.00004826     0.00042569
H        -1.73775289    -0.45324313     0.32036199     0.00032905    -0.00200562     0.00043321
C        -1.86547240     1.67364842    -0.12123500    -0.00044717    -0.00007587    -0.00028339
H        -2.52782890     2.34468304    -0.61729457    -0.00105980     0.00065066    -0.00080271
N        -0.58470593     1.90593029     0.29043368     0.00020533     0.00001192     0.00027865
H        -0.10408527     2.77561042     0.05003828     0.00207595     0.00059186    -0.00059309
H         0.01776624     1.11623966     0.60580690     0.00143897    -0.00055412     0.00102700
    14
  Step:    12            Position(A)                                  Velocity(au)
C        -6.07105358    -0.62850290    -0.13857121    -0.00027478     0.00006813     0.00000709
C        -4.67724982    -0.78154380     0.12522491     0.00039242     0.00004966    -0.00010995
H        -6.38941595     0.37961052    -0.13616769     0.00028967    -0.00001115     0.00037487
H        -6.80874888    -1.42869909    -0.04553166    -0.00093662    -0.00031795    -0.00002112
H        -4.20669271    -1.78285433     0.30551924     0.00062741     0.00068068     0.00061174
C        -3.91406914     0.34234638     0.03944126    -0.00073962    -0.00030176     0.00004891
C        -2.42163853     0.39058989     0.15214129     0.00061176     0.00036330    -0.00012827
H        -4.29099312     1.35355408    -0.19144464    -0.00005943    -0.00018528     0.00044835
H        -1.73495381    -0.47507313     0.32553692     0.00015571    -0.00192896     0.00050170
C        -1.87027029     1.67243906    -0.12417461    -0.00042685    -0.00013965    -0.00025516
H        -2.53928174     2.35345887    -0.62607749    -0.00100194     0.00091572    -0.00077804
N        -0.58245648     1.90607403     0.29341046     0.00020879     0.00001598     0.00026468
H        -0.08151019     2.78179036     0.04365763     0.00200666     0.00047514    -0.00055645
H         0.03255153     1.11124140     0.61674081     0.00122520    -0.00032289     0.00095268
    14
  Step:    13            Position(A)                                  Velocity(au)
C        -6.07402130    -0.62787233    -0.13837705    -0.00026762     0.00004477     0.00002873
C        -4.67300208    -0.78111382     0.12396471     0.00037931     0.00002655    -0.00012022
H        -6.38722362     0.38069608    -0.13259392     0.00010849     0.00021392     0.00027885
H        -6.81876419    -1.43213316    -0.04607270    -0.00087508    -0.00028983    -0.00007887
H        -4.20042363    -1.77439501     0.31207583     0.00052221     0.00084994     0.00058542
C        -3.92208820     0.33906961     0.03996638    -0.00071827    -0.00029318     0.00004723
C        -2.41479654     0.39471460     0.15067728     0.00063366     0.00038353    -0.00013838
H        -4.29226287     1.35079896    -0.18643202    -0.00017997    -0.00031140     0.00046467
H        -1.73434640    -0.49544277     0.33133773    -0.00006271    -0.00174761     0.00054905
C        -1.87481053     1.67059327    -0.12681705    -0.00040037    -0.00019147    -0.00022941
H        -2.54974820     2.36471608    -0.63431564    -0.00088005     0.00110216    -0.00070285
N        -0.58013824     1.90627998     0.29622401     0.00021705     0.00002324     0.00024881
H        -0.06018564     2.78600502     0.03786496     0.00185417     0.00024771    -0.00048894
H         0.04456983     1.10917581     0.62664871     0.00094491    -0.00003261     0.00084525
    14
  Step:    14            Position(A)                                  Velocity(au)
C        -6.07690830    -0.62752339    -0.13794278    -0.00026007     0.00001812     0.00005090
C        -4.66895165    -0.78096292     0.12259482     0.00035599    -0.00000101    -0.00013007
H        -6.38704244     0.38429038    -0.13006739    -0.00007275     0.00043332     0.00018362
H        -6.82789286    -1.43503975    -0.04725711    -0.00077809    -0.00022557    -0.00013812
H        -4.19526839    -1.76426035     0.31832651     0.00042685     0.00098039     0.00055712
C        -3.92978267     0.33593248     0.04047445    -0.00068070    -0.00027622     0.00004575
C        -2.40777593     0.39898030     0.14911393     0.00064396     0.00038946    -0.00014641
H        -4.29493020     1.34674164    -0.18127912    -0.00031453    -0.00042050     0.00047354
H        -1.73632561    -0.51330548     0.33754846    -0.00030858    -0.00148050     0.00057825
C        -1.87902919     1.66825036    -0.12919336    -0.00036811    -0.00023017    -0.00020658
H        -2.55853445     2.37757079    -0.64145370    -0.00069848     0.00120908    -0.00057916
N        -0.57770819     1.90658235     0.29885359     0.00022816     0.00003340     0.00023105
H        -0.04094660     2.78720938     0.03296112     0.00163418    -0.00005829    -0.00039817
H         0.05322322     1.11052808     0.63523233     0.00062194     0.00028761     0.00071667
    14
  Step:    15            Position(A)                                  Velocity(au)
C        -6.07971085    -0.62747597    -0.13726342    -0.00025220    -0.00000892     0.00007344
C        -4.66521410    -0.78113598     0.12111916     0.00032202    -0.00003214    -0.00013963
H        -6.38881512     0.39017586    -0.12857695    -0.00024400     0.00062008     0.00008957
H        -6.83578631    -1.43706786    -0.04909438    -0.00065356    -0.00013406    -0.00019752
H        -4.19108538    -1.75294719     0.32426399     0.00034725     0.00105955     0.00052952
C        -3.93697981     0.33302675     0.04096716    -0.00062810    -0.00025110     0.00004437
C        -2.40070860     0.40323484     0.14747418     0.00064203     0.00038199    -0.00015234
H        -4.29914388     1.34159973    -0.17607251    -0.00046190    -0.00050739     0.00047423
H        -1.74109709    -0.52783153     0.34398806    -0.00056555    -0.00114745     0.00059254
C        -1.88286361     1.66555779    -0.13133645    -0.00033004    -0.00025532    -0.00018668
H        -2.56502883     2.39116694    -0.64698584    -0.00046672     0.00124144    -0.00041319
N        -0.57514673     1.90701066     0.30127876     0.00023992     0.00004603     0.00021144
H        -0.02443480     2.78472981     0.02915426     0.00136517    -0.00040899    -0.00029294
H         0.05817591     1.11546780     0.64232718     0.00028018     0.00060931     0.00057934
    14
  Step:    16            Position(A)                                  Velocity(au)
C        -6.08242572    -0.62771862    -0.13633618    -0.00024402    -0.00003373     0.00009611
C        -4.66190673    -0.78166606     0.11954006     0.00027756    -0.00006561    -0.00014906
H        -6.39238043     0.39785575    -0.12810797    -0.00039683     0.00075201    -0.00000296
H        -6.84219082    -1.43797267    -0.05157816    -0.00051053    -0.00002537    -0.00025560
H        -4.18767156    -1.74108068     0.32991072     0.00028839     0.00107714     0.00050522
C        -3.94352359     0.33043927     0.04144514    -0.00056223    -0.00021849     0.00004301
C        -2.39373036     0.40733710     0.14578117     0.00062766     0.00036225    -0.00015617
H        -4.30503516     1.33564148    -0.17090440    -0.00062008    -0.00056824     0.00046647
H        -1.74869818    -0.53840806     0.35051135    -0.00081916    -0.00076819     0.00059523
C        -1.88624938     1.66266477    -0.13327734    -0.00028596    -0.00026696    -0.00016943
H        -2.56874492     2.40472967    -0.65049296    -0.00019696     0.00120800    -0.00021367
N        -0.57245958     1.90758929     0.30347932     0.00024992     0.00006067     0.00018998
H        -0.01108093     2.77826187     0.02655242     0.00106688    -0.00077117    -0.00018262
H         0.05935273     1.12385787     0.64790640    -0.00005654     0.00090465     0.00044609
    14
  Step:    17            Position(A)                                  Velocity(au)
C        -6.08504917    -0.62821383    -0.13516076    -0.00023539    -0.00005427     0.00011868
C        -4.65914204    -0.78257130     0.11785822     0.00022331    -0.00010001    -0.00015847
H        -6.39749644     0.40662754    -0.12864168    -0.00052521     0.00081475    -0.00009347
H        -6.84695517    -1.43762295    -0.05468611    -0.00035849     0.00009004    -0.00031095
H        -4.18477631    -1.72938268     0.33531665     0.00025359     0.00102659     0.00048641
C        -3.94927966     0.32824696     0.04190805    -0.00048527    -0.00017948     0.00004158
C        -2.38697731     0.41115965     0.14405768     0.00060100     0.00033164    -0.00015798
H        -4.31270937     1.32916848    -0.16586763    -0.00078630    -0.00060095     0.00045047
H        -1.75901781    -0.54463726     0.35700992    -0.00105658    -0.00036238     0.00058981
C        -1.88911948     1.65971746    -0.13504302    -0.00023565    -0.00026559    -0.00015439
H        -2.56933778     2.41759415    -0.65166019     0.00009770     0.00111958     0.00000954
N        -0.56967924     1.90833794     0.30543498     0.00025565     0.00007691     0.00016664
H        -0.00109475     2.76785902     0.02515907     0.00076003    -0.00111250    -0.00007696
H         0.05693901     1.13525882     0.65208635    -0.00036441     0.00114616     0.00033031
    14
  Step:    18            Position(A)                                  Velocity(au)
C        -6.08757531    -0.62890585    -0.13373980    -0.00022606    -0.00006924     0.00014087
C        -4.65702137    -0.78385389     0.11607317     0.00016058    -0.00013391    -0.00016795
H        -6.40387047     0.41567988    -0.13015285    -0.00062583     0.00080269    -0.00018128
H        -6.85003344    -1.43600286    -0.05838070    -0.00020700     0.00020173    -0.00036226
H        -4.18212378    -1.71862201     0.34055182     0.00024377     0.00090657     0.00047436
C        -3.95413980     0.32651271     0.04235482    -0.00039970    -0.00013551     0.00004003
C        -2.38058244     0.41459246     0.14232513     0.00056236     0.00029197    -0.00015794
H        -4.32223688     1.32249450    -0.16104950    -0.00095692    -0.00060559     0.00042700
H        -1.77181293    -0.54633591     0.36341447    -0.00126624     0.00005008     0.00058002
C        -1.89140466     1.65685451    -0.13665497    -0.00017897    -0.00025207    -0.00014103
H        -2.56660751     2.42922251    -0.65028416     0.00040427     0.00098813     0.00024627
N        -0.56686671     1.90927191     0.30712491     0.00025446     0.00009433     0.00014138
H         0.00554608     2.75392381     0.02486870     0.00046641    -0.00140123     0.00001375
H         0.05138054     1.14893233     0.65513261    -0.00061997     0.00130698     0.00024578
    14
  Step:    19            Position(A)                                  Velocity(au)
C        -6.08999468    -0.62972870    -0.13207892    -0.00021566    -0.00007803     0.00016242
C        -4.65562895    -0.78550091     0.11418403     0.00009119    -0.00016610    -0.00017746
H        -6.41118764     0.42418799    -0.13260760    -0.00069770     0.00071809    -0.00026553
H        -6.85148380    -1.43320962    -0.06261117    -0.00006537     0.00029966    -0.00040844
H        -4.17944331    -1.70954976     0.34569415     0.00025669     0.00072233     0.00046895
C        -3.95802393     0.32528236     0.04278368    -0.00030816    -0.00008820     0.00003828
C        -2.37467455     0.41754704     0.14060240     0.00051219     0.00024544    -0.00015637
H        -4.33364389     1.31592013    -0.15652617    -0.00112750    -0.00058456     0.00039734
H        -1.78671915    -0.54354174     0.36969906    -0.00143723     0.00044830     0.00057019
C        -1.89303478     1.65420305    -0.13812841    -0.00011590    -0.00022766    -0.00012874
H        -2.56049352     2.43921134    -0.64627263     0.00071027     0.00082627     0.00048640
N        -0.56411241     1.91040166     0.30852792     0.00024372     0.00011237     0.00011422
H         0.00910890     2.73720448     0.02545979     0.00020894    -0.00160612     0.00007864
H         0.04337595     1.16385140     0.65746325    -0.00080176     0.00136275     0.00020587
    14
  Step:    20            Position(A)                                  Velocity(au)
C        -6.09229326    -0.63061283    -0.13018666    -0.00020373    -0.00008054     0.00018306
C        -4.65502637    -0.78748754     0.11219086     0.00001740    -0.00019568    -0.00018685
H        -6.41913409     0.43138940    -0.13596189    -0.00074177     0.00056922    -0.00034529
H        -6.85146364    -1.42944728    -0.06731616     0.00005773     0.00037451    -0.00044869
H        -4.17650824    -1.70281958     0.35081094     0.00028647     0.00048641     0.00046823
C        -3.96088146     0.32458316     0.04319219    -0.00021334    -0.00003925     0.00003627
C        -2.36937737     0.41996188     0.13890413     0.00045094     0.00019478    -0.00015375
H        -4.34690311     1.30970622    -0.15235702    -0.00129273    -0.00054267     0.00036324
H        -1.80325505    -0.53652851     0.37588858    -0.00155893     0.00080984     0.00056543
C        -1.89394028     1.65187412    -0.13947147    -0.00004658    -0.00019405    -0.00011684
H        -2.55106898     2.44729884    -0.63964317     0.00100367     0.00064734     0.00071998
N        -0.56153492     1.91173013     0.30962367     0.00022112     0.00013012     0.00008536