 Fermi distribution function

Calculation with static geometry


********************************************************************************
 iSCC Total electronic   Diff electronic      SCC error    
   10   -0.53941169E+01   -0.87929664E-13    0.87856187E-06
********************************************************************************

 Total charge:     1.00000000

 Atomic gross charges (e)
 Atom           Charge
    1       0.29008147
    2      -0.17779682
    3       0.15414153
    4       0.31220270
    5       0.26881660
    6       0.15255451

Nr. of electrons (up):     12.00000000
Atom populations (up)
 Atom       Population
    1       3.70991853
    2       5.17779682
    3       0.84585847
    4       0.68779730
    5       0.73118340
    6       0.84744549

l-shell populations (up)
 Atom Sh.   l       Population
    1   1   0       1.29241924
    1   2   1       2.41749929
    2   1   0       1.41826253
    2   2   1       3.75953429
    3   1   0       0.84585847
    4   1   0       0.68779730
    5   1   0       0.73118340
    6   1   0       0.84744549

Orbital populations (up)
 Atom Sh.   l   m       Population  Label
    1   1   0   0       1.29241924  s
    1   2   1  -1       0.52651903  p_y
    1   2   1   0       0.90974979  p_z
    1   2   1   1       0.98123047  p_x
    2   1   0   0       1.41826253  s
    2   2   1  -1       1.28470991  p_y
    2   2   1   0       1.13611660  p_z
    2   2   1   1       1.33870778  p_x
    3   1   0   0       0.84585847  s
    4   1   0   0       0.68779730  s
    5   1   0   0       0.73118340  s
    6   1   0   0       0.84744549  s

Fermi level:                        -0.4883721487 H          -13.2893 eV
Band energy:                        -8.9025674200 H         -242.2512 eV
TS:                                  0.0000000000 H            0.0000 eV
Band free energy (E-TS):            -8.9025674200 H         -242.2512 eV
Extrapolated E(0K):                 -8.9025674200 H         -242.2512 eV
Input / Output electrons (q):     12.0000000000     12.0000000000

Energy H0:                          -5.5296710947 H         -150.4700 eV
Energy SCC:                          0.1355542426 H            3.6886 eV
Total Electronic energy:            -5.3941168520 H         -146.7814 eV
Repulsive energy:                    0.2077728556 H            5.6538 eV
Total energy:                       -5.1863439964 H         -141.1276 eV
Extrapolated to 0:                  -5.1863439964 H         -141.1276 eV
Total Mermin free energy:           -5.1863439964 H         -141.1276 eV
Force related energy:               -5.1863439964 H         -141.1276 eV

SCC converged

Excitation Energy:                   0.0919613725 H            2.5024 eV

Total Forces
    1     -0.016699511205     -0.007083406553     -0.021031250492
    2      0.009648738436     -0.011714082410      0.018633161671
    3      0.000739178036      0.016509062961      0.004349651637
    4     -0.006675166521     -0.007055846110      0.005641689962
    5      0.007280489970      0.017757911091     -0.000944591127
    6      0.005706271284     -0.008413638980     -0.006648661652

Maximal derivative component:        0.210313E-01 au


