|===============================================================================
|
|  DFTB+ release 20.1
|
|  Copyright (C) 2006 - 2020  DFTB+ developers group
|
|===============================================================================
|
|  When publishing results obtained with DFTB+, please cite the following
|  reference:
|
|  * DFTB+, a software package for efficient approximate density functional
|    theory based atomistic simulations, J. Chem. Phys. 152, 124101 (2020).
|    [doi: 10.1063/1.5143190]
|
|  You should also cite additional publications crediting the parametrization
|  data you use. Please consult the documentation of the SK-files for the
|  references.
|
|===============================================================================

Reading input file 'dftb_in.hsd'
Parser version: 8

--------------------------------------------------------------------------------
Reading SK-files:
Done.


Processed input in HSD format written to 'dftb_pin.hsd'

Starting initialization...
--------------------------------------------------------------------------------
OpenMP threads:              1
Chosen random seed:          500787392
Mode:                        Static calculation
Self consistent charges:     Yes
SCC-tolerance:                 0.100000E-05
Max. scc iterations:                   1000
Shell resolved Hubbard:      No
Spin polarisation:           No
Nr. of up electrons:            16.000000
Nr. of down electrons:          16.000000
Periodic boundaries:         No
Electronic solver:           Relatively robust
Maximal SCC-cycles:                    1000
Initial charges:             Set automatically (system chrg:   0.100E+01)
Included shells:             C:  s, p
                             H:  s
                             N:  s, p
Spin coupling constants:     C   1(s)-1(s):  -0.455900E-01
                             C   1(s)-2(p):  -0.293000E-01
                             C   2(p)-1(s):  -0.293000E-01
                             C   2(p)-2(p):  -0.275500E-01
                             H   1(s)-1(s):  -0.792500E-01
                             N   1(s)-1(s):  -0.468700E-01
                             N   1(s)-2(p):  -0.317000E-01
                             N   2(p)-1(s):  -0.317000E-01
                             N   2(p)-2(p):  -0.307200E-01
Range separated hybrid:      Yes
  Screening parameter omega:   0.300000E+00
  Range separated algorithm:   MatrixBased
Extra options:
                             Mulliken analysis
                             Force calculation
Force type                   original
                             Eigenvector printing


REKS Calcuation:             Yes
SSR(2,2) Calcuation:         Yes
Energy Functional:           (PPS+OSS)/2
Number of Core Orbitals:                 15
Number of Active Orbitals:                2
Number of Basis:                         32
Number of States:                         2
State-Averaging Weight:          0.500000
                                 0.500000
State of Interest:                        1
Initial Guess:               Diagonalize H0 matrix
Newton-Raphson for FON opt:  Yes
NR max. Iterations:                      50
Level Shifting:              Yes
Shift Value:                     0.300000
W Scale Factor:              C  =    3.200000
                             H  =    3.200000
                             N  =    3.200000
Transition Dipole:           No
Gradient of Microstate:      No
CP-REKS Solver:              Preconditioned Conjugate-Gradient
CG max. Iterations:                     100
CG Tolerance:                  0.100000E-07
Memory for A and Hxc:        Direct Updating Without Saving
Non-Adiabatic Coupling:      Yes

--------------------------------------------------------------------------------

***  Geometry step: 0

  iSCC       reks energy        Diff energy         x_a       SCC error   
    1      -16.3775741152       0.0000000000     0.997748    1.23861597
    2      -16.4001453401      -0.0225712249     0.999253    0.06271777
    3      -16.4057296896      -0.0055843495     0.999751    0.03405259
    4      -16.4081737668      -0.0024440772     0.999897    0.02056116
    5      -16.4094984344      -0.0013246677     0.999949    0.01298207
    6      -16.4103151279      -0.0008166935     0.999972    0.00840219
    7      -16.4108699834      -0.0005548555     0.999983    0.00627991
    8      -16.4112739189      -0.0004039355     0.999989    0.00505604
    9      -16.4115817343      -0.0003078154     0.999992    0.00473695
   10      -16.4118231787      -0.0002414443     0.999994    0.00438145
   11      -16.4120159602      -0.0001927815     0.999996    0.00401401
   12      -16.4121715381      -0.0001555780     0.999997    0.00365155
   13      -16.4122978696      -0.0001263314     0.999997    0.00330467
   14      -16.4124007950      -0.0001029254     0.999998    0.00297942
   15      -16.4124847807      -0.0000839858     0.999998    0.00267870
   16      -16.4125533415      -0.0000685608     0.999999    0.00240340
   17      -16.4126092958      -0.0000559544     0.999999    0.00215314
   18      -16.4126549313      -0.0000456354     0.999999    0.00192681
   19      -16.4126921173      -0.0000371860     0.999999    0.00172288
   20      -16.4127223877      -0.0000302703     0.999999    0.00153964
   21      -16.4127470025      -0.0000246148     0.999999    0.00137534
   22      -16.4127669975      -0.0000199950     0.999999    0.00122825
   23      -16.4127832233      -0.0000162259     0.999999    0.00109671
   24      -16.4127963780      -0.0000131546     0.999999    0.00097917
   25      -16.4128070332      -0.0000106553     1.000000    0.00088653
   26      -16.4128156569      -0.0000086237     1.000000    0.00080492
   27      -16.4128226311      -0.0000069742     1.000000    0.00072992
   28      -16.4128282674      -0.0000056363     1.000000    0.00066119
   29      -16.4128328197      -0.0000045523     1.000000    0.00059837
   30      -16.4128364945      -0.0000036747     1.000000    0.00054106
   31      -16.4128394593      -0.0000029648     1.000000    0.00048889
   32      -16.4128418503      -0.0000023910     1.000000    0.00044146
   33      -16.4128437777      -0.0000019274     1.000000    0.00039840
   34      -16.4128453309      -0.0000015532     1.000000    0.00035936
   35      -16.4128465822      -0.0000012512     1.000000    0.00032399
   36      -16.4128475899      -0.0000010077     1.000000    0.00029199
   37      -16.4128484012      -0.0000008114     1.000000    0.00026305
   38      -16.4128490543      -0.0000006531     1.000000    0.00023691
   39      -16.4128495800      -0.0000005256     1.000000    0.00021329
   40      -16.4128500030      -0.0000004230     1.000000    0.00019198
   41      -16.4128503433      -0.0000003403     1.000000    0.00017276
   42      -16.4128506170      -0.0000002738     1.000000    0.00015543
   43      -16.4128508372      -0.0000002202     1.000000    0.00013980
   44      -16.4128510143      -0.0000001771     1.000000    0.00012573
   45      -16.4128511568      -0.0000001424     1.000000    0.00011305
   46      -16.4128512713      -0.0000001145     1.000000    0.00010164
   47      -16.4128513634      -0.0000000921     1.000000    0.00009136
   48      -16.4128514375      -0.0000000741     1.000000    0.00008211
   49      -16.4128514970      -0.0000000595     1.000000    0.00007379
   50      -16.4128515449      -0.0000000479     1.000000    0.00006631
   51      -16.4128515833      -0.0000000385     1.000000    0.00005958
   52      -16.4128516143      -0.0000000309     1.000000    0.00005352
   53      -16.4128516392      -0.0000000249     1.000000    0.00004808
   54      -16.4128516591      -0.0000000200     1.000000    0.00004319
   55      -16.4128516752      -0.0000000161     1.000000    0.00003879
   56      -16.4128516881      -0.0000000129     1.000000    0.00003483
   57      -16.4128516985      -0.0000000104     1.000000    0.00003128
   58      -16.4128517069      -0.0000000083     1.000000    0.00002809
   59      -16.4128517136      -0.0000000067     1.000000    0.00002522
   60      -16.4128517190      -0.0000000054     1.000000    0.00002265
   61      -16.4128517233      -0.0000000043     1.000000    0.00002033
   62      -16.4128517268      -0.0000000035     1.000000    0.00001825
   63      -16.4128517296      -0.0000000028     1.000000    0.00001639
   64      -16.4128517319      -0.0000000023     1.000000    0.00001471
   65      -16.4128517337      -0.0000000018     1.000000    0.00001320
   66      -16.4128517351      -0.0000000015     1.000000    0.00001185
   67      -16.4128517363      -0.0000000012     1.000000    0.00001064
   68      -16.4128517372      -0.0000000009     1.000000    0.00000955
   69      -16.4128517380      -0.0000000008     1.000000    0.00000857
   70      -16.4128517386      -0.0000000006     1.000000    0.00000769
   71      -16.4128517391      -0.0000000005     1.000000    0.00000690
   72      -16.4128517395      -0.0000000004     1.000000    0.00000619
   73      -16.4128517398      -0.0000000003     1.000000    0.00000556
   74      -16.4128517401      -0.0000000003     1.000000    0.00000499
   75      -16.4128517403      -0.0000000002     1.000000    0.00000448
   76      -16.4128517404      -0.0000000002     1.000000    0.00000402
   77      -16.4128517406      -0.0000000001     1.000000    0.00000360
   78      -16.4128517407      -0.0000000001     1.000000    0.00000323
   79      -16.4128517408      -0.0000000001     1.000000    0.00000290
   80      -16.4128517408      -0.0000000001     1.000000    0.00000260
   81      -16.4128517409      -0.0000000001     1.000000    0.00000234
   82      -16.4128517409      -0.0000000000     1.000000    0.00000210
   83      -16.4128517410      -0.0000000000     1.000000    0.00000188
   84      -16.4128517410      -0.0000000000     1.000000    0.00000169
   85      -16.4128517410      -0.0000000000     1.000000    0.00000151
   86      -16.4128517410      -0.0000000000     1.000000    0.00000136
   87      -16.4128517410      -0.0000000000     1.000000    0.00000122
   88      -16.4128517411      -0.0000000000     1.000000    0.00000109
   89      -16.4128517411      -0.0000000000     1.000000    0.00000098
  
--------------------------------------------------
 Final SA-REKS(2,2) energy:     -16.41285174
  
 State     Energy      FON(1)    FON(2)   Spin
  PPS  -16.48737841   2.000000  0.000000  0.00
  OSS  -16.33832508   1.000000  1.000000  0.00
 Trip  -16.36884344   1.000000  1.000000  1.00
--------------------------------------------------

 Lagrangian Wab:   0.00329769  0.00329729

--------------------------------------------------
 SSR: 2SI-2SA-REKS(2,2) Hamiltonian matrix
               PPS           OSS
   PPS   -16.48737841    0.00466136
   OSS     0.00466136  -16.33832508
--------------------------------------------------

----------------------------------------------------------------
 SSR: 2SI-2SA-REKS(2,2) states
                    E_n       C_{PPS}    C_{OSS}
 SSR state  1  -16.48752404  -0.999512   0.031227
 SSR state  2  -16.33817944  -0.031227  -0.999512
----------------------------------------------------------------

 unrelaxed SSR FONs for S0:  1.999024  0.000976

Total Energy:                      -16.4875240400 H         -448.6484 eV
Extrapolated to 0:                 -16.4875240400 H         -448.6484 eV

----------------------------------------------------------------------------------
 Solving CP-REKS equation for  1 state vector...
----------------------------------------------------------------------------------
  CG solver: Constructing Y initial guess
  CG solver: Iteration    1    eps =    0.000265948271
  CG solver: Iteration    2    eps =    0.000049287350
  CG solver: Iteration    3    eps =    0.000025747404
  CG solver: Iteration    4    eps =    0.000001661079
  CG solver: Iteration    5    eps =    0.000000073172
  CG solver: Iteration    6    eps =    0.000000034716
  CG solver: Iteration    7    eps =    0.000000005840
  Convergence reached in CG solver after    7 iterations
  CG solver: Calculating converged R, Z, Q2 matrix
----------------------------------------------------------------------------------

----------------------------------------------------------------------------------
 Solving CP-REKS equation for SI between  1 and  2 state vectors...
----------------------------------------------------------------------------------
  CG solver: Constructing Y initial guess
  CG solver: Iteration    1    eps =    0.037422453765
  CG solver: Iteration    2    eps =    0.002456175152
  CG solver: Iteration    3    eps =    0.000283137500
  CG solver: Iteration    4    eps =    0.000217715366
  CG solver: Iteration    5    eps =    0.000037400214
  CG solver: Iteration    6    eps =    0.000004352197
  CG solver: Iteration    7    eps =    0.000000631699
  CG solver: Iteration    8    eps =    0.000000018331
  CG solver: Iteration    9    eps =    0.000000006013
  Convergence reached in CG solver after    9 iterations
  CG solver: Calculating converged R, Z, Q2 matrix
----------------------------------------------------------------------------------

--------------------------------------------------
 Gradient Information
--------------------------------------------------
           1 st state (SSR)
    -0.03938276     0.02475895     0.01735252
     0.08238968     0.00125530     0.05342149
     0.02129903     0.02596068    -0.00461423
    -0.01990105    -0.01787709    -0.02361870
     0.00197211    -0.00931452    -0.02669455
     0.00377202     0.01521777    -0.02481638
    -0.07415769     0.05830949    -0.01234969
     0.02786842    -0.05603877     0.02755520
     0.00603680    -0.00528280     0.00905690
     0.00838760    -0.08512914    -0.07074332
     0.01028641     0.00501559     0.00744639
     0.02182296     0.04891325     0.04387652
    -0.01279578     0.00662571     0.00684400
    -0.03759775    -0.01241441    -0.00271615

           2 st state (SSR)
    -0.05109213     0.06376647     0.01639405
     0.07357074    -0.05595122     0.04960377
     0.02093050     0.02529159    -0.00423725
    -0.01934615    -0.01791119    -0.02042126
     0.00167447    -0.00922373    -0.02354139
     0.05911196     0.02788643    -0.01408631
    -0.10138733     0.07151720    -0.01306705
     0.03168415    -0.05792053     0.01920009
     0.01011399    -0.00462350    -0.00663171
     0.11560934    -0.14663768    -0.14056697
     0.01437833     0.00837933     0.00314183
    -0.11409707     0.11309020     0.12132030
    -0.00413200     0.00618106     0.01062945
    -0.03701880    -0.02384444     0.00226244
--------------------------------------------------
 Coupling Information
--------------------------------------------------
 between  1 and  2 states
--------------------------------------------------
 g vector - difference gradient
     0.00583486    -0.01950385     0.00058534
     0.00461538     0.02899064     0.00167233
     0.00026284     0.00037856    -0.00018398
    -0.00025533     0.00003669    -0.00162350
     0.00015668    -0.00003628    -0.00154661
    -0.03026757    -0.00662055    -0.00643054
     0.01602701    -0.00622985     0.00181744
    -0.00200155     0.00100351     0.00452993
    -0.00183003    -0.00021217     0.00747270
    -0.05158398     0.02876825     0.03291518
    -0.00215828    -0.00140082     0.00189699
     0.06560426    -0.03091374    -0.03693533
    -0.00408908     0.00013476    -0.00170475
    -0.00031519     0.00560484    -0.00246521

 h vector - derivative coupling
    -0.00049993     0.00060794     0.00168147
     0.00315436     0.00529985    -0.00384132
     0.00125046     0.00069326     0.00007806
     0.00036230     0.00031346    -0.00034622
     0.00012103     0.00014711     0.00052850
    -0.04066635    -0.00437816    -0.01686786
     0.03814117     0.00618609     0.02331163
    -0.00143829     0.00097199     0.00550335
     0.00339826     0.00188857    -0.00618633
     0.03408115    -0.03271360    -0.03301350
    -0.00173182     0.00454596    -0.00414884
    -0.03978750     0.01978447     0.02977364
     0.00401735    -0.00140696     0.00306453
    -0.00040221    -0.00193997     0.00046289

 G vector - GDV
     0.00585468    -0.01950376     0.00047924
     0.00440947     0.02860326     0.00190886
     0.00018426     0.00033455    -0.00018849
    -0.00027745     0.00001705    -0.00159872
     0.00014882    -0.00004539    -0.00157658
    -0.02766997    -0.00633433    -0.00536504
     0.01361482    -0.00660386     0.00035868
    -0.00190786     0.00094088     0.00417756
    -0.00203859    -0.00032965     0.00784431
    -0.05361087     0.03075427     0.03491183
    -0.00204596    -0.00168187     0.00215228
     0.06796002    -0.03208848    -0.03872189
    -0.00433189     0.00022232    -0.00189273
    -0.00028947     0.00571501    -0.00248929

 H vector - DCV - non-adiabatic coupling
    -0.00090205    -0.00408960     0.01148169
     0.02300935     0.04753590    -0.02497199
     0.00846650     0.00479123     0.00044476
     0.00231446     0.00211013    -0.00299235
     0.00087434     0.00096793     0.00288542
    -0.28441916    -0.03202597    -0.11541354
     0.26159134     0.03873677     0.15654811
    -0.01044851     0.00691512     0.03867161
     0.02194521     0.01253236    -0.03821891
     0.20619823    -0.20659575    -0.20686658
    -0.01247567     0.02979451    -0.02693323
    -0.23847264     0.11929537     0.18353470
     0.02513824    -0.00934621     0.01976729
    -0.00281963    -0.01062178     0.00206302
--------------------------------------------------


--------------------------------------------------------------------------------
DFTB+ running times                          cpu [s]             wall clock [s]
--------------------------------------------------------------------------------
SCC                                    +     0.13  ( 33.5%)      0.13  ( 33.5%)
      Dense to sparse                        0.02  (  6.3%)      0.03  (  6.7%)
      Range separated Hamiltonian            0.01  (  2.9%)      0.01  (  3.1%)
  Density matrix creation                    0.01  (  3.6%)      0.01  (  3.1%)
Post-SCC processing                    +     0.25  ( 66.0%)      0.25  ( 65.5%)
  Force calculation                          0.25  ( 66.0%)      0.25  ( 65.2%)
--------------------------------------------------------------------------------
Missing                                +     0.00  (  0.5%)      0.00  (  1.0%)
Total                                  =     0.38  (100.0%)      0.39  (100.0%)
--------------------------------------------------------------------------------
