|===============================================================================
|
|  DFTB+ release 20.1
|
|  Copyright (C) 2006 - 2020  DFTB+ developers group
|
|===============================================================================
|
|  When publishing results obtained with DFTB+, please cite the following
|  reference:
|
|  * DFTB+, a software package for efficient approximate density functional
|    theory based atomistic simulations, J. Chem. Phys. 152, 124101 (2020).
|    [doi: 10.1063/1.5143190]
|
|  You should also cite additional publications crediting the parametrization
|  data you use. Please consult the documentation of the SK-files for the
|  references.
|
|===============================================================================

Reading input file 'dftb_in.hsd'
Parser version: 8

--------------------------------------------------------------------------------
Reading SK-files:
Done.


Processed input in HSD format written to 'dftb_pin.hsd'

Starting initialization...
--------------------------------------------------------------------------------
OpenMP threads:              1
Chosen random seed:          503145689
Mode:                        Static calculation
Self consistent charges:     Yes
SCC-tolerance:                 0.100000E-05
Max. scc iterations:                   1000
Shell resolved Hubbard:      No
Spin polarisation:           No
Nr. of up electrons:            16.000000
Nr. of down electrons:          16.000000
Periodic boundaries:         No
Electronic solver:           Relatively robust
Maximal SCC-cycles:                    1000
Initial charges:             Set automatically (system chrg:   0.100E+01)
Included shells:             C:  s, p
                             H:  s
                             N:  s, p
Spin coupling constants:     C   1(s)-1(s):  -0.455900E-01
                             C   1(s)-2(p):  -0.293000E-01
                             C   2(p)-1(s):  -0.293000E-01
                             C   2(p)-2(p):  -0.275500E-01
                             H   1(s)-1(s):  -0.792500E-01
                             N   1(s)-1(s):  -0.468700E-01
                             N   1(s)-2(p):  -0.317000E-01
                             N   2(p)-1(s):  -0.317000E-01
                             N   2(p)-2(p):  -0.307200E-01
Range separated hybrid:      Yes
  Screening parameter omega:   0.300000E+00
  Range separated algorithm:   MatrixBased
Extra options:
                             Mulliken analysis
                             Force calculation
Force type                   original
                             Eigenvector printing


REKS Calcuation:             Yes
SSR(2,2) Calcuation:         Yes
Energy Functional:           (PPS+OSS)/2
Number of Core Orbitals:                 15
Number of Active Orbitals:                2
Number of Basis:                         32
Number of States:                         2
State-Averaging Weight:          0.500000
                                 0.500000
State of Interest:                        1
Initial Guess:               Diagonalize H0 matrix
Newton-Raphson for FON opt:  Yes
NR max. Iterations:                      50
Level Shifting:              Yes
Shift Value:                     0.300000
W Scale Factor:              C  =    3.200000
                             H  =    3.200000
                             N  =    3.200000
Transition Dipole:           No
Gradient of Microstate:      No
CP-REKS Solver:              Preconditioned Conjugate-Gradient
CG max. Iterations:                     100
CG Tolerance:                  0.100000E-07
Memory for A and Hxc:        Direct Updating Without Saving
Non-Adiabatic Coupling:      Yes

--------------------------------------------------------------------------------

***  Geometry step: 0

  iSCC       reks energy        Diff energy         x_a       SCC error   
    1      -16.3882004497       0.0000000000     0.991191    1.18124793
    2      -16.4051010707      -0.0169006210     0.998742    0.05192388
    3      -16.4085601042      -0.0034590335     0.999488    0.01936378
    4      -16.4098544461      -0.0012943419     0.999699    0.01215639
    5      -16.4104744214      -0.0006199753     0.999790    0.00845733
    6      -16.4108094188      -0.0003349975     0.999837    0.00616506
    7      -16.4110046450      -0.0001952262     0.999865    0.00460980
    8      -16.4111249577      -0.0001203127     0.999882    0.00351220
    9      -16.4112026744      -0.0000777168     0.999893    0.00272014
   10      -16.4112550404      -0.0000523660     0.999901    0.00213877
   11      -16.4112916959      -0.0000366555     0.999906    0.00170554
   12      -16.4113182307      -0.0000265348     0.999910    0.00137805
   13      -16.4113379962      -0.0000197654     0.999913    0.00112706
   14      -16.4113530694      -0.0000150733     0.999915    0.00093214
   15      -16.4113647826      -0.0000117132     0.999917    0.00077880
   16      -16.4113740199      -0.0000092373     0.999918    0.00065667
   17      -16.4113813882      -0.0000073683     0.999920    0.00055823
   18      -16.4113873177      -0.0000059295     0.999921    0.00047801
   19      -16.4113921217      -0.0000048040     0.999921    0.00041194
   20      -16.4113960345      -0.0000039128     0.999922    0.00035699
   21      -16.4113992345      -0.0000032000     0.999922    0.00031088
   22      -16.4114018603      -0.0000026257     0.999923    0.00027386
   23      -16.4114040205      -0.0000021602     0.999923    0.00024300
   24      -16.4114058015      -0.0000017811     0.999924    0.00021618
   25      -16.4114072727      -0.0000014712     0.999924    0.00019273
   26      -16.4114084898      -0.0000012171     0.999924    0.00017330
   27      -16.4114094980      -0.0000010082     0.999925    0.00015784
   28      -16.4114103341      -0.0000008361     0.999925    0.00014351
   29      -16.4114110283      -0.0000006942     0.999925    0.00013248
   30      -16.4114116051      -0.0000005768     0.999925    0.00012237
   31      -16.4114120849      -0.0000004798     0.999926    0.00011296
   32      -16.4114124842      -0.0000003993     0.999926    0.00010422
   33      -16.4114128168      -0.0000003326     0.999926    0.00009611
   34      -16.4114130940      -0.0000002772     0.999926    0.00008860
   35      -16.4114133252      -0.0000002312     0.999926    0.00008165
   36      -16.4114135181      -0.0000001929     0.999926    0.00007522
   37      -16.4114136791      -0.0000001611     0.999926    0.00006928
   38      -16.4114138137      -0.0000001345     0.999927    0.00006380
   39      -16.4114139261      -0.0000001124     0.999927    0.00005874
   40      -16.4114140201      -0.0000000940     0.999927    0.00005407
   41      -16.4114140987      -0.0000000786     0.999927    0.00004977
   42      -16.4114141645      -0.0000000658     0.999927    0.00004580
   43      -16.4114142195      -0.0000000551     0.999927    0.00004214
   44      -16.4114142656      -0.0000000461     0.999927    0.00003877
   45      -16.4114143043      -0.0000000386     0.999927    0.00003567
   46      -16.4114143366      -0.0000000323     0.999927    0.00003281
   47      -16.4114143637      -0.0000000271     0.999927    0.00003018
   48      -16.4114143864      -0.0000000227     0.999927    0.00002775
   49      -16.4114144055      -0.0000000191     0.999927    0.00002552
   50      -16.4114144215      -0.0000000160     0.999927    0.00002347
   51      -16.4114144349      -0.0000000134     0.999927    0.00002158
   52      -16.4114144461      -0.0000000112     0.999928    0.00001984
   53      -16.4114144555      -0.0000000094     0.999928    0.00001823
   54      -16.4114144635      -0.0000000079     0.999928    0.00001676
   55      -16.4114144701      -0.0000000066     0.999928    0.00001541
   56      -16.4114144757      -0.0000000056     0.999928    0.00001416
   57      -16.4114144804      -0.0000000047     0.999928    0.00001301
   58      -16.4114144843      -0.0000000039     0.999928    0.00001196
   59      -16.4114144876      -0.0000000033     0.999928    0.00001099
   60      -16.4114144904      -0.0000000028     0.999928    0.00001010
   61      -16.4114144927      -0.0000000023     0.999928    0.00000928
   62      -16.4114144947      -0.0000000020     0.999928    0.00000852
   63      -16.4114144963      -0.0000000016     0.999928    0.00000783
   64      -16.4114144977      -0.0000000014     0.999928    0.00000719
   65      -16.4114144989      -0.0000000012     0.999928    0.00000661
   66      -16.4114144999      -0.0000000010     0.999928    0.00000607
   67      -16.4114145007      -0.0000000008     0.999928    0.00000557
   68      -16.4114145014      -0.0000000007     0.999928    0.00000512
   69      -16.4114145019      -0.0000000006     0.999928    0.00000470
   70      -16.4114145024      -0.0000000005     0.999928    0.00000432
   71      -16.4114145028      -0.0000000004     0.999928    0.00000396
   72      -16.4114145032      -0.0000000003     0.999928    0.00000364
   73      -16.4114145035      -0.0000000003     0.999928    0.00000334
   74      -16.4114145037      -0.0000000002     0.999928    0.00000307
   75      -16.4114145039      -0.0000000002     0.999928    0.00000282
   76      -16.4114145041      -0.0000000002     0.999928    0.00000259
   77      -16.4114145042      -0.0000000001     0.999928    0.00000238
   78      -16.4114145044      -0.0000000001     0.999928    0.00000218
   79      -16.4114145045      -0.0000000001     0.999928    0.00000200
   80      -16.4114145046      -0.0000000001     0.999928    0.00000184
   81      -16.4114145046      -0.0000000001     0.999928    0.00000169
   82      -16.4114145047      -0.0000000001     0.999928    0.00000155
   83      -16.4114145047      -0.0000000001     0.999928    0.00000142
   84      -16.4114145048      -0.0000000000     0.999928    0.00000131
   85      -16.4114145048      -0.0000000000     0.999928    0.00000120
   86      -16.4114145048      -0.0000000000     0.999928    0.00000110
   87      -16.4114145049      -0.0000000000     0.999928    0.00000101
   88      -16.4114145049      -0.0000000000     0.999928    0.00000093
  
--------------------------------------------------
 Final SA-REKS(2,2) energy:     -16.41141450
  
 State     Energy      FON(1)    FON(2)   Spin
  PPS  -16.46689534   1.999856  0.000144  0.00
  OSS  -16.35593367   1.000000  1.000000  0.00
 Trip  -16.39688515   1.000000  1.000000  1.00
--------------------------------------------------

 Lagrangian Wab:  -0.00675546 -0.00675522

--------------------------------------------------
 SSR: 2SI-2SA-REKS(2,2) Hamiltonian matrix
               PPS           OSS
   PPS   -16.46689534   -0.00947222
   OSS    -0.00947222  -16.35593367
--------------------------------------------------

----------------------------------------------------------------
 SSR: 2SI-2SA-REKS(2,2) states
                    E_n       C_{PPS}    C_{OSS}
 SSR state  1  -16.46769813  -0.996428  -0.084449
 SSR state  2  -16.35513088   0.084449  -0.996428
----------------------------------------------------------------

 unrelaxed SSR FONs for S0:  1.992725  0.007275

Total Energy:                      -16.4676981272 H         -448.1089 eV
Extrapolated to 0:                 -16.4676981272 H         -448.1089 eV

----------------------------------------------------------------------------------
 Solving CP-REKS equation for  1 state vector...
----------------------------------------------------------------------------------
  CG solver: Constructing Y initial guess
  CG solver: Iteration    1    eps =    0.000203825664
  CG solver: Iteration    2    eps =    0.000359820688
  CG solver: Iteration    3    eps =    0.000019127044
  CG solver: Iteration    4    eps =    0.000006356463
  CG solver: Iteration    5    eps =    0.000000579843
  CG solver: Iteration    6    eps =    0.000000169562
  CG solver: Iteration    7    eps =    0.000000015941
  CG solver: Iteration    8    eps =    0.000000010088
  CG solver: Iteration    9    eps =    0.000000004098
  Convergence reached in CG solver after    9 iterations
  CG solver: Calculating converged R, Z, Q2 matrix
----------------------------------------------------------------------------------

----------------------------------------------------------------------------------
 Solving CP-REKS equation for SI between  1 and  2 state vectors...
----------------------------------------------------------------------------------
  CG solver: Constructing Y initial guess
  CG solver: Iteration    1    eps =    0.037188865233
  CG solver: Iteration    2    eps =    0.005437051317
  CG solver: Iteration    3    eps =    0.002807645859
  CG solver: Iteration    4    eps =    0.000106866026
  CG solver: Iteration    5    eps =    0.000031961699
  CG solver: Iteration    6    eps =    0.000015223498
  CG solver: Iteration    7    eps =    0.000005142614
  CG solver: Iteration    8    eps =    0.000001210163
  CG solver: Iteration    9    eps =    0.000000223357
  CG solver: Iteration   10    eps =    0.000000018473
  CG solver: Iteration   11    eps =    0.000000002270
  Convergence reached in CG solver after   11 iterations
  CG solver: Calculating converged R, Z, Q2 matrix
----------------------------------------------------------------------------------

--------------------------------------------------
 Gradient Information
--------------------------------------------------
           1 st state (SSR)
    -0.00963968    -0.02484677     0.06698340
    -0.05984360    -0.01479837    -0.00692667
     0.00778459     0.01800165    -0.00663397
     0.00291691    -0.00731925    -0.01146891
     0.01433871     0.01347205    -0.01141291
    -0.00260903     0.02225959    -0.05409128
     0.05967711    -0.05121365     0.09619730
    -0.00331940    -0.01009232    -0.02252869
     0.00575319     0.05084771    -0.05563893
    -0.02001668     0.02824486     0.04572494
    -0.03297031    -0.02442336     0.00893302
    -0.01566406    -0.00987014    -0.01488231
     0.03333322     0.02113759     0.03189428
     0.02025905    -0.01139961    -0.06614926

           2 st state (SSR)
    -0.01002794    -0.02162691     0.04115280
    -0.06515554    -0.03413546     0.01610807
     0.01094860     0.01151527    -0.00882376
    -0.00304464     0.00020974    -0.00964552
     0.01724373     0.00684685    -0.00989380
     0.03991847     0.05169994    -0.01910563
     0.01652077    -0.06075383     0.04890970
    -0.00415757    -0.00357473    -0.02240331
     0.01609459     0.04059184    -0.05592984
     0.03193019     0.03294357     0.05148932
    -0.03158031    -0.01798761     0.01077750
    -0.07398644    -0.01710794    -0.00576349
     0.03630819     0.01892927     0.03411230
     0.01898789    -0.00755000    -0.07098436
--------------------------------------------------
 Coupling Information
--------------------------------------------------
 between  1 and  2 states
--------------------------------------------------
 g vector - difference gradient
     0.00047810    -0.00211386     0.01411389
     0.00451221     0.01335582    -0.01484691
    -0.00161515     0.00297621     0.00100477
     0.00292800    -0.00352592    -0.00089568
    -0.00099720     0.00258137    -0.00064983
    -0.03414909    -0.01933441    -0.01892123
     0.03226348     0.00793618     0.02952788
     0.00090610    -0.00405602    -0.00014120
    -0.00546843     0.00566275     0.00062135
    -0.02307963    -0.00328313    -0.00683275
    -0.00082138    -0.00306001    -0.00086818
     0.02564961     0.00373671    -0.00327414
    -0.00128125     0.00110071    -0.00097304
     0.00067463    -0.00197642     0.00213506

 h vector - derivative coupling
    -0.00164680     0.00281517    -0.00592585
    -0.01064731    -0.02077774     0.01852571
     0.00006006     0.00183865     0.00062068
     0.00056176    -0.00171645    -0.00017107
    -0.00278996     0.00456370    -0.00070709
     0.07367010     0.02577900     0.00688395
    -0.06075741    -0.01814022    -0.03246052
    -0.00281707     0.00439333     0.00045451
     0.00130561    -0.00269795    -0.00277508
    -0.01915097     0.00527019     0.02289501
     0.00068133    -0.00119739    -0.00039479
     0.02303955    -0.00038329    -0.00791455
    -0.00133405     0.00011379    -0.00089041
    -0.00017486     0.00013921     0.00185950

 G vector - GDV
     0.00019413    -0.00160993     0.01291530
     0.00265597     0.00966855    -0.01151737
    -0.00158201     0.00324319     0.00109489
     0.00298078    -0.00376450    -0.00091169
    -0.00145251     0.00331260    -0.00075956
    -0.02126375    -0.01472018    -0.01749283
     0.02157817     0.00477009     0.02364380
     0.00041908    -0.00325879    -0.00006269
    -0.00517070     0.00512793     0.00014546
    -0.02597344    -0.00234936    -0.00288219
    -0.00069500    -0.00321788    -0.00092224
     0.02916119     0.00361890    -0.00455941
    -0.00148748     0.00110416    -0.00110901
     0.00063558    -0.00192480     0.00241755

 H vector - DCV - non-adiabatic coupling
    -0.01513562     0.02781239    -0.07299292
    -0.09998310    -0.20191567     0.18442425
     0.00294069     0.01165123     0.00393301
     0.00054176    -0.00975928    -0.00015898
    -0.02294042     0.03610446    -0.00522036
     0.69617435     0.25464939     0.08857016
    -0.58028047    -0.17071660    -0.32839837
    -0.02602342     0.04453583     0.00419117
     0.01960870    -0.03209172    -0.02522997
    -0.13319720     0.05105881     0.21070396
     0.00719436    -0.00591049    -0.00215917
     0.16340677    -0.00894303    -0.06441170
    -0.00976661    -0.00064920    -0.00634247
    -0.00253980     0.00417388     0.01309141
--------------------------------------------------


--------------------------------------------------------------------------------
DFTB+ running times                          cpu [s]             wall clock [s]
--------------------------------------------------------------------------------
SCC                                    +     0.12  ( 29.6%)      0.13  ( 29.3%)
      Sparse to dense                        0.01  (  1.6%)      0.01  (  2.3%)
      Dense to sparse                        0.02  (  5.8%)      0.03  (  7.4%)
      Range separated Hamiltonian            0.01  (  2.6%)      0.01  (  1.2%)
  Density matrix creation                    0.01  (  3.3%)      0.02  (  3.9%)
Post-SCC processing                    +     0.29  ( 70.1%)      0.30  ( 68.6%)
  Force calculation                          0.29  ( 70.0%)      0.29  ( 68.1%)
--------------------------------------------------------------------------------
Missing                                +     0.00  (  0.3%)      0.01  (  2.1%)
Total                                  =     0.42  (100.0%)      0.43  (100.0%)
--------------------------------------------------------------------------------
