    14
  Step:     0            Position(A)                                  Velocity(au)
C        -6.02256722    -0.91556423    -0.07864497     0.00004896    -0.00014680     0.00011801
C        -4.69362135    -0.66718104     0.08218280    -0.00035523    -0.00023361    -0.00005421
H        -6.70638223    -0.14394497    -0.51443995     0.00155504    -0.00022212    -0.00008505
H        -6.28434552    -1.99450401    -0.03642117    -0.00045298     0.00119920    -0.00000504
H        -4.09499369    -1.50349195     0.40671173     0.00004549     0.00012691    -0.00013087
C        -3.98731534     0.55493919    -0.04150859    -0.00006690     0.00033219    -0.00024468
C        -2.59299407     0.57716795     0.18089554     0.00013996     0.00020643     0.00014950
H        -4.49713710     1.48967726    -0.24965402     0.00088102     0.00003494     0.00009439
H        -2.11963044    -0.31027639     0.54797729     0.00119351    -0.00082359     0.00018845
C        -1.75406432     1.75579144     0.02686415    -0.00034888    -0.00029266    -0.00009354
H        -2.20825965     2.68876240    -0.29348647     0.00007476    -0.00044491     0.00104197
N        -0.50546879     1.68524228     0.17558718     0.00013488     0.00009275     0.00013622
H         0.02273889     2.54377447     0.07066473     0.00054792     0.00036596    -0.00081806
H        -0.05359812     0.89988492     0.61918750     0.00121723     0.00007676    -0.00069018
    14
  Step:     1            Position(A)                                  Velocity(au)
C        -6.02224273    -0.91721861    -0.07750439     0.00001150    -0.00015362     0.00009078
C        -4.69727747    -0.66962624     0.08165838    -0.00031012    -0.00021126    -0.00004166
H        -6.68901119    -0.14731957    -0.51465856     0.00159410    -0.00037263     0.00003302
H        -6.29004140    -1.98032231    -0.03624424    -0.00059720     0.00134833     0.00004136
H        -4.09397376    -1.50262596     0.40524299     0.00014068     0.00003041    -0.00013653
C        -3.98842458     0.55850937    -0.04421964    -0.00013384     0.00031615    -0.00024975
C        -2.59102143     0.57971105     0.18255493     0.00021996     0.00025230     0.00015525
H        -4.48776103     1.49019280    -0.24874700     0.00081457     0.00008452     0.00006540
H        -2.10619488    -0.32001583     0.55026327     0.00123185    -0.00090763     0.00020890
C        -1.75878213     1.75234258     0.02575738    -0.00050477    -0.00033789    -0.00010713
H        -2.20734279     2.68404202    -0.28217659     0.00007923    -0.00039631     0.00101546
N        -0.50337124     1.68632384     0.17715431     0.00024540     0.00010652     0.00014957
H         0.02925852     2.54759775     0.06186787     0.00062411     0.00031039    -0.00078694
H        -0.04005900     0.90040367     0.61159259     0.00124959     0.00002331    -0.00070184
    14
  Step:     2            Position(A)                                  Velocity(au)
C        -6.02231567    -0.91892502    -0.07665908    -0.00002279    -0.00015616     0.00006442
C        -4.70040584    -0.67180282     0.08127141    -0.00025906    -0.00018504    -0.00002908
H        -6.67150828    -0.15209701    -0.51371759     0.00157486    -0.00047202     0.00012312
H        -6.29741038    -1.96500672    -0.03551633    -0.00076017     0.00139972     0.00009585
H        -4.09191596    -1.50282668     0.40372492     0.00023240    -0.00006385    -0.00014111
C        -3.99024330     0.56185566    -0.04697224    -0.00019662     0.00029146    -0.00025230
C        -2.58818203     0.58268740     0.18429197     0.00029777     0.00028557     0.00016353
H        -4.47931690     1.49152637    -0.24822334     0.00071217     0.00018211     0.00002518
H        -2.09268140    -0.33013243     0.55254739     0.00121022    -0.00089588     0.00019027
C        -1.76510711     1.74839938     0.02452048    -0.00063999    -0.00038252    -0.00011719
H        -2.20652637     2.68009243    -0.27127126     0.00005616    -0.00030564     0.00096884
N        -0.50010012     1.68757255     0.17885928     0.00034731     0.00012287     0.00016125
H         0.03639251     2.55056477     0.05344892     0.00066307     0.00021491    -0.00074939
H        -0.02626102     0.90039481     0.60383351     0.00126452    -0.00001889    -0.00072038
    14
  Step:     3            Position(A)                                  Velocity(au)
C        -6.02274141    -0.92063497    -0.07609509    -0.00005222    -0.00015434     0.00003969
C        -4.70294488    -0.67367436     0.08102213    -0.00020284    -0.00015608    -0.00001650
H        -6.65455810    -0.15764593    -0.51196517     0.00149034    -0.00050848     0.00017837
H        -6.30667164    -1.94970070    -0.03414727    -0.00094364     0.00134397     0.00015857
H        -4.08888954    -1.50402286     0.40215584     0.00031521    -0.00014775    -0.00014688
C        -3.99272612     0.56488561    -0.04973922    -0.00025533     0.00025889    -0.00025246
C        -2.58450715     0.58595851     0.18613241     0.00037182     0.00030633     0.00017389
H        -4.47218091     1.49417676    -0.24819620     0.00057878     0.00031953    -0.00002393
H        -2.07971896    -0.33961498     0.55442582     0.00113562    -0.00079853     0.00013808
C        -1.77278304     1.74397433     0.02319372    -0.00074998    -0.00042510    -0.00012358
H        -2.20611418     2.67735549    -0.26098131     0.00000667    -0.00017903     0.00090463
N        -0.49577320     1.68901176     0.18068198     0.00043688     0.00014078     0.00017100
H         0.04376438     2.55229937     0.04547347     0.00067164     0.00009210    -0.00070676
H        -0.01239529     0.89999039     0.59583293     0.00126238    -0.00004884    -0.00074575
    14
  Step:     4            Position(A)                                  Velocity(au)
C        -6.02345804    -0.92230158    -0.07579083    -0.00007547    -0.00014863     0.00001719
C        -4.70484329    -0.67521746     0.08091034    -0.00014255    -0.00012561    -0.00000397
H        -6.63890432    -0.16322097    -0.50981544     0.00133750    -0.00047406     0.00019421
H        -6.31805439    -1.93560484    -0.03204729    -0.00114699     0.00118215     0.00022922
H        -4.08502022    -1.50605908     0.40051158     0.00038451    -0.00021443    -0.00015559
C        -3.99582916     0.56751932    -0.05249531    -0.00030999     0.00021995    -0.00025043
C        -2.58004770     0.58938892     0.18809625     0.00044005     0.00031484     0.00018580
H        -4.46665495     1.49851679    -0.24874680     0.00042271     0.00048231    -0.00007858
H        -2.06783744    -0.34760175     0.55556826     0.00101806    -0.00063083     0.00005942
C        -1.78151444     1.73909961     0.02181683    -0.00083216    -0.00046344    -0.00012656
H        -2.20638039     2.67617583    -0.25148066    -0.00006509    -0.00002799     0.00082691
N        -0.49054245     1.69065241     0.18260021     0.00051169     0.00015907     0.00017872
H         0.05108589     2.55257956     0.03798728     0.00065858    -0.00004325    -0.00066125
H         0.00135603     0.89932631     0.58751886     0.00124439    -0.00006676    -0.00077711
    14
  Step:     5            Position(A)                                  Velocity(au)
C        -6.02439241    -0.92388665    -0.07571901    -0.00009195    -0.00014013    -0.00000271
C        -4.70606334    -0.67642236     0.08093531    -0.00007958    -0.00009490     0.00000846
H        -6.62529782    -0.16801698    -0.50771652     0.00111899    -0.00036720     0.00016986
H        -6.33176434    -1.92383898    -0.02913260    -0.00136593     0.00092896     0.00030688
H        -4.08047772    -1.50871398     0.39875198     0.00043704    -0.00025892    -0.00016830
C        -3.99950780     0.56969754    -0.05521796    -0.00036030     0.00017685    -0.00024648
C        -2.57488029     0.59284618     0.19019704     0.00049980     0.00031129     0.00019863
H        -4.46293321     1.50472829    -0.24991529     0.00025465     0.00065110    -0.00013489
H        -2.05744686    -0.35341550     0.55572582     0.00086884    -0.00041032    -0.00003827
C        -1.79098815     1.73383579     0.02042504    -0.00088571    -0.00049462    -0.00012666
H        -2.20753818     2.67674309    -0.24289103    -0.00015257     0.00013143     0.00074085
N        -0.48457898     1.69249163     0.18459178     0.00057058     0.00017646     0.00018448
H         0.05817208     2.55135328     0.03100739     0.00063356    -0.00017556    -0.00061578
H         0.01482821     0.89852999     0.57883220     0.00121246    -0.00007389    -0.00081304
    14
  Step:     6            Position(A)                                  Velocity(au)
C        -6.02546953    -0.92536716    -0.07585010    -0.00010200    -0.00013041    -0.00002000
C        -4.70658434    -0.67729359     0.08109543    -0.00001562    -0.00006521     0.00002069
H        -6.61442422    -0.17125419    -0.50609932     0.00084457    -0.00019508     0.00010945
H        -6.34793666    -1.91528196    -0.02533368    -0.00159167     0.00061326     0.00038997
H        -4.07545905    -1.51172337     0.39682961     0.00047113    -0.00027850    -0.00018545
C        -4.00371139     0.57138826    -0.05788744    -0.00040551     0.00013218    -0.00024083
C        -2.56911371     0.59619903     0.19244157     0.00054800     0.00029570     0.00021178
H        -4.46108400     1.51276086    -0.25169777     0.00008603     0.00080442    -0.00018878
H        -2.04882998    -0.35657818     0.55473097     0.00069943    -0.00015515    -0.00014766
C        -1.80089101     1.72827876     0.01904587    -0.00091118    -0.00051530    -0.00012469
H        -2.20971824     2.67905119    -0.23527308    -0.00024795     0.00028081     0.00065199
N        -0.47806003     1.69451282     0.18663617     0.00061344     0.00019178     0.00018851
H         0.06494634     2.54873891     0.02451592     0.00060625    -0.00028990    -0.00057367
H         0.02788095     0.89770981     0.56973203     0.00116898    -0.00007233    -0.00085179
    14
  Step:     7            Position(A)                                  Velocity(au)
C        -6.02662378    -0.92673953    -0.07615649    -0.00010697    -0.00012121    -0.00003504
C        -4.70640499    -0.67784891     0.08138797     0.00004756    -0.00003765     0.00003260
H        -6.60682131    -0.17228479    -0.50532210     0.00053112     0.00002547     0.00002247
H        -6.36658523    -1.91042269    -0.02060130    -0.00181112     0.00027471     0.00047609
H        -4.07017086    -1.51480667     0.39469497     0.00048666    -0.00027274    -0.00020681
C        -4.00837905     0.57258917    -0.06048647    -0.00044467     0.00008855    -0.00023369
C        -2.56289184     0.59931518     0.19483015     0.00058161     0.00026801     0.00022471
H        -4.46105114     1.52232656    -0.25404527    -0.00007262     0.00092198    -0.00023657
H        -2.04214555    -0.35680974     0.55249540     0.00052095     0.00011661    -0.00026168
C        -1.81092196     1.72256264     0.01769716    -0.00091006    -0.00052211    -0.00012155
H        -2.21296247     2.68288638    -0.22862754    -0.00034343     0.00040211     0.00056535
N        -0.47115879     1.69668720     0.18871585     0.00064096     0.00020404     0.00019110
H         0.07143502     2.54501120     0.01845727     0.00058546    -0.00037323    -0.00053830
H         0.04040195     0.89694771     0.56019761     0.00111661    -0.00006470    -0.00089150
    14
  Step:     8            Position(A)                                  Velocity(au)
C        -6.02780981    -0.92801878    -0.07661672    -0.00010907    -0.00011395    -0.00004855
C        -4.70554395    -0.67811735     0.08180852     0.00010817    -0.00001310     0.00004399
H        -6.60280500    -0.17069708    -0.50560768     0.00020118     0.00026935    -0.00007685
H        -6.38755837    -1.90927217    -0.01491820    -0.00200831    -0.00004323     0.00056208
H        -4.06481234    -1.51769007     0.39230526     0.00048500    -0.00024320    -0.00023149
C        -4.01343944     0.57332549    -0.06299992    -0.00047699     0.00004820    -0.00022526
C        -2.55638983     0.60206233     0.19735742     0.00059820     0.00022840     0.00023691
H        -4.46267268     1.53293086    -0.25687319    -0.00021311     0.00098766    -0.00027542
H        -2.03743316    -0.35402711     0.54900625     0.00034407     0.00038692    -0.00037343
C        -1.82080025     1.71685652     0.01638682    -0.00088440    -0.00051228    -0.00011808
H        -2.21723133     2.68784807    -0.22290494    -0.00043242     0.00048053     0.00048479
N        -0.46403781     1.69897659     0.19081680     0.00065429     0.00021257     0.00019256
H         0.07775429     2.54057372     0.01273957     0.00057827    -0.00041571    -0.00051268
H         0.05230884     0.89629432     0.55022866     0.00105807    -0.00005402    -0.00093040
    14
  Step:     9            Position(A)                                  Velocity(au)
C        -6.02900997    -0.92923249    -0.07721868    -0.00011089    -0.00010938    -0.00006142
C        -4.70403846    -0.67813548     0.08235043     0.00016465     0.00000794     0.00005467
H        -6.60242007    -0.16639229    -0.50700331    -0.00012022     0.00050701    -0.00017204
H        -6.41052087    -1.91136850    -0.00830463    -0.00216717    -0.00030178     0.00064438
H        -4.05956058    -1.52012710     0.38963073     0.00046866    -0.00019311    -0.00025809
C        -4.01881423     0.57364355    -0.06541444    -0.00050202     0.00001267    -0.00021567
C        -2.54980499     0.60431196     0.20001308     0.00059624     0.00017754     0.00024797
H        -4.46571324     1.54393348    -0.26007071    -0.00033036     0.00099156    -0.00030356
H        -2.03461832    -0.34834522     0.54432600     0.00017909     0.00063740    -0.00047600
C        -1.83026991     1.71135561     0.01511397    -0.00083664    -0.00048399    -0.00011500
H        -2.22242240     2.69339900    -0.21802185    -0.00051023     0.00050666     0.00041258
N        -0.45684490     1.70133756     0.19292847     0.00065493     0.00021711     0.00019318
H         0.08408579     2.53591668     0.00724144     0.00058917    -0.00041196    -0.00049899
H         0.06354935     0.89576600     0.53984335     0.00099604    -0.00004337    -0.00096692
    14
  Step:    10            Position(A)                                  Velocity(au)
C        -6.03023576    -0.93041176    -0.07796040    -0.00011486    -0.00010742    -0.00007449
C        -4.70194186    -0.67794370     0.08300444     0.00021563     0.00002524     0.00006437
H        -6.60543510    -0.15960533    -0.50937144    -0.00040967     0.00070987    -0.00024744
H        -6.43496945    -1.91587422    -0.00082120    -0.00227439    -0.00047362     0.00071944
H        -4.05455954    -1.52191471     0.38665894     0.00044101    -0.00012696    -0.00028493
C        -4.02442208     0.57360272    -0.06771818    -0.00051961    -0.00001717    -0.00020505
C        -2.54334583     0.60594635     0.20278229     0.00057518     0.00011683     0.00025745
H        -4.46989991     1.55462323    -0.26351407    -0.00042240     0.00093044    -0.00032035
H        -2.03351521    -0.34008267     0.53859275     0.00003618     0.00084899    -0.00056246
C        -1.83910335     1.70626829     0.01387106    -0.00076946    -0.00043673    -0.00011278
H        -2.22839367     2.69893229    -0.21387899    -0.00057427     0.00047729     0.00034944
N        -0.44970995     1.70372627     0.19504309     0.00064459     0.00021787     0.00019317
H         0.09064353     2.53156127     0.00182327     0.00061926    -0.00036212    -0.00049816
H         0.07409904     0.89534554     0.52907550     0.00093285    -0.00003566    -0.00099981
    14
  Step:    11            Position(A)                                  Velocity(au)
C        -6.03152271    -0.93158246    -0.07884839    -0.00012275    -0.00010733    -0.00008839
C        -4.69932114    -0.67758324     0.08375864     0.00025997     0.00003884     0.00007287
H        -6.61138239    -0.15086256    -0.51241646    -0.00064889     0.00085542    -0.00029107
H        -6.46027761    -1.92172992     0.00743442    -0.00232145    -0.00054579     0.00078427
H        -4.04991268    -1.52290467     0.38339735     0.00040593    -0.00005010    -0.00031013
C        -4.03018160     0.57326788    -0.06990034    -0.00052985    -0.00004112    -0.00019348
C        -2.53722179     0.60686774     0.20564537     0.00053535     0.00004855     0.00026488
H        -4.47495397     1.56428873    -0.26707897    -0.00048981     0.00080702    -0.00032623
H        -2.03382671    -0.32977193     0.53202109    -0.00007453     0.00100184    -0.00062587
C        -1.84710334     1.70180129     0.01264663    -0.00068571    -0.00037134    -0.00011166
H        -2.23498556     2.70384064    -0.21037728    -0.00062369     0.00039510     0.00029482
N        -0.44274337     1.70610378     0.19715454     0.00062509     0.00021550     0.00019262
H         0.09763339     2.52799452    -0.00365665     0.00066588    -0.00027235    -0.00050950
H         0.08395730     0.89498577     0.51797068     0.00087040    -0.00003330    -0.00102821
    14
  Step:    12            Position(A)                                  Velocity(au)
C        -6.03292112    -0.93275990    -0.07989411    -0.00013544    -0.00010808    -0.00010338
C        -4.69625445    -0.67709406     0.08459852     0.00029676     0.00004890     0.00007993
H        -6.61963084    -0.14089138    -0.51573907    -0.00082671     0.00093020    -0.00029629
H        -6.48575559    -1.92781438     0.01633615    -0.00230532    -0.00051873     0.00083677
H        -4.04567896    -1.52301078     0.37987428     0.00036757     0.00003165    -0.00033182
C        -4.03601350     0.57270304    -0.07195087    -0.00053299    -0.00005949    -0.00018100
C        -2.53163392     0.60700838     0.20857708     0.00047790    -0.00002413     0.00026971
H        -4.48061543     1.57227832    -0.27065107    -0.00053511     0.00062879    -0.00032247
H        -2.03514569    -0.31816557     0.52490066    -0.00014334     0.00107620    -0.00065969
C        -1.85410461     1.69814460     0.01142821    -0.00058837    -0.00028999    -0.00011160
H        -2.24203809     2.70757582    -0.20742916    -0.00065904     0.00026766     0.00024734
N        -0.43603498     1.70844086     0.19925693     0.00059831     0.00021109     0.00019146
H         0.10521085     2.52560314    -0.00932298     0.00072271    -0.00015432    -0.00053060
H         0.09314080     0.89461705     0.50658139     0.00080994    -0.00003791    -0.00105173
    14
  Step:    13            Position(A)                                  Velocity(au)
C        -6.03448564    -0.93394690    -0.08111001    -0.00015290    -0.00010859    -0.00011938
C        -4.69282889    -0.67651335     0.08550725     0.00032529     0.00005574     0.00008536
H        -6.62946815    -0.13051268    -0.51889832    -0.00093921     0.00093034    -0.00026194
H        -6.51071092    -1.93307816     0.02574039    -0.00222795    -0.00040291     0.00087585
H        -4.04187149    -1.52221227     0.37613820     0.00033003     0.00011231    -0.00034823
C        -4.04184171     0.57196652    -0.07386010    -0.00052936    -0.00007292    -0.00016765
C        -2.52676670     0.60633994     0.21154581     0.00040470    -0.00009731     0.00027135
H        -4.48666042     1.57804477    -0.27413362    -0.00056201     0.00040655    -0.00031087
H        -2.03696258    -0.30622806     0.51758921    -0.00016186     0.00105445    -0.00065848
C        -1.85997498     1.69545715     0.01020527    -0.00048046    -0.00019610    -0.00011227
H        -2.24940341     2.70969617    -0.20496629    -0.00068180     0.00010619     0.00020504
N        -0.42965408     1.71072181     0.20134315     0.00056610     0.00020595     0.00018955
H         0.11344403     2.52461840    -0.01526460     0.00078068    -0.00002378    -0.00055752
H         0.10167623     0.89415642     0.49496211     0.00075197    -0.00005019    -0.00107040
    14
  Step:    14            Position(A)                                  Velocity(au)
C        -6.03626613    -0.93513544    -0.08250580    -0.00017443    -0.00010798    -0.00013605
C        -4.68913820    -0.67587458     0.08646599     0.00034505     0.00005972     0.00008900
H        -6.64017794    -0.12053834    -0.52146953    -0.00098855     0.00086002    -0.00019135
H        -6.53449636    -1.93662889     0.03549709    -0.00209499    -0.00021468     0.00090138
H        -4.03845891    -1.52055369     0.37225609     0.00029722     0.00018608    -0.00035780
C        -4.04759424     0.57110771    -0.07561851    -0.00051934    -0.00008236    -0.00015342
C        -2.52278036     0.60487949     0.21451343     0.00031825    -0.00016687     0.00026926
H        -4.49291048     1.58117235    -0.27745193    -0.00057491     0.00015305    -0.00029358
H        -2.03868676    -0.29509748     0.51049519    -0.00012469     0.00092461    -0.00061908
C        -1.86461560     1.69385459     0.00897199    -0.00036501    -0.00009399    -0.00011318
H        -2.25695377     2.70989897    -0.20294347    -0.00069402    -0.00007571     0.00016576
N        -0.42365043     1.71294631     0.20340370     0.00053013     0.00020144     0.00018663
H         0.12228980     2.52508297    -0.02151989     0.00082940     0.00010192    -0.00058532
H         0.10959160     0.89351911     0.48316433     0.00069623    -0.00006974    -0.00108471
    14
  Step:    15            Position(A)                                  Velocity(au)
C        -6.03830167    -0.93630924    -0.08408632    -0.00019887    -0.00010564    -0.00015288
C        -4.68528036    -0.67520682     0.08745432     0.00035575     0.00006124     0.00009072
H        -6.65109467    -0.11169819    -0.52308448    -0.00098107     0.00072893    -0.00009080
H        -6.55654292    -1.93777464     0.04545975    -0.00191447     0.00002704     0.00091402
H        -4.03536913    -1.51814132     0.36831055     0.00027257     0.00024766    -0.00035925
C        -4.05320323     0.57016478    -0.07721642    -0.00050332    -0.00008887    -0.00013829
C        -2.51980431     0.60268933     0.21743644     0.00022173    -0.00022903     0.00026309
H        -4.49923765     1.58139303    -0.28055616    -0.00057852    -0.00011779    -0.00027293
H        -2.03969049    -0.28600054     0.50404571    -0.00003178     0.00068515    -0.00054203
C        -1.86796018     1.69340084     0.00772931    -0.00024490     0.00001136    -0.00011362
H        -2.26458653     2.70803977    -0.20133992    -0.00069817    -0.00026318     0.00012726
N        -0.41805637     1.71512878     0.20542615     0.00049187     0.00019880     0.00018246
H         0.13158877     2.52684811    -0.02806949     0.00085895     0.00020652    -0.00060879
H         0.11690752     0.89263066     0.47123202     0.00064165    -0.00009506    -0.00109550
    14
  Step:    16            Position(A)                                  Velocity(au)
C        -6.04061674    -0.93744662    -0.08585024    -0.00022483    -0.00010117    -0.00016930
C        -4.68135547    -0.67453491     0.08845067     0.00035733     0.00006067     0.00009044
H        -6.66164080    -0.10459162    -0.52345589    -0.00092558     0.00054995     0.00003190
H        -6.57637911    -1.93603742     0.05549298    -0.00169581     0.00030274     0.00091511
H        -4.03249593    -1.51513561     0.36439684     0.00025876     0.00029261    -0.00035163
C        -4.05860523     0.56916343    -0.07864390    -0.00048167    -0.00009365    -0.00012223
C        -2.51792961     0.59986902     0.22026893     0.00011891    -0.00028107     0.00025280
H        -4.50556673     1.57859546    -0.28342289    -0.00057773    -0.00039148    -0.00025142
H        -2.03938205    -0.28010856     0.49863733     0.00010931     0.00034938    -0.00043272
C        -1.86997324     1.69410308     0.00648639    -0.00012279     0.00011477    -0.00011282
H        -2.27222747     2.70414131    -0.20015935    -0.00069695    -0.00044091     0.00008736
N        -0.41288993     1.71729553     0.20739530     0.00045242     0.00019891     0.00017680
H         0.14108088     2.52960100    -0.03483834     0.00086151     0.00027734    -0.00062334
H         0.12362899     0.89143939     0.45919823     0.00058654    -0.00012364    -0.00110384
    14
  Step:    17            Position(A)                                  Velocity(au)
C        -6.04322021    -0.93852242    -0.08779017    -0.00025088    -0.00009430    -0.00018480
C        -4.67746311    -0.67387962     0.08943291     0.00034995     0.00005835     0.00008814
H        -6.67134346    -0.09966699    -0.52238669    -0.00083203     0.00033730     0.00016838
H        -6.59364200    -1.93115152     0.06547948    -0.00144916     0.00059348     0.00090656
H        -4.02970833    -1.51173995     0.36061800     0.00025748     0.00031771    -0.00033448
C        -4.06374060     0.56811599    -0.07989039    -0.00045472    -0.00009792    -0.00010516
C        -2.51720297     0.59654034     0.22296688     0.00001406    -0.00032181     0.00023879
H        -4.51187662     1.57282875    -0.28605643    -0.00057750    -0.00065335    -0.00023159
H        -2.03729912    -0.27835716     0.49457913     0.00028237    -0.00005291    -0.00030156
C        -1.87064639     1.69591172     0.00526117    -0.00000095     0.00021125    -0.00011000
H        -2.27983374     2.69839407    -0.19942885    -0.00069334    -0.00059396     0.00004399
N        -0.40815888     1.71948026     0.20929388     0.00041254     0.00020220     0.00016951
H         0.15043601     2.53291546    -0.04170623     0.00083252     0.00030687    -0.00062560
H         0.12973915     0.88992581     0.44708334     0.00052872    -0.00015225    -0.00111090
    14
  Step:    18            Position(A)                                  Velocity(au)
C        -6.04610517    -0.93950958    -0.08989320    -0.00027559    -0.00008490    -0.00019891
C        -4.67369969    -0.67325847     0.09037895     0.00033401     0.00005452     0.00008386
H        -6.67984306    -0.09721260    -0.51977217    -0.00071090     0.00010564     0.00031034
H        -6.60808235    -1.92305400     0.07532579    -0.00118515     0.00088102     0.00089084
H        -4.02686311    -1.50818519     0.35707940     0.00026917     0.00032131    -0.00030788
C        -4.06855309     0.56702116    -0.08094452    -0.00042277    -0.00010292    -0.00008702
C        -2.51762211     0.59282884     0.22549281    -0.00008831    -0.00035161     0.00022180
H        -4.51820071     1.56430225    -0.28848946    -0.00058278    -0.00088899    -0.00021606
H        -2.03320464    -0.28126614     0.49204009     0.00046387    -0.00047856    -0.00016265
C        -1.86999399     1.69872449     0.00407991     0.00011875     0.00029632    -0.00010446
H        -2.28739570     2.69114738    -0.19919705    -0.00069034    -0.00070876    -0.00000466
N        -0.40386484     1.72171893     0.21110366     0.00037262     0.00020865     0.00016057
H         0.15929382     2.53631442    -0.04852445     0.00077107     0.00029333    -0.00061384
H         0.13519585     0.88810870     0.43489506     0.00046591    -0.00017733    -0.00111775
    14
  Step:    19            Position(A)                                  Velocity(au)
C        -6.04924917    -0.94037979    -0.09214172    -0.00029754    -0.00007287    -0.00021124
C        -4.67015599    -0.67268689     0.09126744     0.00031014     0.00004931     0.00007768
H        -6.68689571    -0.09735586    -0.51559752    -0.00057279    -0.00013039     0.00044971
H        -6.61956946    -1.91187751     0.08496827    -0.00091483     0.00114773     0.00087095
H        -4.02381982    -1.50471067     0.35388253     0.00029280     0.00030361    -0.00027247
C        -4.07298956     0.56586433    -0.08179402    -0.00038610    -0.00010983    -0.00006771
C        -2.51913488     0.58884820     0.22781908    -0.00018383    -0.00037193     0.00020277
H        -4.52462610     1.55338046    -0.29078323    -0.00059834    -0.00108478    -0.00020739
H        -2.02715101    -0.28882656     0.49102086     0.00062699    -0.00087908    -0.00003108
C        -1.86804843     1.70239434     0.00297594     0.00023487     0.00036640    -0.00009564
H        -2.29493619     2.68288851    -0.19953069    -0.00069064    -0.00077440    -0.00005997
N        -0.40000711     1.72404496     0.21280669     0.00033272     0.00021787     0.00015006
H         0.16730460     2.53933254    -0.05513520     0.00067978     0.00024022    -0.00058811
H         0.13993175     0.88604638     0.42263041     0.00039596    -0.00019546    -0.00112520
    14
  Step:    20            Position(A)                                  Velocity(au)
C        -6.05261439    -0.94110371    -0.09451447    -0.00031533    -0.00005812    -0.00022150
C        -4.66691469    -0.67217968     0.09207841     0.00027920     0.00004271     0.00006978
H        -6.69237396    -0.10006516    -0.50993388    -0.00042844    -0.00035629     0.00057882
H        -6.62809601    -1.89794523     0.09437953    -0.00064971     0.00137633     0.00085054
H        -4.02045765    -1.50154318     0.35111851     0.00032582     0.00026671    -0.00022949
C        -4.07699981     0.56461852    -0.08242570    -0.00034499    -0.00011967    -0.00004716
C        -2.52164364     0.58469219     0.22992871    -0.00026878    -0.00038456     0.00018260
H        -4.53129045     1.54057071    -0.29302644    -0.00062848    -0.00122867    -0.00020794
H        -2.01948814    -0.30049771     0.49136027     0.00074691    -0.00121083     0.00008013
C        -1.86485581     1.70674029     0.00198766     0.00034629     0.00041899    -0.00008319
H        -2.30250475     2.67420595    -0.20050894    -0.00069609    -0.00078405    -0.00012268
N        -0.39658602     1.72648536     0.21438647     0.00029263     0.00022916     0.00013814