     6
  Step:     0            Position(A)                                  Velocity(au)
C        -0.03274617     0.02457513     0.00157652    -0.00010647    -0.00004917     0.00021863
N        -0.05025812    -0.06266879     1.30846550     0.00002766    -0.00013829    -0.00008750
H         0.92692137    -0.02092510    -0.56906619     0.00101067     0.00025630    -0.00071534
H         0.85585221    -0.11882738     1.92825098    -0.00052114     0.00098727    -0.00071551
H        -0.88323117     0.00708659     1.79620021    -0.00003070     0.00070072     0.00007146
H        -1.02387021     0.04091694    -0.46502657     0.00042555     0.00056334    -0.00002990
     6
  Step:     1            Position(A)                                  Velocity(au)
C        -0.03381618     0.02406888     0.00372334    -0.00008657    -0.00004323     0.00017004
N        -0.04956866    -0.06424779     1.30776807     0.00009435    -0.00015057    -0.00003807
H         0.93763223    -0.01808857    -0.57735172     0.00091415     0.00026328    -0.00077507
H         0.84799210    -0.10786450     1.91900917    -0.00088675     0.00101438    -0.00095163
H        -0.88689272     0.01515679     1.79942694    -0.00060404     0.00077594     0.00049528
H        -1.01988957     0.04702211    -0.46661599     0.00029726     0.00055390    -0.00026565
     6
  Step:     2            Position(A)                                  Velocity(au)
C        -0.03464014     0.02362943     0.00529640    -0.00006295    -0.00003695     0.00011465
N        -0.04819414    -0.06596284     1.30763254     0.00014898    -0.00016278     0.00001518
H         0.94692018    -0.01516542    -0.58602236     0.00075807     0.00027153    -0.00078965
H         0.83645276    -0.09663584     1.90743215    -0.00117620     0.00103602    -0.00112977
H        -0.89644565     0.02406178     1.80703539    -0.00106943     0.00084849     0.00084820
H        -1.01736715     0.05303467    -0.47083828     0.00016743     0.00054625    -0.00050602
     6
  Step:     3            Position(A)                                  Velocity(au)
C        -0.03519329     0.02326063     0.00623162    -0.00003836    -0.00003031     0.00005448
N        -0.04630946    -0.06780891     1.30810026     0.00018484    -0.00017424     0.00007120
H         0.95421654    -0.01214843    -0.59462692     0.00055738     0.00027991    -0.00076704
H         0.82226042    -0.08519968     1.89429328    -0.00135309     0.00105332    -0.00122399
H        -0.91028863     0.03371906     1.81798285    -0.00136801     0.00090936     0.00109267
H        -1.01622662     0.05897230    -0.47768620     0.00005236     0.00053988    -0.00074032
     6
  Step:     4            Position(A)                                  Velocity(au)
C        -0.03547943     0.02296638     0.00648831    -0.00001515    -0.00002333    -0.00000824
N        -0.04415050    -0.06977471     1.30919020     0.00019773    -0.00018457     0.00012716
H         0.95911404    -0.00904195    -0.60280281     0.00032628     0.00028745    -0.00071524
H         0.80685130    -0.07359244     1.88065507    -0.00138188     0.00106934    -0.00120958
H        -0.92637357     0.04395571     1.83093974    -0.00147739     0.00095195     0.00121419
H        -1.01622157     0.06484568    -0.48703412    -0.00003422     0.00053408    -0.00095821
     6
  Step:     5            Position(A)                                  Velocity(au)
C        -0.03552462     0.02275023     0.00605137     0.00000504    -0.00001606    -0.00007116
N        -0.04198373    -0.07184668     1.31088203     0.00018627    -0.00019374     0.00017928
H         0.96135452    -0.00585989    -0.61027414     0.00007754     0.00029338    -0.00064188
H         0.79202917    -0.06180579     1.86783147    -0.00123635     0.00108915    -0.00106915
H        -0.94260944     0.05454476     1.84454565    -0.00140682     0.00097312     0.00121841
H        -1.01697532     0.07065626    -0.49864894    -0.00008291     0.00052797    -0.00115089
     6
  Step:     6            Position(A)                                  Velocity(au)
C        -0.03536920     0.02261510     0.00493165     0.00002122    -0.00000856    -0.00013195
N        -0.04007539    -0.07401316     1.31311237     0.00015191    -0.00020206     0.00022420
H         0.96081045    -0.00262363    -0.61684525    -0.00017748     0.00029709    -0.00055410
H         0.77980371    -0.04976531     1.85726538    -0.00091177     0.00111913    -0.00080106
H        -0.95715042     0.06524461     1.85759482    -0.00118521     0.00097293     0.00112374
H        -1.01803534     0.07639606    -0.51221198    -0.00008939     0.00052077    -0.00131180
     6
  Step:     7            Position(A)                                  Velocity(au)
C        -0.03506041     0.02256302     0.00316474     0.00003303    -0.00000092    -0.00018849
N        -0.03866035    -0.07626722     1.31578673     0.00009892    -0.00020997     0.00026011
H         0.95747184     0.00063962    -0.62239614    -0.00042840     0.00029812    -0.00045868
H         0.77208255    -0.03732268     1.85030679    -0.00043608     0.00116513    -0.00042680
H        -0.96853821     0.07582948     1.86912972    -0.00084942     0.00095368     0.00095390
H        -1.01893093     0.08204901    -0.52734699    -0.00005430     0.00051183    -0.00143695
     6
  Step:     8            Position(A)                                  Velocity(au)
C        -0.03464657     0.02259505     0.00080816     0.00004054     0.00000678    -0.00023892
N        -0.03791131    -0.07860671     1.31880268     0.00003408    -0.00021778     0.00028737
H         0.95143835     0.00389835    -0.62687981    -0.00066532     0.00029614    -0.00036227
H         0.77026361    -0.02427578     1.84792824     0.00012735     0.00122970     0.00000780
H        -0.97573316     0.08610819     1.87846329    -0.00043648     0.00091897     0.00073288
H        -1.01922322     0.08759340    -0.54364801     0.00001773     0.00050078    -0.00152476
     6
  Step:     9            Position(A)                                  Velocity(au)
C        -0.03417341     0.02271132    -0.00206213     0.00004408     0.00001445    -0.00028171
N        -0.03791470    -0.08103161     1.32207341    -0.00003429    -0.00022549     0.00030801
H         0.94291666     0.00711821    -0.63032152    -0.00087836     0.00029096    -0.00027152
H         0.77486854    -0.01042054     1.85047740     0.00069094     0.00130992     0.00044103
H        -0.97808709     0.09593373     1.88516287     0.00001957     0.00087310     0.00048283
H        -1.01854307     0.09300443    -0.56070401     0.00011916     0.00048741    -0.00157569
     6
  Step:    10            Position(A)                                  Velocity(au)
C        -0.03368231     0.02291108    -0.00535477     0.00004363     0.00002837    -0.00043893
N        -0.03866142    -0.08353982     1.32554096    -0.00010042    -0.00024085     0.00042250
H         0.93222244     0.01026355    -0.63281991    -0.00111035     0.00035524    -0.00008941
H         0.78537926     0.00438129     1.85757664     0.00113763     0.00134460     0.00076511
H        -0.97530497     0.10520896     1.88902615     0.00054329     0.00088613     0.00018524
H        -1.01661638     0.09825653    -0.57811930     0.00030502     0.00042291    -0.00150177
     6
  Step:    11            Position(A)                                  Velocity(au)
C        -0.03321887     0.02333200    -0.01166461     0.00003969     0.00004811    -0.00070662
N        -0.04011157    -0.08630073     1.33131632    -0.00015786    -0.00026325     0.00063026
H         0.91862565     0.01488987    -0.63227744    -0.00134397     0.00044550     0.00017049
H         0.79975628     0.01899527     1.86721554     0.00140744     0.00137157     0.00093488
H        -0.96620155     0.11531951     1.88921535     0.00109543     0.00091372    -0.00013761
H        -1.01187007     0.10225642    -0.59355816     0.00056191     0.00035414    -0.00130599
     6
  Step:    12            Position(A)                                  Velocity(au)
C        -0.03281395     0.02396362    -0.02081341     0.00003151     0.00006622    -0.00094937
N        -0.04211501    -0.08929895     1.33932913    -0.00019918    -0.00028377     0.00082421
H         0.90282050     0.02000963    -0.62909021    -0.00149483     0.00048136     0.00038315
H         0.81616972     0.03438695     1.87802899     0.00150902     0.00144175     0.00098801
H        -0.95134041     0.12519831     1.88601559     0.00157316     0.00089020    -0.00041931
H        -1.00432348     0.10600403    -0.60669044     0.00080513     0.00034086    -0.00109272
     6
  Step:    13            Position(A)                                  Velocity(au)
C        -0.03252959     0.02478078    -0.03243387     0.00001693     0.00008166    -0.00115504
N        -0.04446901    -0.09250863     1.34934758    -0.00022052    -0.00030202     0.00099369
H         0.88592331     0.02542051    -0.62389525    -0.00152689     0.00050569     0.00052623
H         0.83276907     0.05053632     1.88883018     0.00144969     0.00149996     0.00094111
H        -0.93178563     0.13479426     1.88004223     0.00192783     0.00087675    -0.00062884
H        -0.99425623     0.10971341    -0.61746341     0.00101219     0.00034146    -0.00088367
     6
  Step:    14            Position(A)                                  Velocity(au)
C        -0.03244361     0.02575008    -0.04608223    -0.00000520     0.00009378    -0.00131848
N        -0.04693939    -0.09590614     1.36106807    -0.00021944    -0.00031863     0.00113335
H         0.86941680     0.03107262    -0.61757782    -0.00140858     0.00052798     0.00057854
H         0.84788452     0.06720137     1.89861758     0.00125173     0.00153295     0.00081382
H        -0.90916553     0.14437898     1.87225861     0.00210657     0.00089983    -0.00073412
H        -0.98217986     0.11347416    -0.62602246     0.00116175     0.00034954    -0.00069662
     6
  Step:    15            Position(A)                                  Velocity(au)
C        -0.03264343     0.02683231    -0.06127816    -0.00003515     0.00010214    -0.00143800
N        -0.04926965    -0.09947919     1.37414180    -0.00019450    -0.00033495     0.00124033
H         0.85510800     0.03697109    -0.61123864    -0.00111698     0.00055230     0.00052543
H         0.86015309     0.08407251     1.90663406     0.00094599     0.00153759     0.00062921
H        -0.88570047     0.15447970     1.86398194     0.00206039     0.00098262    -0.00070682
H        -0.96884080     0.11736020    -0.63270336     0.00123238     0.00036494    -0.00054871
     6
  Step:    16            Position(A)                                  Velocity(au)
C        -0.03321265     0.02798463    -0.07754118    -0.00007148     0.00010651    -0.00151520
N        -0.05119443    -0.10323380     1.38820276    -0.00014616    -0.00035261     0.00131456
H         0.84498062     0.04315514    -0.60608308    -0.00064945     0.00058180     0.00036644
H         0.86857981     0.10083901     1.91238275     0.00056660     0.00151496     0.00041042
H        -0.86409050     0.16587560     1.85679556     0.00176204     0.00114515    -0.00053327
H        -0.95521919     0.12145798    -0.63802651     0.00120371     0.00038894    -0.00045591
     6
  Step:    17            Position(A)                                  Velocity(au)
C        -0.03420712     0.02916244    -0.09442614    -0.00011031     0.00010682    -0.00155477
N        -0.05246724    -0.10719328     1.40290026    -0.00007818    -0.00037270     0.00135895
H         0.84089999     0.04969898    -0.60322207    -0.00003526     0.00061891     0.00012117
H         0.87254862     0.11721512     1.91561275     0.00014843     0.00146879     0.00017890
H        -0.84715250     0.17953204     1.85231561     0.00122824     0.00139553    -0.00022682
H        -0.94250725     0.12586901    -0.64267735     0.00105949     0.00042309    -0.00043104
     6
  Step:    18            Position(A)                                  Velocity(au)
C        -0.03562587     0.03032154    -0.11155464    -0.00014551     0.00010324    -0.00156380
N        -0.05290475    -0.11138738     1.41793236     0.00000146    -0.00039492     0.00137917
H         0.84420934     0.05669500    -0.60343228     0.00066070     0.00066424    -0.00017120
H         0.87182703     0.13297161     1.91629654    -0.00027324     0.00140545    -0.00004584
H        -0.83722042     0.19640540     1.85183348     0.00053342     0.00171928     0.00016638
H        -0.93204078     0.13071391    -0.64745634     0.00079280     0.00046875    -0.00048047
     6
  Step:    19            Position(A)                                  Velocity(au)
C        -0.03739047     0.03142096    -0.12863736    -0.00017014     0.00009621    -0.00155074
N        -0.05243529    -0.11583285     1.43307233     0.00008123    -0.00041725     0.00138244
H         0.85535417     0.06423057    -0.60696748     0.00134893     0.00071607    -0.00046125
H         0.86657105     0.14796201     1.91460990    -0.00066238     0.00133384    -0.00024587
H        -0.83548295     0.21714463     1.85595540    -0.00019994     0.00207574     0.00057559
H        -0.92516326     0.13612378    -0.65318855     0.00041202     0.00052617    -0.00060070
     6
  Step:    20            Position(A)                                  Velocity(au)
C        -0.03934808     0.03242627    -0.14548002    -0.00017884     0.00008647    -0.00152382
N        -0.05112759    -0.12051551     1.44817591     0.00014871    -0.00043657     0.00137554
H         0.87371980     0.07236045    -0.61352300     0.00193877     0.00077055    -0.00070387
H         0.85733610     0.16215192     1.91091757    -0.00098253     0.00126544    -0.00040460
H        -0.84159457     0.24181627     1.86442553    -0.00083687     0.00240675     0.00092752
H        -0.92302699     0.14222494    -0.66059788    -0.00005481     0.00059362    -0.00077617
     6
  Step:    21            Position(A)                                  Velocity(au)
C        -0.04130298     0.03331272    -0.16197382    -0.00016983     0.00007500    -0.00148992
N        -0.04918192    -0.12538372     1.46316492     0.00019383    -0.00044992     0.00136308
H         0.89776857     0.08108785    -0.62236599     0.00236262     0.00082280    -0.00087025
H         0.84507641     0.17564591     1.90575850    -0.00119862     0.00121384    -0.00050731
H        -0.85379098     0.26979696     1.87624659    -0.00127305     0.00265511     0.00116990
H        -0.92636223     0.14911035    -0.67016875    -0.00056079     0.00066671    -0.00098029
     6
  Step:    22            Position(A)                                  Velocity(au)
C        -0.04306344     0.03406707    -0.17807487    -0.00014534     0.00006286    -0.00145404
N        -0.04688709    -0.13035827     1.47799598     0.00021108    -0.00045563     0.00134702
H         0.92540662     0.09036075    -0.63256146     0.00258860     0.00086825    -0.00095163
H         0.83111407     0.18870708     1.89981915    -0.00128130     0.00119338    -0.00054302
H        -0.86944507     0.29990196     1.89001937    -0.00146077     0.00278211     0.00128288
H        -0.93529543     0.15681048    -0.68204370    -0.00104794     0.00073883    -0.00118060
     6
  Step:    23            Position(A)                                  Velocity(au)
C        -0.04448247     0.03468794    -0.19378364    -0.00011034     0.00005107    -0.00141939
N        -0.04456408    -0.13535156     1.49263362     0.00019982    -0.00045372     0.00132748
H         0.95439913     0.10008240    -0.64318467     0.00261834     0.00090357    -0.00095510
H         0.81704550     0.20175346     1.89387897    -0.00121359     0.00121617    -0.00050732
H        -0.88574809     0.33066091     1.90431194    -0.00140701     0.00277426     0.00127495
H        -0.94928799     0.16527371    -0.69599656    -0.00145964     0.00080245    -0.00134621
     6
  Step:    24            Position(A)                                  Velocity(au)
C        -0.04547733     0.03518430    -0.20912680    -0.00007057     0.00004043    -0.00138766
N        -0.04251567    -0.14028416     1.50703725     0.00016339    -0.00044518     0.00130401
H         0.98268774     0.11012816    -0.65345603     0.00247558     0.00092700    -0.00089621
H         0.80456449     0.21531302     1.88872063    -0.00099849     0.00128769    -0.00040539
H        -0.90022603     0.36059420     1.91791136    -0.00115372     0.00263912     0.00117073
H        -0.96722783     0.17436562    -0.71149460    -0.00175292     0.00085082    -0.00145475
     6
  Step:    25            Position(A)                                  Velocity(au)
C        -0.04602636     0.03557236    -0.22414125    -0.00003086     0.00003144    -0.00135920
N        -0.04098960    -0.14509067     1.52116130     0.00010789    -0.00043108     0.00127650
H         1.00855716     0.12036222    -0.66279096     0.00219368     0.00093801    -0.00079254
H         0.79520170     0.22992412     1.88501039    -0.00066409     0.00140234    -0.00025325
H        -0.91098801     0.38839664     1.92992398    -0.00075583     0.00239614     0.00099913
H        -0.98763643     0.18388699    -0.72782208    -0.00190530     0.00087935    -0.00149570
     6
  Step:    26            Position(A)                                  Velocity(au)
C        -0.04615246     0.03587203    -0.23886194     0.00000559     0.00002430    -0.00133350
N        -0.04015530    -0.14971487     1.53496306     0.00004099    -0.00041180     0.00124558
H         1.03067867     0.13064901    -0.67079433     0.00180689     0.00093697    -0.00066004
H         0.79003626     0.24599182     1.88318037    -0.00026201     0.00154118    -0.00007571
H        -0.91676129     0.41301445     1.93976914    -0.00026651     0.00206871     0.00078633
H        -1.00890983     0.19360318    -0.74421591    -0.00191454     0.00088616    -0.00146961
     6
  Step:    27            Position(A)                                  Velocity(au)
C        -0.04590405     0.03610389    -0.25331415     0.00003712     0.00001897    -0.00130950
N        -0.04009292    -0.15409962     1.54841085    -0.00002927    -0.00038690     0.00121241
H         1.04808638     0.14086034    -0.67723066     0.00134634     0.00092476    -0.00051183
H         0.78946980     0.26364044     1.88335399     0.00014266     0.00167439     0.00009910
H        -0.91681835     0.43365355     1.94712641     0.00026883     0.00167971     0.00055352
H        -1.02952056     0.20327343    -0.75997270    -0.00179338     0.00087166    -0.00138474
     6
  Step:    28            Position(A)                                  Velocity(au)
C        -0.04534046     0.03628694    -0.26750986     0.00006309     0.00001525    -0.00128596
N        -0.04079555    -0.15817907     1.56148680    -0.00009553    -0.00035556     0.00117806
H         1.06013238     0.15087991    -0.68199169     0.00083924     0.00090261    -0.00035836
H         0.79315727     0.28262235     1.88534844     0.00048691     0.00176823     0.00024673
H        -0.91088007     0.44976121     1.95187849     0.00081245     0.00125066     0.00031744
H        -1.04814339     0.21267240    -0.77450969    -0.00156281     0.00083782    -0.00125306
     6
  Step:    29            Position(A)                                  Velocity(au)
C        -0.04452374     0.03643743    -0.28144688     0.00008342     0.00001286    -0.00126158
N        -0.04218290    -0.16187819     1.57418317    -0.00015203    -0.00031731     0.00114309
H         1.06644631     0.16060670    -0.68507048     0.00030990     0.00087211    -0.00020814
H         0.80012197     0.30232385     1.88875162     0.00072429     0.00179377     0.00035153
H        -0.89904455     0.46101410     1.95407104     0.00133120     0.00080301     0.00009215
H        -1.06370999     0.22160226    -0.78738579    -0.00124676     0.00078738    -0.00108742
     6
  Step:    30            Position(A)                                  Velocity(au)
C        -0.04351551     0.03656821    -0.29510923     0.00009812     0.00001147    -0.00123514
N        -0.04412140    -0.16512085     1.58649419    -0.00019474    -0.00027267     0.00110728
H         1.06691200     0.16995889    -0.68654515    -0.00021882     0.00083521    -0.00006854
H         0.80900243     0.32186447     1.89303887     0.00083221     0.00173329     0.00040827
H        -0.88175761     0.46732855     1.95389437     0.00179262     0.00036053    -0.00010903
H        -1.07541860     0.22989783    -0.79829904    -0.00086898     0.00072338    -0.00089992
     6
  Step:    31            Position(A)                                  Velocity(au)
C        -0.04237714     0.03668837    -0.30846792     0.00010713     0.00001072    -0.00120549
N        -0.04644325    -0.16784332     1.59840707    -0.00022115    -0.00022346     0.00106963
H         1.06165928     0.17887861    -0.68656988    -0.00072399     0.00079444     0.00005359
H         0.81832821     0.34024279     1.89768341     0.00081107     0.00158220     0.00042028
H        -0.85982755     0.46890129     1.95168586     0.00216137    -0.00004798    -0.00027186
H        -1.08272062     0.23742755    -0.80707329    -0.00045181     0.00064888    -0.00070142
     6
  Step:    32            Position(A)                                  Velocity(au)
C        -0.04117187     0.03680282    -0.32148154     0.00011015     0.00001020    -0.00117147
N        -0.04895940    -0.17000955     1.60989450    -0.00022958    -0.00017285     0.00102862
H         1.05107343     0.18733883    -0.68537284    -0.00118120     0.00075305     0.00015134
H         0.82674608     0.35647814     1.90223330     0.00067781     0.00134725     0.00039599
H        -0.83447362     0.46627882     1.94794691     0.00239739    -0.00038687    -0.00038045
H        -1.08530278     0.24409325    -0.81364387    -0.00001622     0.00056698    -0.00050163
     6
  Step:    33            Position(A)                                  Velocity(au)
C        -0.03996743     0.03691153    -0.33409610     0.00010662     0.00000940    -0.00113193
N        -0.05146565    -0.17162472     1.62091005    -0.00021882    -0.00012492     0.00098245
H         1.03581819     0.19535297    -0.68325902    -0.00156339     0.00071531     0.00021743
H         0.83315652     0.36971655     1.90634652     0.00045851     0.00104237     0.00034592
H        -0.80738003     0.46043767     1.94336274     0.00245780    -0.00061454    -0.00041817
H        -1.08307544     0.24983124    -0.81804736     0.00041747     0.00048087    -0.00030958
     6
  Step:    34            Position(A)                                  Velocity(au)
C        -0.03883930     0.03700840    -0.34624471     0.00009576     0.00000769    -0.00108565
N        -0.05374660    -0.17274251     1.63138755    -0.00018829    -0.00008406     0.00092951
H         1.01687139     0.20298751    -0.68061608    -0.00184034     0.00068671     0.00024405
H         0.83677696     0.37928200     1.90980099     0.00018276     0.00068535     0.00028058
H        -0.78070452     0.45283450     1.93879870     0.00230442    -0.00068964    -0.00037076
H        -1.07616985     0.25461327    -0.82041650     0.00082863     0.00039407    -0.00013410
     6
  Step:    35            Position(A)                                  Velocity(au)
C        -0.03787240     0.03707968    -0.35784674     0.00007681     0.00000430    -0.00103135
N        -0.05558485    -0.17346363     1.64124495    -0.00013877    -0.00005381     0.00086880
H         0.99555716     0.21037604    -0.67791995    -0.00198037     0.00067390     0.00022331
H         0.83715472     0.38470984     1.91248468    -0.00011951     0.00029614     0.00020946
H        -0.75696649     0.44535055     1.93525171     0.00191797    -0.00058411    -0.00023194
H        -1.06494759     0.25845224    -0.82098103     0.00119519     0.00031068     0.00001563
     6
  Step:    36            Position(A)                                  Velocity(au)
C        -0.03715900     0.03710239    -0.36880741     0.00004946    -0.00000166    -0.00096779
N        -0.05678256    -0.17391981     1.65039414    -0.00007368    -0.00003565     0.00080042
H         0.97354702     0.21773041    -0.67573070    -0.00195502     0.00068402     0.00014865
H         0.83416240     0.38576072     1.91438336    -0.00041864    -0.00010405     0.00014109
H        -0.73874534     0.44005603     1.93372460     0.00131531    -0.00030052    -0.00001013
H        -1.05002274     0.26141005    -0.82007452     0.00149290     0.00023566     0.00012975
     6
  Step:    37            Position(A)                                  Velocity(au)
C        -0.03679027     0.03704339    -0.37901904     0.00001467    -0.00001105    -0.00089398
N        -0.05719679    -0.17424345     1.65875562     0.00000016    -0.00002797     0.00072585
H         0.95278735     0.22534024    -0.67466790    -0.00174778     0.00072303     0.00001716
H         0.82799611     0.38243346     1.91557120    -0.00068462    -0.00049268     0.00008337
H        -0.72819153     0.43877601     1.93503006     0.00056025     0.00011520     0.00026781
H        -1.03228759     0.26360765    -0.81814256     0.00169521     0.00017486     0.00019763
     6
  Step:    38            Position(A)                                  Velocity(au)
C        -0.03683808     0.03686060    -0.38836490    -0.00002465    -0.00002451    -0.00080941
N        -0.05677912    -0.17453178     1.66627356     0.00007293    -0.00002648     0.00064765
H         0.93531098     0.23354808    -0.67535529    -0.00136484     0.00079320    -0.00016764
H         0.81918508     0.37498245     1.91620727    -0.00088630    -0.00084559     0.00004412
H        -0.72648880     0.44257628     1.93958340    -0.00024333     0.00057768     0.00056010
H        -1.01293675     0.26523537    -0.81575092     0.00177477     0.00013486     0.00020849
     6
  Step:    39            Position(A)                                  Velocity(au)
C        -0.03732953     0.03650708    -0.39672654    -0.00006327    -0.00004214    -0.00071442
N        -0.05560129    -0.17482284     1.67292414     0.00013381    -0.00002582     0.00056860
H         0.92292893     0.24269297    -0.67833526    -0.00084311     0.00089042    -0.00039380
H         0.80860661     0.36393453     1.91653647    -0.00099194    -0.00113788     0.00003118
H        -0.73351474     0.45141382     1.94728333    -0.00097814     0.00098640     0.00082120
H        -0.99346117     0.26655788    -0.81358142     0.00170759     0.00012205     0.00015303
     6
  Step:    40            Position(A)                                  Velocity(au)
C        -0.03822215     0.03593866    -0.40399426    -0.00009438    -0.00006325    -0.00061035
N        -0.05385167    -0.17509671     1.67871278     0.00017364    -0.00002179     0.00049084
H         0.91686623     0.25302769    -0.68397047    -0.00024906     0.00100305    -0.00064147
H         0.79748450     0.35008923     1.91688949    -0.00097196    -0.00134625     0.00005200
H        -0.74788752     0.46415577     1.95754868    -0.00154760     0.00125882     0.00101511
H        -0.97557994     0.26790543    -0.81240313     0.00148038     0.00014092     0.00002638
     6
  Step:    41            Position(A)                                  Velocity(au)
C        -0.03939436     0.03512338    -0.41007913    -0.00011154    -0.00008631    -0.00049960
N        -0.05180259    -0.17529964     1.68366229     0.00018696    -0.00001266     0.00041536
H         0.91748031     0.26463659    -0.69236856     0.00033471     0.00111356    -0.00088634
H         0.78734319     0.33448263     1.91767409    -0.00080479    -0.00145351     0.00011226
H        -0.76737140     0.47895293     1.96949076    -0.00189847     0.00135272     0.00112353
H        -0.96107496     0.26964075    -0.81300441     0.00109966     0.00019158    -0.00016819
     6
  Step:    42            Position(A)                                  Velocity(au)
C        -0.04066236     0.03405046    -0.41492398    -0.00011098    -0.00010912    -0.00038544
N        -0.04976152    -0.17537359     1.68779955     0.00017285     0.00000117     0.00034216
H         0.92418867     0.27738891    -0.70336077     0.00083028     0.00120283    -0.00110508
H         0.77987810     0.31829081     1.91934549    -0.00048563    -0.00145442     0.00021363
H        -0.78942023     0.49374906     1.98212812    -0.00202307     0.00126806     0.00114570
H        -0.95152285     0.27209650    -0.81608253     0.00059883     0.00026743    -0.00041616
     6
  Step:    43            Position(A)                                  Velocity(au)
C        -0.04182219     0.03273625    -0.41851133    -0.00009310    -0.00012913    -0.00027162
N        -0.04802108    -0.17527394     1.69114772     0.00013458     0.00001846     0.00027090
H         0.93564420     0.29095083    -0.71654430     0.00118275     0.00125510    -0.00128007
H         0.77671919     0.30266434     1.92234755    -0.00003485    -0.00136099     0.00035134
H        -0.81162998     0.50669419     1.99455523    -0.00194613     0.00103360     0.00109256
H        -0.94797442     0.27549123    -0.82210860     0.00003761     0.00035448    -0.00069166
     6
  Step:    44            Position(A)                                  Velocity(au)
C        -0.04269921     0.03122552    -0.42086622    -0.00006224    -0.00014396    -0.00016185
N        -0.04681743    -0.17496978     1.69372594     0.00007861     0.00003836     0.00020143
H         0.95006368     0.30484664    -0.73136473     0.00136818     0.00126118    -0.00140167
H         0.77911561     0.28851664     1.92703163     0.00049823    -0.00120282     0.00051272
H        -0.83199554     0.51636102     2.00602992    -0.00170787     0.00069016     0.00098000
H        -0.95070010     0.27985132    -0.83121394    -0.00050930     0.00043377    -0.00096163
     6