 Fermi distribution function

Calculation with static geometry


********************************************************************************
 iSCC Total electronic   Diff electronic      SCC error    
   13   -0.53007617E+01   -0.47196913E-10    0.37589517E-06
********************************************************************************

 Total charge:     1.00000000

 Atomic gross charges (e)
 Atom           Charge
    1       0.32983081
    2      -0.21748247
    3       0.16417109
    4       0.26072553
    5       0.28513253
    6       0.17762251

Nr. of electrons (up):     12.00000000
Atom populations (up)
 Atom       Population
    1       3.67016919
    2       5.21748247
    3       0.83582891
    4       0.73927447
    5       0.71486747
    6       0.82237749

l-shell populations (up)
 Atom Sh.   l       Population
    1   1   0       1.37001267
    1   2   1       2.30015652
    2   1   0       1.49432748
    2   2   1       3.72315500
    3   1   0       0.83582891
    4   1   0       0.73927447
    5   1   0       0.71486747
    6   1   0       0.82237749

Orbital populations (up)
 Atom Sh.   l   m       Population  Label
    1   1   0   0       1.37001267  s
    1   2   1  -1       0.48431791  p_y
    1   2   1   0       0.88551485  p_z
    1   2   1   1       0.93032375  p_x
    2   1   0   0       1.49432748  s
    2   2   1  -1       1.32612038  p_y
    2   2   1   0       1.11784143  p_z
    2   2   1   1       1.27919318  p_x
    3   1   0   0       0.83582891  s
    4   1   0   0       0.73927447  s
    5   1   0   0       0.71486747  s
    6   1   0   0       0.82237749  s

Fermi level:                        -0.5082278466 H          -13.8296 eV
Band energy:                        -8.7280998870 H         -237.5037 eV
TS:                                  0.0000000000 H            0.0000 eV
Band free energy (E-TS):            -8.7280998870 H         -237.5037 eV
Extrapolated E(0K):                 -8.7280998870 H         -237.5037 eV
Input / Output electrons (q):     12.0000000000     12.0000000000

Energy H0:                          -5.4378326837 H         -147.9710 eV
Energy SCC:                          0.1370709995 H            3.7299 eV
Total Electronic energy:            -5.3007616842 H         -144.2411 eV
Repulsive energy:                    0.1477741805 H            4.0211 eV
Total energy:                       -5.1529875037 H         -140.2199 eV
Extrapolated to 0:                  -5.1529875037 H         -140.2199 eV
Total Mermin free energy:           -5.1529875037 H         -140.2199 eV
Force related energy:               -5.1529875037 H         -140.2199 eV

SCC converged

Excitation Energy:                   0.0883605499 H            2.4044 eV

Total Forces
    1      0.001663664342     -0.006025518502      0.069239053330
    2     -0.004078021337     -0.007314378904     -0.073276610528
    3     -0.005375133712     -0.011076380008     -0.002504500574
    4     -0.009356330716      0.016423481926     -0.000978770837
    5      0.011289976718     -0.007766404297      0.003599587741
    6      0.005855844706      0.015759199785      0.003921240868

Maximal derivative component:        0.732766E-01 au


