|===============================================================================
|
|  DFTB+ release 20.1
|
|  Copyright (C) 2006 - 2020  DFTB+ developers group
|
|===============================================================================
|
|  When publishing results obtained with DFTB+, please cite the following
|  reference:
|
|  * DFTB+, a software package for efficient approximate density functional
|    theory based atomistic simulations, J. Chem. Phys. 152, 124101 (2020).
|    [doi: 10.1063/1.5143190]
|
|  You should also cite additional publications crediting the parametrization
|  data you use. Please consult the documentation of the SK-files for the
|  references.
|
|===============================================================================

Reading input file 'dftb_in.hsd'
Parser version: 8

--------------------------------------------------------------------------------
Reading SK-files:
Done.


Processed input in HSD format written to 'dftb_pin.hsd'

Starting initialization...
--------------------------------------------------------------------------------
WARNING!
-> Excited state forces are not implemented yet for fractional occupations, kT=  0.3158E-02K
OpenMP threads:              1
Chosen random seed:          506997156
Mode:                        Static calculation
Self consistent charges:     Yes
SCC-tolerance:                 0.100000E-05
Max. scc iterations:                    100
Shell resolved Hubbard:      No
Spin polarisation:           No
Nr. of up electrons:             6.000000
Nr. of down electrons:           6.000000
Periodic boundaries:         No
Electronic solver:           Relatively robust
Mixer:                       Broyden mixer
Mixing parameter:                  0.200000
Maximal SCC-cycles:                     100
Nr. of chrg. vec. in memory:              0
Electronic temperature:        0.100000E-07 H      0.272114E-06 eV
Initial charges:             Set automatically (system chrg:   0.100E+01)
Included shells:             C:  s, p
                             N:  s, p
                             H:  s
Extra options:
                             Mulliken analysis
                             Force calculation
Force type                   original
                             Eigenvector printing

--------------------------------------------------------------------------------

***  Geometry step: 0

 iSCC Total electronic   Diff electronic      SCC error    
    1   -0.52718768E+01    0.00000000E+00    0.10516310E+01
    2   -0.52890582E+01   -0.17181412E-01    0.68638734E+00
    3   -0.52976114E+01   -0.85531555E-02    0.23979897E+00
    4   -0.51778961E+01    0.11971525E+00    0.11505730E+01
    5   -0.53002671E+01   -0.12237099E+00    0.76231505E-01
    6   -0.53007606E+01   -0.49346505E-03    0.66095493E-02
    7   -0.53007584E+01    0.21997485E-05    0.85454682E-02
    8   -0.53007601E+01   -0.17556803E-05    0.45810726E-02
    9   -0.53007607E+01   -0.51853968E-06    0.37404138E-02
   10   -0.53007616E+01   -0.93430852E-06    0.10849371E-02
   11   -0.53007617E+01   -0.60575356E-07    0.61168941E-03
   12   -0.53007617E+01   -0.27868002E-07    0.24846414E-04
   13   -0.53007617E+01   -0.47196913E-10    0.37589517E-06
>> Charges saved for restart in charges.bin

Total Energy:                       -5.0646269538 H         -137.8155 eV
Extrapolated to 0:                  -5.1529875037 H         -140.2199 eV
Total Mermin free energy:           -5.0646269538 H         -137.8155 eV
Force related energy:               -5.1529875037 H         -140.2199 eV

--------------------------------------------------------------------------------
DFTB+ running times                          cpu [s]             wall clock [s]
--------------------------------------------------------------------------------
SCC                                    +     0.02  ( 72.5%)      0.09  ( 83.2%)
Post-SCC processing                    +     0.01  ( 21.8%)      0.01  ( 10.6%)
--------------------------------------------------------------------------------
Missing                                +     0.00  (  5.7%)      0.01  (  6.2%)
Total                                  =     0.03  (100.0%)      0.11  (100.0%)
--------------------------------------------------------------------------------
