|===============================================================================
|
|  DFTB+ release 20.1
|
|  Copyright (C) 2006 - 2020  DFTB+ developers group
|
|===============================================================================
|
|  When publishing results obtained with DFTB+, please cite the following
|  reference:
|
|  * DFTB+, a software package for efficient approximate density functional
|    theory based atomistic simulations, J. Chem. Phys. 152, 124101 (2020).
|    [doi: 10.1063/1.5143190]
|
|  You should also cite additional publications crediting the parametrization
|  data you use. Please consult the documentation of the SK-files for the
|  references.
|
|===============================================================================

Reading input file 'dftb_in.hsd'
Parser version: 8

--------------------------------------------------------------------------------
Reading SK-files:
Done.


Processed input in HSD format written to 'dftb_pin.hsd'

Starting initialization...
--------------------------------------------------------------------------------
WARNING!
-> Excited state forces are not implemented yet for fractional occupations, kT=  0.3158E-02K
OpenMP threads:              1
Chosen random seed:          433866565
Mode:                        Static calculation
Self consistent charges:     Yes
SCC-tolerance:                 0.100000E-05
Max. scc iterations:                    100
Shell resolved Hubbard:      No
Spin polarisation:           No
Nr. of up electrons:             6.000000
Nr. of down electrons:           6.000000
Periodic boundaries:         No
Electronic solver:           Relatively robust
Mixer:                       Broyden mixer
Mixing parameter:                  0.200000
Maximal SCC-cycles:                     100
Nr. of chrg. vec. in memory:              0
Electronic temperature:        0.100000E-07 H      0.272114E-06 eV
Initial charges:             Set automatically (system chrg:   0.100E+01)
Included shells:             C:  s, p
                             N:  s, p
                             H:  s
Extra options:
                             Mulliken analysis
                             Force calculation
Force type                   original
                             Eigenvector printing

--------------------------------------------------------------------------------

***  Geometry step: 0

 iSCC Total electronic   Diff electronic      SCC error    
    1   -0.52810256E+01    0.00000000E+00    0.10744606E+01
    2   -0.52993760E+01   -0.18350463E-01    0.69634301E+00
    3   -0.53069454E+01   -0.75694014E-02    0.27721109E+00
    4   -0.51347679E+01    0.17217749E+00    0.13702478E+01
    5   -0.53103958E+01   -0.17562784E+00    0.10294526E+00
    6   -0.53113127E+01   -0.91686762E-03    0.12088524E-01
    7   -0.53113044E+01    0.82895224E-05    0.15746938E-01
    8   -0.53113151E+01   -0.10734754E-04    0.73697534E-02
    9   -0.53113164E+01   -0.13158636E-05    0.60698202E-02
   10   -0.53113190E+01   -0.26072797E-05    0.15097696E-02
   11   -0.53113192E+01   -0.12415895E-06    0.80513019E-03
   12   -0.53113192E+01   -0.49651837E-07    0.92076392E-05
   13   -0.53113192E+01   -0.65769612E-11    0.50896500E-08
>> Charges saved for restart in charges.bin

Total Energy:                       -5.0685137390 H         -137.9213 eV
Extrapolated to 0:                  -5.1620533629 H         -140.4666 eV
Total Mermin free energy:           -5.0685137390 H         -137.9213 eV
Force related energy:               -5.1620533629 H         -140.4666 eV

--------------------------------------------------------------------------------
DFTB+ running times                          cpu [s]             wall clock [s]
--------------------------------------------------------------------------------
SCC                                    +     0.02  ( 64.8%)      0.05  ( 67.6%)
Post-SCC processing                    +     0.01  ( 28.7%)      0.02  ( 25.0%)
--------------------------------------------------------------------------------
Missing                                +     0.00  (  6.5%)      0.01  (  7.4%)
Total                                  =     0.04  (100.0%)      0.07  (100.0%)
--------------------------------------------------------------------------------
