     6
  Step:   120            Position(A)                                  Velocity(au)
C        -0.03447117     0.04731091    -0.22376125    -0.00001765     0.00003326     0.00004403
N        -0.04762542    -0.01746950     1.51311747     0.00013014     0.00034098     0.00000219
H         0.96420800    -0.08268274    -0.69476272     0.00024019    -0.00010596     0.00049179
H         0.85136346    -0.48512247     1.92518463    -0.00122449    -0.00211137    -0.00128406
H        -0.95103843    -0.27965510     1.94475457    -0.00059802    -0.00168183    -0.00030833
H        -1.00488037    -0.14332184    -0.64358965    -0.00001585    -0.00123563     0.00054553
