     6
  Step:     0            Position(A)                                  Velocity(au)
C        -0.03684463     0.02389802     0.00772508     0.00006024     0.00002985    -0.00032232
N        -0.05433284    -0.05360211     1.30224836    -0.00009274    -0.00011330     0.00026617
H         0.93651339    -0.05377754    -0.50717236     0.00019364     0.00028221     0.00012284
H         0.89749443    -0.11224612     1.86393400     0.00121118     0.00019992     0.00118324
H        -0.88063597    -0.06906909     1.87492981     0.00053238     0.00074570    -0.00046753
H        -0.97223803     0.02541806    -0.52820397    -0.00136623    -0.00000908    -0.00069652
     6
  Step:     1            Position(A)                                  Velocity(au)
C        -0.03649444     0.02410136     0.00563667     0.00006659     0.00004419    -0.00044005
N        -0.05476596    -0.05422657     1.30400748    -0.00006420    -0.00011512     0.00037531
H         0.93754835    -0.05234678    -0.50651685     0.00018466     0.00024187     0.00011547
H         0.90352068    -0.11121542     1.87005142     0.00098178     0.00017852     0.00104760
H        -0.87814954    -0.06510531     1.87254974     0.00036621     0.00070449    -0.00039436
H        -0.97993946     0.02524750    -0.53215638    -0.00143394    -0.00005176    -0.00074045
     6
  Step:     2            Position(A)                                  Velocity(au)
C        -0.03611607     0.02438156     0.00291022     0.00007045     0.00005778    -0.00055429
N        -0.05503526    -0.05486169     1.30635485    -0.00003311    -0.00011705     0.00048016
H         0.93853387    -0.05113113    -0.50590889     0.00017556     0.00020363     0.00010505
H         0.90823663    -0.11029285     1.87539633     0.00073370     0.00016021     0.00090127
H        -0.87662904    -0.06136090     1.87061492     0.00018096     0.00066508    -0.00030552
H        -0.98792754     0.02485176    -0.53630559    -0.00146959    -0.00009096    -0.00076822
     6
  Step:     3            Position(A)                                  Velocity(au)
C        -0.03572309     0.02473402    -0.00043226     0.00007182     0.00007039    -0.00066329
N        -0.05512845    -0.05550811     1.30926471    -0.00000018    -0.00011902     0.00057932
H         0.93947054    -0.05011721    -0.50536670     0.00016687     0.00016807     0.00009105
H         0.91155391    -0.10946129     1.87991940     0.00047229     0.00014496     0.00074741
H        -0.87616817    -0.05782341     1.86920463    -0.00001848     0.00062802    -0.00020393
H        -0.99602996     0.02425159    -0.54056756    -0.00147387    -0.00012600    -0.00078104
     6
  Step:     4            Position(A)                                  Velocity(au)
C        -0.03532897     0.02515305    -0.00435929     0.00007072     0.00008181    -0.00076507
N        -0.05503728    -0.05616607     1.31270400     0.00003374    -0.00012091     0.00067125
H         0.94036272    -0.04928911    -0.50491102     0.00015938     0.00013553     0.00007308
H         0.91341276    -0.10870409     1.88358771     0.00020319     0.00013258     0.00058910
H        -0.87683154    -0.05447794     1.86837987    -0.00022600     0.00059355    -0.00009348
H        -1.00408072     0.02347083    -0.54486557    -0.00144804    -0.00015640    -0.00078007
     6
  Step:     5            Position(A)                                  Velocity(au)
C        -0.03494696     0.02563192    -0.00882863     0.00006722     0.00009186    -0.00085743
N        -0.05475821    -0.05683504     1.31663150     0.00006768    -0.00012255     0.00075427
H         0.94121964    -0.04862983    -0.50456462     0.00015397     0.00010610     0.00005089
H         0.91378388    -0.10800622     1.88638463    -0.00006738     0.00012267     0.00042961
H        -0.87864848    -0.05130937     1.86817874    -0.00043439     0.00056149     0.00002117
H        -1.01192178     0.02253516    -0.54912858    -0.00139365    -0.00018191    -0.00076604
     6
  Step:     6            Position(A)                                  Velocity(au)
C        -0.03458987     0.02616300    -0.01378644     0.00006145     0.00010036    -0.00093815
N        -0.05429320    -0.05751343     1.32099692     0.00010053    -0.00012371     0.00082661
H         0.94205561    -0.04812262    -0.50435145     0.00015149     0.00007967     0.00002441
H         0.91267193    -0.10735537     1.88831115    -0.00033248     0.00011467     0.00027254
H        -0.88160750    -0.04830455     1.86861268    -0.00063554     0.00053134     0.00013482
H        -1.01940348     0.02147078    -0.55328789    -0.00131266    -0.00020248    -0.00073955
     6
  Step:     7            Position(A)                                  Velocity(au)
C        -0.03426978     0.02673791    -0.01916712     0.00005360     0.00010719    -0.00100514
N        -0.05365036    -0.05819835     1.32574081     0.00013111    -0.00012417     0.00088665
H         0.94288912    -0.04775182    -0.50429566     0.00015254     0.00005605    -0.00000622
H         0.91011988    -0.10674257     1.88938810    -0.00058444     0.00010795     0.00012193
H        -0.88565221    -0.04545396     1.86966447    -0.00082096     0.00050239     0.00024210
H        -1.02638749     0.02030379    -0.55727850    -0.00120776    -0.00021816    -0.00070163
     6
  Step:     8            Position(A)                                  Velocity(au)
C        -0.03399759     0.02734760    -0.02489442     0.00004394     0.00011226    -0.00105676
N        -0.05284424    -0.05888568     1.33079540     0.00015825    -0.00012373     0.00093310
H         0.94374132    -0.04750324    -0.50442018     0.00015737     0.00003498    -0.00004053
H         0.90621316    -0.10616244     1.88965866    -0.00081512     0.00010188    -0.00001783
H        -0.89068007    -0.04275251     1.87128821    -0.00098247     0.00047393     0.00033799
H        -1.03275064     0.01905988    -0.56104179    -0.00108247    -0.00022907    -0.00065382
     6
  Step:     9            Position(A)                                  Velocity(au)
C        -0.03378260     0.02798257    -0.03088368     0.00003285     0.00011554    -0.00109207
N        -0.05189579    -0.05957020     1.33608627     0.00018087    -0.00012226     0.00096522
H         0.94463392    -0.04736395    -0.50474504     0.00016588     0.00001628    -0.00007778
H         0.90108240    -0.10561296     1.88919046    -0.00101652     0.00009594    -0.00014224
H        -0.89654513    -0.04019938     1.87341179    -0.00111314     0.00044537     0.00041825
H        -1.03838906     0.01776399    -0.56452760    -0.00094116    -0.00023546    -0.00059808
     6
  Step:    10            Position(A)                                  Velocity(au)
C        -0.03363202     0.02863320    -0.03704559     0.00002077     0.00011710    -0.00111114
N        -0.05083171    -0.06024600     1.34153515     0.00019816    -0.00011971     0.00098309
H         0.94558708    -0.04732214    -0.50528566     0.00017764    -0.00000025    -0.00011699
H         0.89490261    -0.10509498     1.88807603    -0.00118164     0.00008968    -0.00024716
H        -0.90306570    -0.03779703     1.87594198    -0.00120819     0.00041640     0.00048000
H        -1.04322276     0.01643992    -0.56769651    -0.00078898    -0.00023771    -0.00053680
     6
  Step:    11            Position(A)                                  Velocity(au)
C        -0.03355061     0.02929025    -0.04329181     0.00000817     0.00011713    -0.00111534
N        -0.04968298    -0.06090701     1.34706447     0.00020966    -0.00011618     0.00098787
H         0.94661762    -0.04736675    -0.50605152     0.00019201    -0.00001476    -0.00015719
H         0.88788706    -0.10461147     1.88643046    -0.00130558     0.00008286    -0.00032936
H        -0.91003698    -0.03554947     1.87877199    -0.00126580     0.00038707     0.00052203
H        -1.04719964     0.01510949    -0.57052209    -0.00063147    -0.00023638    -0.00047268
     6
  Step:    12            Position(A)                                  Velocity(au)
C        -0.03354050     0.02994549    -0.04954183    -0.00000452     0.00011591    -0.00110728
N        -0.04848270    -0.06154769     1.35260312     0.00021537    -0.00011188     0.00098173
H         0.94773837    -0.04748746    -0.50704677     0.00020835    -0.00002742    -0.00019761
H         0.88027505    -0.10416664     1.88438592    -0.00138608     0.00007534    -0.00038687
H        -0.91724757    -0.03346032     1.88179081    -0.00128726     0.00035775     0.00054489
H        -1.05029767     0.01379154    -0.57299241    -0.00047399    -0.00023223    -0.00040847
     6
  Step:    13            Position(A)                                  Velocity(au)
C        -0.03360137     0.03059230    -0.05572978    -0.00001693     0.00011384    -0.00109043
N        -0.04726376    -0.06216371     1.35809217     0.00021563    -0.00010708     0.00096763
H         0.94895800    -0.04767473    -0.50827121     0.00022606    -0.00003846    -0.00023781
H         0.87231738    -0.10376519     1.88208475    -0.00142327     0.00006709    -0.00041894
H        -0.92449666    -0.03153093     1.88489265    -0.00127649     0.00032898     0.00055056
H        -1.05252393     0.01250088    -0.57511036    -0.00032111    -0.00022613    -0.00034665
     6
  Step:    14            Position(A)                                  Velocity(au)
C        -0.03373091     0.03122614    -0.06180892    -0.00002880     0.00011128    -0.00106844
N        -0.04605688    -0.06275229     1.36348871     0.00021101    -0.00010207     0.00094863
H         0.95028153    -0.04792013    -0.50972209     0.00024465    -0.00004815    -0.00027769
H         0.86426365    -0.10341186     1.87967293    -0.00141892     0.00005813    -0.00042580
H        -0.93160776    -0.02975939     1.88798441    -0.00123875     0.00030129     0.00054184
H        -1.05391010     0.01124765    -0.57689217    -0.00017607    -0.00021892    -0.00028919
     6
  Step:    15            Position(A)                                  Velocity(au)
C        -0.03392544     0.03184452    -0.06775253    -0.00003998     0.00010857    -0.00104439
N        -0.04488932    -0.06331227     1.36876669     0.00020211    -0.00009708     0.00092732
H         0.95171090    -0.04821658    -0.51139591     0.00026362    -0.00005677    -0.00031732
H         0.85635087    -0.10311113     1.87729344    -0.00137557     0.00004845    -0.00040834
H        -0.93843582    -0.02814065     1.89098980    -0.00117935     0.00027500     0.00052169
H        -1.05450522     0.01003744    -0.57836451    -0.00004075    -0.00021129    -0.00023736
     6
  Step:    16            Position(A)                                  Velocity(au)
C        -0.03418045     0.03244670    -0.07355064    -0.00005037     0.00010589    -0.00102025
N        -0.04378466    -0.06384374     1.37391424     0.00018940    -0.00009224     0.00090535
H         0.95324528    -0.04855839    -0.51328960     0.00028241    -0.00006456    -0.00035680
H         0.84879853    -0.10286717     1.87508210    -0.00129542     0.00003805    -0.00036764
H        -0.94486684    -0.02666767     1.89384958    -0.00110263     0.00025014     0.00049261
H        -1.05436826     0.00887219    -0.57956079     0.00008397    -0.00020366    -0.00019186
     6
  Step:    17            Position(A)                                  Velocity(au)
C        -0.03449084     0.03303302    -0.07920412    -0.00005986     0.00010333    -0.00099691
N        -0.04276347    -0.06434754     1.37892860     0.00017322    -0.00008756     0.00088343
H         0.95488078    -0.04894117    -0.51540069     0.00030033    -0.00007169    -0.00039605
H         0.84181071    -0.10268403     1.87316693    -0.00118009     0.00002692    -0.00030479
H        -0.95081205    -0.02533304     1.89651903    -0.00101173     0.00022650     0.00045658
H        -1.05356273     0.00775153    -0.58051797     0.00019762    -0.00019621    -0.00015298
     6
  Step:    18            Position(A)                                  Velocity(au)
C        -0.03485101     0.03360425    -0.08471842    -0.00006831     0.00010089    -0.00097436
N        -0.04184414    -0.06482467     1.38381081     0.00015385    -0.00008303     0.00086153
H         0.95660968    -0.04936145    -0.51772634     0.00031650    -0.00007827    -0.00043478
H         0.83557867    -0.10256559     1.87166767    -0.00103119     0.00001508    -0.00022114
H        -0.95620072    -0.02413034     1.89896441    -0.00090894     0.00020374     0.00041510
H        -1.05215441     0.00667419    -0.58127454     0.00029970    -0.00018894    -0.00012088
     6
  Step:    19            Position(A)                                  Velocity(au)
C        -0.03525462     0.03416114    -0.09009897    -0.00007556     0.00009852    -0.00095217
N        -0.04104323    -0.06527597     1.38856193     0.00013158    -0.00007858     0.00083932
H         0.95841975    -0.04981633    -0.52026219     0.00033000    -0.00008436    -0.00047249
H         0.83028033    -0.10251537     1.87069424    -0.00085128     0.00000264    -0.00011864
H        -0.96097543    -0.02305491     1.90116049    -0.00079625     0.00018151     0.00036947
H        -1.05021158     0.00563891    -0.58186966     0.00038946    -0.00018176    -0.00009571
     6
  Step:    20            Position(A)                                  Velocity(au)
C        -0.03569454     0.03470417    -0.09534873    -0.00008143     0.00009617    -0.00092983
N        -0.04037520    -0.06570200     1.39318123     0.00010685    -0.00007417     0.00081643
H         0.96029392    -0.05030326    -0.52300137     0.00033995    -0.00009000    -0.00050864
H         0.82607476    -0.10253607     1.87034313    -0.00064453    -0.00001019    -0.00000017
H        -0.96509025    -0.02210388     1.90308926    -0.00067578     0.00015954     0.00032097
H        -1.04780633     0.00464495    -0.58234308     0.00046596    -0.00017457    -0.00007763
     6
  Step:    21            Position(A)                                  Velocity(au)
C        -0.03616270     0.03523349    -0.10046763    -0.00008578     0.00009377    -0.00090686
N        -0.03985175    -0.06610306     1.39766604     0.00008026    -0.00006976     0.00079261
H         0.96221055    -0.05081992    -0.52593411     0.00034555    -0.00009523    -0.00054266
H         0.82309307    -0.10262899     1.87069233    -0.00041697    -0.00002310     0.00013045
H        -0.96851119    -0.02127591     1.90473966    -0.00054993     0.00013759     0.00027092
H        -1.04501561     0.00369224    -0.58273534     0.00052816    -0.00016726    -0.00006683
     6
  Step:    22            Position(A)                                  Velocity(au)
C        -0.03665025     0.03574900    -0.10545303    -0.00008844     0.00009132    -0.00088295
N        -0.03948094    -0.06647928     1.40201251     0.00005255    -0.00006535     0.00076780
H         0.96414410    -0.05136430    -0.52904775     0.00034622    -0.00010011    -0.00057407
H         0.82142880    -0.10279348     1.87179659    -0.00017629    -0.00003569     0.00026859
H        -0.97121764    -0.02057080     1.90610790    -0.00042137     0.00011555     0.00022071
H        -1.04192154     0.00278133    -0.58308776     0.00057511    -0.00015974    -0.00006349
     6
  Step:    23            Position(A)                                  Velocity(au)
C        -0.03714763     0.03625041    -0.11030052    -0.00008934     0.00008877    -0.00085793
N        -0.03926654    -0.06683082     1.40621652     0.00002456    -0.00006095     0.00074210
H         0.96606613    -0.05193483    -0.53232716     0.00034153    -0.00010477    -0.00060248
H         0.82112989    -0.10302644     1.87368349     0.00006871    -0.00004747     0.00040913
H        -0.97320376    -0.01998913     1.90719756    -0.00029298     0.00009329     0.00017172
H        -1.03861099     0.00191334    -0.58344236     0.00060604    -0.00015192    -0.00006769
     6
  Step:    24            Position(A)                                  Velocity(au)
C        -0.03764488     0.03673735    -0.11500460    -0.00008841     0.00008615    -0.00083173
N        -0.03920752    -0.06715786     1.41027450    -0.00000282    -0.00005659     0.00071573
H         0.96794640    -0.05253070    -0.53575527     0.00033130    -0.00010936    -0.00062761
H         0.82219375    -0.10332193     1.87635150     0.00030867    -0.00005789     0.00054675
H        -0.97447941    -0.01953213     1.90801971    -0.00016769     0.00007074     0.00012532
H        -1.03517434     0.00108998    -0.58384140     0.00062048    -0.00014369    -0.00007945
     6
  Step:    25            Position(A)                                  Velocity(au)
C        -0.03813182     0.03720944    -0.11955941    -0.00008566     0.00008345    -0.00080438
N        -0.03929796    -0.06746077     1.41418401    -0.00002872    -0.00005230     0.00068894
H         0.96975412    -0.05315222    -0.53931372     0.00031553    -0.00011414    -0.00064930
H         0.82456598    -0.10367084     1.87976989     0.00053442    -0.00006636     0.00067635
H        -0.97507049    -0.01920167     1.90859266    -0.00004844     0.00004775     0.00008281
H        -1.03170378     0.00031374    -0.58432677     0.00061831    -0.00013490    -0.00009862
     6
  Step:    26            Position(A)                                  Velocity(au)
C        -0.03859843     0.03766633    -0.12395914    -0.00008113     0.00008069    -0.00077595
N        -0.03952724    -0.06774005     1.41794398    -0.00005232    -0.00004811     0.00066204
H         0.97145899    -0.05380132    -0.54298344     0.00029446    -0.00011948    -0.00066751
H         0.82814308    -0.10406064     1.88388078     0.00073764    -0.00007223     0.00079338
H        -0.97501862    -0.01900058     1.90894156     0.00006198     0.00002411     0.00004537
H        -1.02829120    -0.00041180    -0.58493925     0.00059977    -0.00012531    -0.00012495
     6
  Step:    27            Position(A)                                  Velocity(au)
C        -0.03903506     0.03810775    -0.12819832    -0.00007493     0.00007788    -0.00074652
N        -0.03988049    -0.06799641     1.42155475    -0.00007293    -0.00004406     0.00063526
H         0.97303247    -0.05448240    -0.54674537     0.00026851    -0.00012593    -0.00068232
H         0.83277837    -0.10447495     1.88860290     0.00091133    -0.00007473     0.00089411
H        -0.97438048    -0.01893327     1.90909780     0.00016094    -0.00000057     0.00001406
H        -1.02502628    -0.00108135    -0.58571791     0.00056552    -0.00011451    -0.00015808
     6
  Step:    28            Position(A)                                  Velocity(au)
C        -0.03943278     0.03853354    -0.13227169    -0.00006722     0.00007505    -0.00071612
N        -0.04033928    -0.06823068     1.42501766    -0.00008997    -0.00004017     0.00060874
H         0.97444887    -0.05520358    -0.55058117     0.00023834    -0.00013439    -0.00069398
H         0.83829079    -0.10489278     1.89383678     0.00105028    -0.00007290     0.00097585
H        -0.97322654    -0.01900694     1.90909809     0.00024611    -0.00002699    -0.00001027
H        -1.02199410    -0.00168686    -0.58669951     0.00051657    -0.00010184    -0.00019758
     6
  Step:    29            Position(A)                                  Velocity(au)
C        -0.03978373     0.03894363    -0.13617373    -0.00005824     0.00007223    -0.00068464
N        -0.04088246    -0.06844379     1.42833431    -0.00010304    -0.00003645     0.00058247
H         0.97568682    -0.05597913    -0.55447425     0.00020494    -0.00014641    -0.00070299
H         0.84447528    -0.10528682     1.89947089     0.00115122    -0.00006524     0.00103706
H        -0.97163958    -0.01923388     1.90898346     0.00031541    -0.00005648    -0.00002695
H        -1.01927321    -0.00221557    -0.58791837     0.00045422    -0.00008613    -0.00024314
     6
  Step:    30            Position(A)                                  Velocity(au)
C        -0.04008147     0.03933813    -0.13989769    -0.00004828     0.00006947    -0.00065157
N        -0.04148696    -0.06863666     1.43150564    -0.00011184    -0.00003288     0.00055611
H         0.97673164    -0.05683435    -0.55841161     0.00017013    -0.00016501    -0.00071049
H         0.85111390    -0.10561949     1.90538831     0.00121288    -0.00004903     0.00107750
H        -0.96971325    -0.01963609     1.90879792     0.00036696    -0.00009172    -0.00003558
H        -1.01693468    -0.00264622    -0.58940775     0.00037956    -0.00006510    -0.00029513
     6
  Step:    31            Position(A)                                  Velocity(au)
C        -0.04032155     0.03971750    -0.14343219    -0.00003786     0.00006685    -0.00061446
N        -0.04212838    -0.06881009     1.43452932    -0.00011613    -0.00002940     0.00052794
H         0.97758208    -0.05781729    -0.56238904     0.00013887    -0.00019697    -0.00072003
H         0.85798658    -0.10583299     1.91147410     0.00123585    -0.00001844     0.00109851
H        -0.96755172    -0.02025567     1.90858709     0.00039847    -0.00013830    -0.00003593
H        -1.01504494    -0.00294082    -0.59120613     0.00029174    -0.00003430    -0.00035704
     6
  Step:    32            Position(A)                                  Velocity(au)
C        -0.04050324     0.04008288    -0.14674291    -0.00002808     0.00006461    -0.00056269
N        -0.04278064    -0.06896424     1.43738700    -0.00011548    -0.00002584     0.00049056
H         0.97827866    -0.05902867    -0.56643285     0.00012904    -0.00025247    -0.00074505
H         0.86488147    -0.10582487     1.91762589     0.00122296     0.00003352     0.00110418
H        -0.96527427    -0.02117678     1.90839768     0.00040623    -0.00020068    -0.00002692
H        -1.01368467    -0.00302833    -0.59338524     0.00018120     0.00000873    -0.00044414
     6
  Step:    33            Position(A)                                  Velocity(au)
C        -0.04063439     0.04043724    -0.14970006    -0.00002166     0.00006871    -0.00053052
N        -0.04341473    -0.06909789     1.43999372    -0.00012039    -0.00002424     0.00047677
H         0.97901943    -0.06062964    -0.57068833     0.00017378    -0.00034884    -0.00087379
H         0.87160931    -0.10545956     1.92377380     0.00128788     0.00010005     0.00119947
H        -0.96302661    -0.02249110     1.90828727     0.00042658    -0.00028271    -0.00000674
H        -1.01302647    -0.00284359    -0.59615353     0.00004285     0.00004959    -0.00062266
     6
  Step:    34            Position(A)                                  Velocity(au)
C        -0.04072146     0.04081143    -0.15254003    -0.00000939     0.00006569    -0.00049530
N        -0.04407587    -0.06922691     1.44256614    -0.00011523    -0.00002219     0.00045145
H         0.97991834    -0.06239309    -0.57558324     0.00013867    -0.00029394    -0.00087610
H         0.87860326    -0.10507072     1.93036108     0.00120758     0.00005105     0.00115723
H        -0.96065373    -0.02388964     1.90832668     0.00041708    -0.00023259     0.00002324
H        -1.01306718    -0.00273644    -0.59979122    -0.00005020     0.00000105    -0.00067584
     6
  Step:    35            Position(A)                                  Velocity(au)
C        -0.04073891     0.04116872    -0.15521575     0.00000298     0.00006271    -0.00046801
N        -0.04469793    -0.06934495     1.44502109    -0.00010663    -0.00002029     0.00043210
H         0.98056363    -0.06390297    -0.58044466     0.00008956    -0.00025391    -0.00086721
H         0.88505700    -0.10489110     1.93666075     0.00109736     0.00001983     0.00109867
H        -0.95838192    -0.02508120     1.90854607     0.00039096    -0.00020191     0.00005844
H        -1.01358549    -0.00283191    -0.60367974    -0.00013172    -0.00002928    -0.00071771
     6
  Step:    36            Position(A)                                  Velocity(au)
C        -0.04068824     0.04150955    -0.15775037     0.00001494     0.00005982    -0.00044405
N        -0.04526293    -0.06945281     1.44737672    -0.00009507    -0.00001854     0.00041538
H         0.98091543    -0.06521983    -0.58523785     0.00003537    -0.00022247    -0.00085364
H         0.89082013    -0.10484993     1.94259253     0.00096286    -0.00000136     0.00102722
H        -0.95630121    -0.02613746     1.90897726     0.00034975    -0.00018108     0.00009921
H        -1.01453360    -0.00306245    -0.60778151    -0.00020476    -0.00005023    -0.00075369
     6
  Step:    37            Position(A)                                  Velocity(au)
C        -0.04057269     0.04183441    -0.16015748     0.00002620     0.00005702    -0.00042230
N        -0.04575599    -0.06955129     1.44964374    -0.00008113    -0.00001693     0.00040037
H         0.98095730    -0.06637881    -0.58994465    -0.00002080    -0.00019624    -0.00083754
H         0.89577242    -0.10490622     1.94809241     0.00080928    -0.00001654     0.00094563
H        -0.95448966    -0.02709637     1.90965012     0.00029573    -0.00016570     0.00014495
H        -1.01586417    -0.00339090    -0.61206736    -0.00026892    -0.00006575    -0.00078454
     6
  Step:    38            Position(A)                                  Velocity(au)
C        -0.04039679     0.04214381    -0.16244781     0.00003658     0.00005432    -0.00040237
N        -0.04616543    -0.06964109     1.45183021    -0.00006536    -0.00001543     0.00038670
H         0.98068402    -0.06740272    -0.59455430    -0.00007730    -0.00017352    -0.00081995
H         0.89982219    -0.10503388     1.95311133     0.00064150    -0.00002779     0.00085646
H        -0.95301165    -0.02798069     1.91058961     0.00023143    -0.00015374     0.00019465
H        -1.01752494    -0.00379384    -0.61650840    -0.00032332    -0.00007772    -0.00081017
     6
  Step:    39            Position(A)                                  Velocity(au)
C        -0.04016599     0.04243827    -0.16463089     0.00004593     0.00005171    -0.00038410
N        -0.04648260    -0.06972287     1.45394289    -0.00004827    -0.00001404     0.00037417
H         0.98009787    -0.06830793    -0.59906057    -0.00013293    -0.00015340    -0.00080156
H         0.90290440    -0.10521516     1.95761417     0.00046407    -0.00003634     0.00076204
H        -0.95191666    -0.02880563     1.91181422     0.00015960    -0.00014415     0.00024709
H        -1.01945873    -0.00425490    -0.62107449    -0.00036717    -0.00008711    -0.00083032
     6
  Step:    40            Position(A)                                  Velocity(au)
C        -0.03988651     0.04271831    -0.16671556     0.00005411     0.00004919    -0.00036735
N        -0.04670179    -0.06979711     1.45598773    -0.00003040    -0.00001273     0.00036266
H         0.97920704    -0.06910718    -0.60346060    -0.00018670    -0.00013536    -0.00078289
H         0.90497855    -0.10543764     1.96157852     0.00028117    -0.00004298     0.00066455
H        -0.95123832    -0.02958237     1.91333507     0.00008310    -0.00013636     0.00030089
H        -1.02160461    -0.00476174    -0.62573424    -0.00039990    -0.00009451    -0.00084478
     6
  Step:    41            Position(A)                                  Velocity(au)
C        -0.03956512     0.04298445    -0.16871010     0.00006105     0.00004676    -0.00035202
N        -0.04682017    -0.06986422     1.45796999    -0.00001223    -0.00001147     0.00035203
H         0.97802470    -0.06981100    -0.60775417    -0.00023777    -0.00011907    -0.00076436
H         0.90602660    -0.10569248     1.96499362     0.00009665    -0.00004829     0.00056596
H        -0.95099394    -0.03031987     1.91515543     0.00000486    -0.00013007     0.00035462
H        -1.02389938    -0.00530444    -0.63045531    -0.00042121    -0.00010028    -0.00085340
     6
  Step:    42            Position(A)                                  Velocity(au)
C        -0.03920899     0.04323718    -0.17062220     0.00006668     0.00004441    -0.00033801
N        -0.04683756    -0.06992444     1.45989442     0.00000575    -0.00001025     0.00034219
H         0.97656838    -0.07042857    -0.61194316    -0.00028539    -0.00010433    -0.00074630
H         0.90605119    -0.10597349     1.96785929    -0.00008586    -0.00005266     0.00046810
H        -0.95118441    -0.03102582     1.91727048    -0.00007221    -0.00012509     0.00040683
H        -1.02627903    -0.00587466    -0.63520493    -0.00043105    -0.00010466    -0.00085612
     6
  Step:    43            Position(A)                                  Velocity(au)
C        -0.03882554     0.04347699    -0.17245894     0.00007097     0.00004214    -0.00032519
N        -0.04675638    -0.06997790     1.46176523     0.00002311    -0.00000904     0.00033305
H         0.97485944    -0.07096815    -0.61603128    -0.00032890    -0.00009101    -0.00072899
H         0.90507429    -0.10627652     1.97018524    -0.00026298    -0.00005644     0.00037270
H        -0.95179477    -0.03170725     1.91966750    -0.00014532    -0.00012133     0.00045611
H        -1.02868017    -0.00646521    -0.63995041    -0.00042963    -0.00010781    -0.00085296
     6
  Step:    44            Position(A)                                  Velocity(au)
C        -0.03842228     0.04370432    -0.17422679     0.00007391     0.00003995    -0.00031346
N        -0.04658142    -0.07002461     1.46358610     0.00003941    -0.00000781     0.00032450
H         0.97292266    -0.07143742    -0.62002366    -0.00036771    -0.00007903    -0.00071268
H         0.90313615    -0.10659906     1.97199044    -0.00043145    -0.00005989     0.00028141
H        -0.95279517    -0.03237074     1.92232620    -0.00021191    -0.00011874     0.00050115
H        -1.03104126    -0.00706968    -0.64465959    -0.00041735    -0.00010986    -0.00084406
     6