 Fermi distribution function

Calculation with static geometry


********************************************************************************
 iSCC Total electronic   Diff electronic      SCC error    
   13   -0.53053179E+01   -0.28404834E-10    0.50606189E-06
********************************************************************************

 Total charge:     1.00000000

 Atomic gross charges (e)
 Atom           Charge
    1       0.32472661
    2      -0.21515929
    3       0.16783533
    4       0.26208375
    5       0.28541526
    6       0.17509834

Nr. of electrons (up):     12.00000000
Atom populations (up)
 Atom       Population
    1       3.67527339
    2       5.21515929
    3       0.83216467
    4       0.73791625
    5       0.71458474
    6       0.82490166

l-shell populations (up)
 Atom Sh.   l       Population
    1   1   0       1.37145297
    1   2   1       2.30382043
    2   1   0       1.48667235
    2   2   1       3.72848694
    3   1   0       0.83216467
    4   1   0       0.73791625
    5   1   0       0.71458474
    6   1   0       0.82490166

Orbital populations (up)
 Atom Sh.   l   m       Population  Label
    1   1   0   0       1.37145297  s
    1   2   1  -1       0.46217942  p_y
    1   2   1   0       0.87421845  p_z
    1   2   1   1       0.96742255  p_x
    2   1   0   0       1.48667235  s
    2   2   1  -1       1.33681638  p_y
    2   2   1   0       1.07756973  p_z
    2   2   1   1       1.31410083  p_x
    3   1   0   0       0.83216467  s
    4   1   0   0       0.73791625  s
    5   1   0   0       0.71458474  s
    6   1   0   0       0.82490166  s

Fermi level:                        -0.5062411296 H          -13.7755 eV
Band energy:                        -8.7192415201 H         -237.2626 eV
TS:                                  0.0000000000 H            0.0000 eV
Band free energy (E-TS):            -8.7192415201 H         -237.2626 eV
Extrapolated E(0K):                 -8.7192415201 H         -237.2626 eV
Input / Output electrons (q):     12.0000000000     12.0000000000

Energy H0:                          -5.4410992592 H         -148.0598 eV
Energy SCC:                          0.1357813429 H            3.6948 eV
Total Electronic energy:            -5.3053179163 H         -144.3650 eV
Repulsive energy:                    0.1477698961 H            4.0210 eV
Total energy:                       -5.1575480202 H         -140.3440 eV
Extrapolated to 0:                  -5.1575480202 H         -140.3440 eV
Total Mermin free energy:           -5.1575480202 H         -140.3440 eV
Force related energy:               -5.1575480202 H         -140.3440 eV

SCC converged

Excitation Energy:                   0.0911611100 H            2.4806 eV

Total Forces
    1      0.006818708535      0.003320292096      0.072782113341
    2     -0.010417410579      0.015800789094     -0.075622413658
    3     -0.010157175569      0.006983997857      0.002257792480
    4     -0.003935769473     -0.014980050568     -0.000560266073
    5      0.013429182760      0.004785318575     -0.000146841674
    6      0.004262464326     -0.015910347054      0.001289615584

Maximal derivative component:        0.756224E-01 au


