     6
  Step:   300            Position(A)                                  Velocity(au)
C        -0.03907165    -0.00807414     0.01725307     0.00010874     0.00004450    -0.00005963
N        -0.04772881    -0.02174755     1.30155455    -0.00001878    -0.00011985     0.00000976
H         0.90516116    -0.19120058    -0.47213950     0.00000810    -0.00032584    -0.00007160
H         0.83938107    -0.03423242     1.82013870     0.00001049     0.00088203    -0.00011088
H        -0.90005801    -0.30779675     1.78582680    -0.00047825     0.00047727    -0.00031880
H        -0.92857808     0.26186172    -0.53420787    -0.00057519     0.00010181     0.00107630
