     6
  Step:     0            Position(A)                                  Velocity(au)
C        -0.03093239     0.01795070     0.01382083    -0.00001407     0.00011840    -0.00017500
N        -0.05083159    -0.05070052     1.30253359     0.00001712    -0.00013097     0.00009051
H         0.91905776    -0.04918467    -0.55528379     0.00059844    -0.00019528    -0.00048505
H         0.86562348    -0.17608783     1.87723225     0.00013317     0.00031400     0.00042357
H        -0.89313900    -0.02496067     1.82453753    -0.00067099     0.00071282     0.00046140
H        -1.02951400     0.07110567    -0.51959951    -0.00013084    -0.00042242     0.00042770
     6
  Step:     1            Position(A)                                  Velocity(au)
C        -0.03102851     0.01863974     0.01250336    -0.00002051     0.00013347    -0.00030609
N        -0.05066116    -0.05142141     1.30332561     0.00004438    -0.00013277     0.00019901
H         0.92233249    -0.05038938    -0.55788445     0.00059277    -0.00024418    -0.00046327
H         0.86589581    -0.17442186     1.87924940    -0.00003430     0.00029556     0.00031369
H        -0.89740635    -0.02117586     1.82737905    -0.00087706     0.00067221     0.00057059
H        -1.03001651     0.06866656    -0.51716431    -0.00005367    -0.00046902     0.00046087
     6
  Step:     2            Position(A)                                  Velocity(au)
C        -0.03115677     0.01941050     0.01047298    -0.00002578     0.00014817    -0.00043524
N        -0.05034617    -0.05215268     1.30471030     0.00006969    -0.00013478     0.00030689
H         0.92554122    -0.05185538    -0.56035078     0.00057421    -0.00029030    -0.00043639
H         0.86524829    -0.17285511     1.88066327    -0.00020143     0.00027795     0.00020446
H        -0.90273187    -0.01760835     1.83077834    -0.00105555     0.00063360     0.00066433
H        -1.03010099     0.06597575    -0.51455871     0.00002159    -0.00051394     0.00048931
     6
  Step:     3            Position(A)                                  Velocity(au)
C        -0.03131049     0.02026035     0.00774297    -0.00002978     0.00016216    -0.00056096
N        -0.04989895    -0.05289556     1.30668222     0.00009242    -0.00013691     0.00041301
H         0.92861287    -0.05356449    -0.56265748     0.00054256    -0.00033240    -0.00040507
H         0.86369269    -0.17138178     1.88148570    -0.00036424     0.00026141     0.00009875
H        -0.90895140    -0.01424596     1.83464515    -0.00120140     0.00059690     0.00074025
H        -1.02978032     0.06304542    -0.51181255     0.00009374    -0.00055569     0.00051125
     6
  Step:     4            Position(A)                                  Velocity(au)
C        -0.03148265     0.02118479     0.00433516    -0.00003246     0.00017505    -0.00068122
N        -0.04933497    -0.05365070     1.30922928     0.00011198    -0.00013899     0.00051572
H         0.93147774    -0.05549236    -0.56478297     0.00049855    -0.00036942    -0.00037004
H         0.86126294    -0.16999489     1.88174381    -0.00051812     0.00024600    -0.00000048
H        -0.91587715    -0.01107723     1.83887793    -0.00131054     0.00056182     0.00079632
H        -1.02907534     0.05989562    -0.50896475     0.00016086    -0.00059278     0.00052504
     6
  Step:     5            Position(A)                                  Velocity(au)
C        -0.03166597     0.02217731     0.00028284    -0.00003377     0.00018645    -0.00079349
N        -0.04867267    -0.05441771     1.31232998     0.00012781    -0.00014079     0.00061293
H         0.93407254    -0.05761007    -0.56670981     0.00044374    -0.00040064    -0.00033211
H         0.85801870    -0.16868778     1.88148047    -0.00065781     0.00023149    -0.00009015
H        -0.92330339    -0.00809331     1.84336574    -0.00138008     0.00052771     0.00083094
H        -1.02801870     0.05655379    -0.50606280     0.00022044    -0.00062390     0.00052912
     6
  Step:     6            Position(A)                                  Velocity(au)
C        -0.03185300     0.02322957    -0.00436690    -0.00003369     0.00019603    -0.00089496
N        -0.04793328    -0.05519470     1.31595121     0.00013942    -0.00014199     0.00070223
H         0.93634416    -0.05988607    -0.56842518     0.00038034    -0.00042568    -0.00029228
H         0.85404892    -0.16745623     1.88075512    -0.00077749     0.00021727    -0.00016704
H        -0.93101218    -0.00528993     1.84799065    -0.00140837     0.00049366     0.00084318
H        -1.02665779     0.05305339    -0.50316205     0.00026964    -0.00064804     0.00052217
     6
  Step:     7            Position(A)                                  Velocity(au)
C        -0.03203621     0.02433145    -0.00955185    -0.00003223     0.00020347    -0.00098279
N        -0.04714063    -0.05597801     1.32004676     0.00014636    -0.00014226     0.00078110
H         0.93825202    -0.06228784    -0.56992166     0.00031088    -0.00044444    -0.00025167
H         0.84947494    -0.16630016     1.87964491    -0.00087116     0.00020257    -0.00022783
H        -0.93877985    -0.00266850     1.85263139    -0.00139527     0.00045872     0.00083299
H        -1.02505565     0.04943246    -0.50032473     0.00030569    -0.00066449     0.00050318
     6
  Step:     8            Position(A)                                  Velocity(au)
C        -0.03220807     0.02547135    -0.01519494    -0.00002942     0.00020855    -0.00105447
N        -0.04632071    -0.05676212     1.32455705     0.00014837    -0.00014133     0.00084722
H         0.93976930    -0.06478280    -0.57119798     0.00023812    -0.00045702    -0.00021154
H         0.84445082    -0.16522439     1.87824492    -0.00093327     0.00018656    -0.00026950
H        -0.94638481    -0.00023589     1.85716821    -0.00134234     0.00042213     0.00080134
H        -1.02328979     0.04573222    -0.49761820     0.00032630    -0.00067286     0.00047163
     6
  Step:     9            Position(A)                                  Velocity(au)
C        -0.03236132     0.02663641    -0.02120622    -0.00002535     0.00021114    -0.00110821
N        -0.04550086    -0.05753999     1.32941051     0.00014534    -0.00013897     0.00089883
H         0.94088384    -0.06733897    -0.57225964     0.00016493    -0.00046368    -0.00017322
H         0.83916015    -0.16423827     1.87666636    -0.00095951     0.00016860    -0.00028965
H        -0.95361585     0.00199698     1.86148810    -0.00125293     0.00038346     0.00075033
H        -1.02144930     0.04199580    -0.49511217     0.00032994    -0.00067310     0.00042762
     6
  Step:    10            Position(A)                                  Velocity(au)
C        -0.03248924     0.02781317    -0.02748678    -0.00002018     0.00021125    -0.00114326
N        -0.04470868    -0.05830354     1.33452654     0.00013746    -0.00013513     0.00093501
H         0.94159861    -0.06992577    -0.57311928     0.00009410    -0.00046494    -0.00013805
H         0.83380828    -0.16335437     1.87503222    -0.00094757     0.00014834    -0.00028703
H        -0.96028183     0.00401725     1.86549054    -0.00113226     0.00034273     0.00068309
H        -1.01963025     0.03826641    -0.49287523     0.00031610    -0.00066564     0.00037199
     6
  Step:    11            Position(A)                                  Velocity(au)
C        -0.03258602     0.02898828    -0.03393436    -0.00001413     0.00020910    -0.00116020
N        -0.04397051    -0.05904438     1.33982013     0.00012518    -0.00012987     0.00095594
H         0.94193144    -0.07251526    -0.57379657     0.00002821    -0.00046163    -0.00010723
H         0.82861069    -0.16258674     1.87347079    -0.00089757     0.00012577    -0.00026171
H        -0.96622159     0.00581266     1.86909307    -0.00098719     0.00030040     0.00060367
H        -1.01793013     0.03458509    -0.49097068     0.00028540    -0.00065140     0.00030631
     6
  Step:    12            Position(A)                                  Velocity(au)
C        -0.03264716     0.03014954    -0.04045047    -0.00001246     0.00034239    -0.00193844
N        -0.04330993    -0.05975469     1.34520784     0.00018234    -0.00020609     0.00160785
H         0.94191378    -0.07508388    -0.57431744    -0.00005114    -0.00075951    -0.00013648
H         0.82377914    -0.16194905     1.87210798    -0.00135599     0.00016891    -0.00035917
H        -0.97131233     0.00737378     1.87223579    -0.00137822     0.00042944     0.00086251
H        -1.01644130     0.03098787    -0.48945258     0.00039994    -0.00105491     0.00038846
     6
  Step:    13            Position(A)                                  Velocity(au)
C        -0.03269349     0.03202701    -0.05093746    -0.00000218     0.00018393    -0.00101080
N        -0.04234590    -0.06087758     1.35395371     0.00008958    -0.00010903     0.00084746
H         0.94172135    -0.07926836    -0.57533607    -0.00000688    -0.00041264    -0.00012829
H         0.81656040    -0.16106234     1.87032306    -0.00067163     0.00008120    -0.00014735
H        -0.97852762     0.00972510     1.87682412    -0.00066837     0.00022983     0.00043360
H        -1.01465913     0.02516612    -0.48780904     0.00012799    -0.00057504     0.00011026
     6
  Step:    14            Position(A)                                  Velocity(au)
C        -0.03268428     0.03304615    -0.05657958     0.00000538     0.00017684    -0.00098437
N        -0.04190450    -0.06146911     1.35869828     0.00006616    -0.00010038     0.00082998
H         0.94154994    -0.08156693    -0.57600853    -0.00004995    -0.00040147    -0.00011238
H         0.81320719    -0.16068697     1.86974024    -0.00050710     0.00005158    -0.00005350
H        -0.98177125     0.01089153     1.87899527    -0.00048155     0.00018397     0.00033668
H        -1.01413439     0.02199887    -0.48742516     0.00005516    -0.00054648     0.00002545
     6
  Step:    15            Position(A)                                  Velocity(au)
C        -0.03263268     0.03402528    -0.06206065     0.00001278     0.00017078    -0.00095973
N        -0.04159836    -0.06201181     1.36333223     0.00004230    -0.00009231     0.00081336
H         0.94115694    -0.08380492    -0.57660591    -0.00008569    -0.00039357    -0.00010225
H         0.81083032    -0.16047946     1.86971849    -0.00033101     0.00002221     0.00004957
H        -0.98396898     0.01180392     1.88062856    -0.00030173     0.00014074     0.00024557
H        -1.01403584     0.01899103    -0.48752145    -0.00002171    -0.00052164    -0.00005941
     6
  Step:    16            Position(A)                                  Velocity(au)
C        -0.03254025     0.03497019    -0.06739196     0.00001990     0.00016585    -0.00093798
N        -0.04142794    -0.06250912     1.36786165     0.00001845    -0.00008488     0.00079867
H         0.94058454    -0.08600090    -0.57716050    -0.00011435    -0.00038931    -0.00009778
H         0.80947795    -0.16043673     1.87029872    -0.00014767    -0.00000663     0.00015925
H        -0.98517062     0.01247717     1.88176185    -0.00013049     0.00009980     0.00016111
H        -1.01437893     0.01612201    -0.48809451    -0.00010103    -0.00050062    -0.00014414
     6
  Step:    17            Position(A)                                  Velocity(au)
C        -0.03240926     0.03588718    -0.07259085     0.00002658     0.00016190    -0.00091879
N        -0.04139121    -0.06296472     1.37229848    -0.00000500    -0.00007800     0.00078575
H         0.93987323    -0.08817551    -0.57770368    -0.00013601    -0.00038855    -0.00009874
H         0.80917251    -0.16055385     1.87150628     0.00003885    -0.00003460     0.00027276
H        -0.98543398     0.01292434     1.88243726     0.00003116     0.00006065     0.00008374
H        -1.01517001     0.01337087    -0.48913959    -0.00018122    -0.00048274    -0.00022845
     6
  Step:    18            Position(A)                                  Velocity(au)
C        -0.03224279     0.03678174    -0.07767269     0.00003265     0.00015868    -0.00090112
N        -0.04148393    -0.06338194     1.37665376    -0.00002761    -0.00007157     0.00077385
H         0.93906267    -0.09034851    -0.57826538    -0.00015060    -0.00039085    -0.00010486
H         0.80991261    -0.16082386     1.87335075     0.00022387    -0.00006122     0.00038691
H        -0.98482200     0.01315582     1.88269888     0.00018182     0.00002289     0.00001400
H        -1.01640666     0.01072046    -0.49065074    -0.00026045    -0.00046701    -0.00031181
     6
  Step:    19            Position(A)                                  Velocity(au)
C        -0.03204488     0.03765793    -0.08264698     0.00003790     0.00015592    -0.00088381
N        -0.04169934    -0.06376345     1.38093425    -0.00004882    -0.00006550     0.00076206
H         0.93819259    -0.09253726    -0.57887389    -0.00015797    -0.00039575    -0.00011585
H         0.81167077    -0.16123707     1.87582402     0.00040200    -0.00008587     0.00049809
H        -0.98340500     0.01317978     1.88259348     0.00031940    -0.00001371    -0.00004729
H        -1.01807657     0.00815921    -0.49261927    -0.00033664    -0.00045242    -0.00039334
     6
  Step:    20            Position(A)                                  Velocity(au)
C        -0.03182060     0.03851837    -0.08751679     0.00004214     0.00015339    -0.00086588
N        -0.04202772    -0.06411146     1.38514185    -0.00006803    -0.00005972     0.00074967
H         0.93730317    -0.09475651    -0.57955571    -0.00015802    -0.00040283    -0.00013136
H         0.81439024    -0.16178032     1.87889862     0.00056747    -0.00010783     0.00060256
H        -0.98126443     0.01300314     1.88217212     0.00044127    -0.00004919    -0.00009905
H        -1.02015620     0.00568124    -0.49503190    -0.00040752    -0.00043808    -0.00047194
     6
  Step:    21            Position(A)                                  Velocity(au)
C        -0.03157608     0.03936442    -0.09227980     0.00004518     0.00015094    -0.00084667
N        -0.04245613    -0.06442786     1.38927427    -0.00008461    -0.00005424     0.00073615
H         0.93643466    -0.09701869    -0.58033530    -0.00015081    -0.00041175    -0.00015102
H         0.81798379    -0.16243664     1.88252745     0.00071462    -0.00012637     0.00069678
H        -0.97849584     0.01263252     1.88149150     0.00054456    -0.00008349    -0.00014010
H        -1.02261024     0.00328557    -0.49786963    -0.00047094    -0.00042328    -0.00054647
     6
  Step:    22            Position(A)                                  Velocity(au)
C        -0.03131829     0.04019651    -0.09692997     0.00004689     0.00014843    -0.00082579
N        -0.04296842    -0.06471448     1.39332629    -0.00009802    -0.00004905     0.00072119
H         0.93562647    -0.09933437    -0.58123474    -0.00013663    -0.00042229    -0.00017434
H         0.82233534    -0.16318533     1.88664537     0.00083850    -0.00014086     0.00077771
H        -0.97521007     0.01207485     1.88061446     0.00062644    -0.00011649    -0.00016930
H        -1.02539210     0.00097521    -0.50110750    -0.00052494    -0.00040747    -0.00061582
     6
  Step:    23            Position(A)                                  Velocity(au)
C        -0.03105487     0.04101440    -0.10145906     0.00004718     0.00014580    -0.00080309
N        -0.04354567    -0.06497313     1.39729085    -0.00010779    -0.00004419     0.00070466
H         0.93491591    -0.10171278    -0.58227325    -0.00011600    -0.00043426    -0.00020078
H         0.82730439    -0.16400242     1.89117234     0.00093525    -0.00015076     0.00084305
H        -0.97153251     0.01133765     1.87960955     0.00068449    -0.00014805    -0.00018573
H        -1.02844540    -0.00124382    -0.50471501    -0.00056797    -0.00039026    -0.00067910
     6
  Step:    24            Position(A)                                  Velocity(au)
C        -0.03079379     0.04181741    -0.10585793     0.00004603     0.00014300    -0.00077861
N        -0.04416678    -0.06520575     1.40116004    -0.00011364    -0.00003968     0.00068657
H         0.93433690    -0.10416210    -0.58346682    -0.00008968    -0.00044755    -0.00022972
H         0.83273252    -0.16486138     1.89601757     0.00100236    -0.00015572     0.00089133
H        -0.96760056     0.01042901     1.87854971     0.00071693    -0.00017808    -0.00018876
H        -1.03170619    -0.00336328    -0.50865710    -0.00059891    -0.00037135    -0.00073562
     6
  Step:    25            Position(A)                                  Velocity(au)
C        -0.03054300     0.04260467    -0.11011760     0.00004347     0.00014002    -0.00075254
N        -0.04480939    -0.06541435     1.40492581    -0.00011541    -0.00003553     0.00066701
H         0.93391864    -0.10668980    -0.58482785    -0.00005863    -0.00046209    -0.00026051
H         0.83845108    -0.16573407     1.90108432     0.00103879    -0.00015553     0.00092198
H        -0.96355990     0.00935733     1.87751043     0.00072276    -0.00020657    -0.00017819
H        -1.03510560    -0.00537338    -0.51289545    -0.00061720    -0.00035057    -0.00078497
     6
  Step:    26            Position(A)                                  Velocity(au)
C        -0.03031015     0.04337517    -0.11422997     0.00003960     0.00013687    -0.00072514
N        -0.04545069    -0.06560104     1.40858055    -0.00011312    -0.00003177     0.00064616
H         0.93368459    -0.10930287    -0.58636498    -0.00002399    -0.00047784    -0.00029247
H         0.84428917    -0.16659169     1.90627470     0.00104490    -0.00015018     0.00093527
H        -0.95955974     0.00813087     1.87656738     0.00070191    -0.00023362    -0.00015421
H        -1.03857256    -0.00726343    -0.51738996    -0.00062272    -0.00032784    -0.00082703
     6
  Step:    27            Position(A)                                  Velocity(au)
C        -0.03010230     0.04412799    -0.11818839     0.00003453     0.00013356    -0.00069677
N        -0.04606836    -0.06576792     1.41211755    -0.00010694    -0.00002838     0.00062426
H         0.93365160    -0.11200807    -0.58808299     0.00001302    -0.00049480    -0.00032494
H         0.85008073    -0.16740560     1.91149379     0.00102222    -0.00013978     0.00093214
H        -0.95574772     0.00675718     1.87579408     0.00065521    -0.00025941    -0.00011749
H        -1.04203648    -0.00902227    -0.52210026    -0.00061587    -0.00030314    -0.00086195
     6
  Step:    28            Position(A)                                  Velocity(au)
C        -0.02992565     0.04486232    -0.12198798     0.00002845     0.00013015    -0.00066776
N        -0.04664138    -0.06591708     1.41553128    -0.00009719    -0.00002537     0.00060157
H         0.93382950    -0.11481213    -0.58998294     0.00005112    -0.00051303    -0.00035731
H         0.85567085    -0.16814807     1.91665336     0.00097327    -0.00012456     0.00091410
H        -0.95226442     0.00524252     1.87525923     0.00058450    -0.00028427    -0.00006912
H        -1.04542978    -0.01063868    -0.52698719    -0.00059738    -0.00027648    -0.00089012
     6
  Step:    29            Position(A)                                  Velocity(au)
C        -0.02978542     0.04557754    -0.12562572     0.00002154     0.00012666    -0.00063847
N        -0.04715078    -0.06605048     1.41881760    -0.00008428    -0.00002270     0.00057834
H         0.93422094    -0.11772200    -0.59206253     0.00008906    -0.00053259    -0.00038902
H         0.86092066    -0.16879285     1.92167469     0.00090124    -0.00010479     0.00088305
H        -0.94923777     0.00359113     1.87502419     0.00049250    -0.00030862    -0.00001064
H        -1.04868992    -0.01210162    -0.53201412    -0.00056835    -0.00024792    -0.00091212
     6
  Step:    30            Position(A)                                  Velocity(au)
C        -0.02968569     0.04627327    -0.12910028     0.00001400     0.00012314    -0.00060913
N        -0.04758019    -0.06616990     1.42197374    -0.00006872    -0.00002032     0.00055479
H         0.93482165    -0.12074500    -0.59431644     0.00012567    -0.00055360    -0.00041959
H         0.86571037    -0.16931544     1.92649020     0.00080971    -0.00008082     0.00084107
H        -0.94677815     0.00180466     1.87514068     0.00038270    -0.00033298     0.00005609
H        -1.05176096    -0.01340037    -0.53714789    -0.00053003    -0.00021749    -0.00092867
     6
  Step:    31            Position(A)                                  Velocity(au)
C        -0.02962942     0.04694929    -0.13241150     0.00000604     0.00011961    -0.00057991
N        -0.04791628    -0.06627688     1.42499800    -0.00005106    -0.00001820     0.00053109
H         0.93562089    -0.12388911    -0.59673678     0.00015985    -0.00057618    -0.00044862
H         0.86994095    -0.16969318     1.93104434     0.00070242    -0.00005294     0.00079034
H        -0.94497441    -0.00011834     1.87564905     0.00025922    -0.00035797     0.00012893
H        -1.05459455    -0.01452452    -0.54235956    -0.00048383    -0.00018525    -0.00094056
     6
  Step:    32            Position(A)                                  Velocity(au)
C        -0.02961846     0.04760560    -0.13555995    -0.00000217     0.00011611    -0.00055088
N        -0.04814896    -0.06637266     1.42788956    -0.00003190    -0.00001628     0.00050735
H         0.93660222    -0.12716312    -0.59931368     0.00019067    -0.00060053    -0.00047582
H         0.87353469    -0.16990510     1.93529378     0.00058313    -0.00002141     0.00073298
H        -0.94389074    -0.00218278     1.87657685     0.00012658    -0.00038422     0.00020554
H        -1.05715036    -0.01546386    -0.54762481    -0.00043117    -0.00015119    -0.00094864
     6
  Step:    33            Position(A)                                  Velocity(au)
C        -0.02965362     0.04824234    -0.13854647    -0.00001044     0.00011266    -0.00052207
N        -0.04827155    -0.06645816     1.43064817    -0.00001184    -0.00001450     0.00048367
H         0.93774435    -0.13057698    -0.60203585     0.00021737    -0.00062687    -0.00050099
H         0.87643501    -0.16993163     1.93920722     0.00045548     0.00001356     0.00067106
H        -0.94356472    -0.00439726     1.87793802    -0.00001040    -0.00041242     0.00028346
H        -1.05939632    -0.01620825    -0.55292417    -0.00037352    -0.00011528    -0.00095378
     6
  Step:    34            Position(A)                                  Velocity(au)
C        -0.02973472     0.04885983    -0.14137212    -0.00001861     0.00010929    -0.00049341
N        -0.04828073    -0.06653405     1.43327425     0.00000855    -0.00001281     0.00046010
H         0.93902218    -0.13414213    -0.60489123     0.00023936    -0.00065554    -0.00052406
H         0.87860551    -0.16975408     1.94276475     0.00032294     0.00005191     0.00060654
H        -0.94400657    -0.00677423     1.87973260    -0.00014692    -0.00044325     0.00036025
H        -1.06130877    -0.01674731    -0.55824322    -0.00031238    -0.00007745    -0.00095688
     6
  Step:    35            Position(A)                                  Velocity(au)
C        -0.02986072     0.04945859    -0.14403747    -0.00002653     0.00010603    -0.00046472
N        -0.04817644    -0.06660071     1.43576843     0.00002868    -0.00001117     0.00043658
H         0.94040804    -0.13787218    -0.60786789     0.00025631    -0.00068699    -0.00054515
H         0.88002893    -0.16935390     1.94595719     0.00018882     0.00009373     0.00054125
H        -0.94519972    -0.00932999     1.88194705    -0.00027832    -0.00047741     0.00043354
H        -1.06287264    -0.01707016    -0.56357290    -0.00024931    -0.00003755    -0.00095895
     6
  Step:    36            Position(A)                                  Velocity(au)
C        -0.03002979     0.05003926    -0.14654146    -0.00003406     0.00010290    -0.00043548
N        -0.04796166    -0.06665831     1.43813064     0.00004806    -0.00000954     0.00041284
H         0.94187325    -0.14178397    -0.61095526     0.00026824    -0.00072198    -0.00056470
H         0.88070588    -0.16871146     1.94878547     0.00005619     0.00013938     0.00047695
H        -0.94710251    -0.01208477     1.88455512    -0.00040035    -0.00051562     0.00050117
H        -1.06408206    -0.01716499    -0.56891029    -0.00018613     0.00000464    -0.00096124
     6
  Step:    37            Position(A)                                  Velocity(au)
C        -0.03023939     0.05060273    -0.14887934    -0.00004108     0.00009997    -0.00040463
N        -0.04764206    -0.06670684     1.44035863     0.00006622    -0.00000790     0.00038818
H         0.94339046    -0.14589956    -0.61414652     0.00027577    -0.00076180    -0.00058385
H         0.88065372    -0.16780425     1.95126015    -0.00007198     0.00018967     0.00041536
H        -0.94965104    -0.01506293     1.88751934    -0.00050935    -0.00055863     0.00056132
H        -1.06494210    -0.01701857    -0.57426041    -0.00012519     0.00004939    -0.00096556
     6
  Step:    38            Position(A)                                  Velocity(au)
C        -0.03048629     0.05115021    -0.15103822    -0.00004743     0.00009731    -0.00036976
N        -0.04722573    -0.06674615     1.44244463     0.00008275    -0.00000624     0.00036094
H         0.94493799    -0.15025006    -0.61744373     0.00028089    -0.00080870    -0.00060546
H         0.87990596    -0.16660364     1.95340153    -0.00019275     0.00024611     0.00035835
H        -0.95276305    -0.01829303     1.89079321    -0.00060241    -0.00060700     0.00061268
H        -1.06547335    -0.01661610    -0.57964084    -0.00007055     0.00009671    -0.00097531
     6
  Step:    39            Position(A)                                  Velocity(au)
C        -0.03076624     0.05168371    -0.15298668    -0.00005275     0.00009522    -0.00032465
N        -0.04672282    -0.06677616     1.44436807     0.00009719    -0.00000458     0.00032682
H         0.94651068    -0.15488276    -0.62087208     0.00028956    -0.00086573    -0.00063796
H         0.87851265    -0.16507035     1.95524074    -0.00030268     0.00030981     0.00030803
H        -0.95634272    -0.02180568     1.89432514    -0.00067729    -0.00065852     0.00065531
H        -1.06572575    -0.01594430    -0.58509434    -0.00003161     0.00014346    -0.00099831
     6
  Step:    40            Position(A)                                  Velocity(au)
C        -0.03107199     0.05220747    -0.15464299    -0.00005884     0.00009916    -0.00027188
N        -0.04614658    -0.06679702     1.44607339     0.00011402    -0.00000306     0.00029280
H         0.94815307    -0.15986261    -0.62452724     0.00033001    -0.00097212    -0.00073621
H         0.87654518    -0.16316369     1.95682171    -0.00041820     0.00038541     0.00027911
H        -0.96028332    -0.02560485     1.89806937    -0.00076828    -0.00072898     0.00072929
H        -1.06582428    -0.01502325    -0.59072543    -0.00002690     0.00017666    -0.00110120
     6
  Step:    41            Position(A)                                  Velocity(au)
C        -0.03140230     0.05274769    -0.15610439    -0.00006104     0.00009543    -0.00025889
N        -0.04549692    -0.06680597     1.44765699     0.00012010    -0.00000025     0.00028084
H         0.94990608    -0.16509185    -0.62861658     0.00029254    -0.00093505    -0.00072589
H         0.87396879    -0.16118046     1.95820502    -0.00050522     0.00035554     0.00022572
H        -0.96459939    -0.02952231     1.90220186    -0.00078033    -0.00071203     0.00074964
H        -1.06577673    -0.01417272    -0.59674394     0.00005149     0.00015784    -0.00106710
     6
  Step:    42            Position(A)                                  Velocity(au)
C        -0.03174928     0.05326627    -0.15751557    -0.00006397     0.00009167    -0.00024809
N        -0.04481404    -0.06679974     1.44918946     0.00012515     0.00000248     0.00027045
H         0.95139895    -0.17023758    -0.63258141     0.00024355    -0.00093028    -0.00070274
H         0.87093940    -0.15921872     1.95932621    -0.00057926     0.00036196     0.00018406
H        -0.96894157    -0.03350527     1.90638709    -0.00077575    -0.00073405     0.00075233
H        -1.06525297    -0.01327192    -0.60256561     0.00013457     0.00017557    -0.00103567
     6
  Step:    43            Position(A)                                  Velocity(au)
C        -0.03211184     0.05376453    -0.15885623    -0.00006650     0.00008811    -0.00023429
N        -0.04410873    -0.06677850     1.45065687     0.00012798     0.00000521     0.00025798
H         0.95260753    -0.17541059    -0.63641148     0.00019020    -0.00093921    -0.00067790
H         0.86754354    -0.15716554     1.96024660    -0.00063694     0.00038192     0.00015290
H        -0.97320407    -0.03766446     1.91054676    -0.00075151    -0.00076969     0.00074184
H        -1.06428402    -0.01222531    -0.60823175     0.00021220     0.00020457    -0.00100993
     6
  Step:    44            Position(A)                                  Velocity(au)
C        -0.03248663     0.05424332    -0.16011355    -0.00006838     0.00008468    -0.00021867
N        -0.04339493    -0.06674192     1.45205008     0.00012825     0.00000803     0.00024416
H         0.95350804    -0.18065219    -0.64009841     0.00013254    -0.00095354    -0.00065125
H         0.86387655    -0.15498367     1.96102169    -0.00067702     0.00040645     0.00013168
H        -0.97727487    -0.04204020     1.91461315    -0.00070756    -0.00081072     0.00071969
H        -1.06289992    -0.01100351    -0.61376449     0.00028468     0.00023722    -0.00098735
     6