    14
  Step:   600            Position(A)                                  Velocity(au)
C        -5.89952202    -0.43010258     0.32549361     0.00042904    -0.00007435    -0.00011980
C        -4.74857242    -0.96284911    -0.12791109    -0.00011255     0.00019124     0.00013412
H        -5.97824795     0.64685876     0.13479630    -0.00001506     0.00038132    -0.00240421
H        -6.72115999    -0.75740671     1.02686898    -0.00004197     0.00258184     0.00177959
H        -4.38278529    -1.96266372     0.09469694     0.00249499     0.00092177     0.00143226
C        -3.74674719     0.03154520    -0.48185168     0.00022623    -0.00021431    -0.00085207
C        -2.48987147     0.54899758    -0.02091163    -0.00084110    -0.00033456     0.00021482
H        -3.99945388     0.96874321    -1.18440317    -0.00370245     0.00031089    -0.00028394
H        -2.21813667    -0.17201584     0.72943149    -0.00000385     0.00000943     0.00008860
C        -1.86364031     1.76776928    -0.19097691     0.00013689    -0.00007011     0.00076823
H        -2.19534843     2.70607687    -0.80432654    -0.00173208    -0.00119920     0.00246832
N        -0.74975841     1.85217775     0.62839186     0.00044979     0.00008992    -0.00017389
H        -0.04425684     2.62858733     0.63764696    -0.00130695     0.00063224    -0.00159128
H        -0.60832349     1.46012394     1.55929507    -0.00001875     0.00109510    -0.00080414
