    14
  Step:     0            Position(A)                                  Velocity(au)
C        -5.96507434    -0.95696273    -0.12039671     0.00030346     0.00015585    -0.00012045
C        -4.62113060    -0.63702685     0.14590340    -0.00015697    -0.00020562     0.00002427
H        -6.65316156    -0.15249304    -0.50384037    -0.00078817    -0.00000169     0.00084618
H        -6.37590793    -2.03068622     0.06211970     0.00092650     0.00002381     0.00063265
H        -3.99790899    -1.46470600     0.55254500    -0.00039847     0.00057481     0.00020736
C        -3.99695357     0.62325899    -0.09368961    -0.00000151     0.00010132    -0.00008907
C        -2.68186716     0.61024227     0.23070359    -0.00016416     0.00004060    -0.00000059
H        -4.57315635     1.54892152    -0.47452144     0.00008164    -0.00003093     0.00110987
H        -2.20414002    -0.25216123     0.71878624     0.00040299     0.00041522    -0.00050746
C        -1.77832744     1.72562344    -0.01695697    -0.00042332    -0.00011079    -0.00027461
H        -2.14339985     2.61826594    -0.45355693    -0.00021538    -0.00038707    -0.00004359
N        -0.50914681     1.63971628     0.18165422     0.00029129    -0.00005045     0.00029598
H         0.11451243     2.49684301     0.13369026     0.00034179    -0.00031147    -0.00022648
H        -0.14323939     0.82379712     0.71967717     0.00087413     0.00064052    -0.00064477
    14
  Step:     1            Position(A)                                  Velocity(au)
C        -5.96179420    -0.95530386    -0.12170694     0.00029394     0.00014668    -0.00011874
C        -4.62304348    -0.63942363     0.14615250    -0.00019109    -0.00022875     0.00002051
H        -6.66119174    -0.15367568    -0.49415947    -0.00067260    -0.00021538     0.00092184
H        -6.36500191    -2.02807782     0.06863214     0.00106060     0.00044788     0.00055463
H        -4.00244808    -1.45763443     0.55453553    -0.00041873     0.00069746     0.00016415
C        -3.99742624     0.62440442    -0.09474473    -0.00008394     0.00010590    -0.00010237
C        -2.68306907     0.61092272     0.23076292    -0.00005733     0.00008340     0.00001077
H        -4.57106532     1.54671173    -0.46176892     0.00029053    -0.00035777     0.00121049
H        -2.20023438    -0.24758129     0.71296122     0.00031217     0.00041056    -0.00055146
C        -1.78354291     1.72427733    -0.02001215    -0.00052114    -0.00013558    -0.00028234
H        -2.14633206     2.61515086    -0.45457904    -0.00032357    -0.00017108    -0.00014877
N        -0.50535928     1.63917128     0.18504279     0.00039337    -0.00004689     0.00032069
H         0.11695435     2.49153546     0.13132265     0.00011141    -0.00064386    -0.00020719
H        -0.13390487     0.83200187     0.71178330     0.00084168     0.00082164    -0.00077370
    14
  Step:     2            Position(A)                                  Velocity(au)
C        -5.95864393    -0.95375382    -0.12299432     0.00028019     0.00013633    -0.00011626
C        -4.62531098    -0.64203116     0.14635212    -0.00022164    -0.00024357     0.00001506
H        -6.66787589    -0.15720495    -0.48367339    -0.00054645    -0.00042506     0.00099073
H        -6.35270527    -2.02088796     0.07425326     0.00117678     0.00085025     0.00047182
H        -4.00706955    -1.44944772     0.55613616    -0.00041137     0.00077511     0.00013782
C        -3.99878997     0.62557568    -0.09592919    -0.00016335     0.00010499    -0.00011224
C        -2.68312140     0.61206670     0.23093920     0.00004498     0.00012524     0.00002060
H        -4.56680050     1.54109451    -0.44803970     0.00047160    -0.00064288     0.00128472
H        -2.19731078    -0.24317946     0.70672208     0.00022575     0.00038172    -0.00058201
C        -1.78972836     1.72265740    -0.02313359    -0.00059946    -0.00015995    -0.00028694
H        -2.15047862     2.61452331    -0.45681163    -0.00043305     0.00005652    -0.00025940
N        -0.50054118     1.63869055     0.18866987     0.00047726    -0.00003894     0.00033899
H         0.11694978     2.48275725     0.12915761    -0.00009298    -0.00092947    -0.00019091
H        -0.12482594     0.84177197     0.70275106     0.00083349     0.00091548    -0.00084639
    14
  Step:     3            Position(A)                                  Velocity(au)
C        -5.95566443    -0.95232132    -0.12425035     0.00026327     0.00012565    -0.00011303
C        -4.62789220    -0.64475228     0.14648198    -0.00024827    -0.00024916     0.00000765
H        -6.67314637    -0.16297468    -0.47248532    -0.00041875    -0.00061943     0.00104768
H        -6.33925768    -2.00947692     0.07895400     0.00126698     0.00120778     0.00038883
H        -4.01144748    -1.44067745     0.55755070    -0.00037310     0.00080222     0.00013110
C        -4.00099984     0.62670129    -0.09720021    -0.00023765     0.00009650    -0.00011777
C        -2.68208506     0.61366260     0.23121355     0.00014094     0.00016591     0.00002858
H        -4.56074808     1.53264749    -0.43366311     0.00060943    -0.00086325     0.00132525
H        -2.19529558    -0.23923048     0.70022874     0.00014797     0.00032764    -0.00059720
C        -1.79665733     1.72077805    -0.02628954    -0.00065666    -0.00018209    -0.00028896
H        -2.15580587     2.61638732    -0.46025401    -0.00053502     0.00027292    -0.00036438
N        -0.49491820     1.63831929     0.19245896     0.00053883    -0.00002744     0.00035002
H         0.11492023     2.47120148     0.12714604    -0.00024665    -0.00113553    -0.00018084
H        -0.11567067     0.85202983     0.69326695     0.00086005     0.00090363    -0.00085263
    14
  Step:     4            Position(A)                                  Velocity(au)
C        -5.95288442    -0.95100502    -0.12546699     0.00024433     0.00011565    -0.00010912
C        -4.63074245    -0.64748201     0.14651948    -0.00027058    -0.00024500    -0.00000186
H        -6.67703694    -0.17075606    -0.46075332    -0.00029893    -0.00078748     0.00108789
H        -6.32498765    -1.99446544     0.08275969     0.00132301     0.00149591     0.00031107
H        -4.01523179    -1.43189764     0.55900412    -0.00030322     0.00077709     0.00014479
C        -4.00398907     0.62768675    -0.09850574    -0.00030517     0.00007832    -0.00011824
C        -2.68003811     0.61569635     0.23156448     0.00022946     0.00020524     0.00003460
H        -4.55346798     1.52220932    -0.41904741     0.00068828    -0.00099498     0.00132537
H        -2.19407369    -0.23601181     0.69365709     0.00008198     0.00024906    -0.00059609
C        -1.80409406     1.71867378    -0.02945515    -0.00069262    -0.00020036    -0.00028905
H        -2.16218327     2.62049406    -0.46478324    -0.00062131     0.00045646    -0.00045334
N        -0.48875335     1.63809033     0.19632727     0.00057556    -0.00001388     0.00035361
H         0.11155378     2.45791533     0.12520131    -0.00032682    -0.00123165    -0.00018051
H        -0.10601066     0.86154056     0.68409808     0.00092709     0.00077836    -0.00078944
    14
  Step:     5            Position(A)                                  Velocity(au)
C        -5.95031918    -0.94979124    -0.12663763     0.00022463     0.00010757    -0.00010473
C        -4.63381161    -0.65011207     0.14644137    -0.00028791    -0.00023097    -0.00001344
H        -6.67968597    -0.18020241    -0.44868563    -0.00019646    -0.00091891     0.00110699
H        -6.31031422    -1.97675107     0.08575918     0.00133666     0.00168885     0.00024476
H        -4.01808100    -1.42367715     0.56071822    -0.00020429     0.00070267     0.00017716
C        -4.00767602     0.62841472    -0.09978700    -0.00036506     0.00004844    -0.00011319
C        -2.67706510     0.61815252     0.23197041     0.00031055     0.00024315     0.00003875
H        -4.54569056     1.51088036    -0.40466807     0.00069381    -0.00101573     0.00128005
H        -2.19350204    -0.23378177     0.68718819     0.00002962     0.00014889    -0.00057870
C        -1.81180978     1.71639478    -0.03261316    -0.00070867    -0.00021366    -0.00028789
H        -2.16939825     2.62637328    -0.47017177    -0.00068556     0.00058972    -0.00051815
N        -0.48232679     1.63801573     0.20019484     0.00058700    -0.00000048     0.00035049
H         0.10777051     2.44425673     0.12319709    -0.00031585    -0.00119429    -0.00019338
H        -0.09538883     0.86905800     0.67599644     0.00103302     0.00054730    -0.00066360
    14
  Step:     6            Position(A)                                  Velocity(au)
C        -5.94797011    -0.94865179    -0.12775812     0.00020538     0.00010273    -0.00010011
C        -4.63704109    -0.65253489     0.14622553    -0.00029932    -0.00020730    -0.00002688
H        -6.68133486    -0.19085908    -0.43653582    -0.00012048    -0.00100455     0.00110116
H        -6.29574561    -1.95751869     0.08811429     0.00130033     0.00176127     0.00019676
H        -4.01970092    -1.41652531     0.56287981    -0.00008258     0.00058696     0.00022345
C        -4.01197537     0.62874657    -0.10098208    -0.00041762     0.00000525    -0.00010258
C        -2.67324422     0.62101574     0.23241229     0.00038532     0.00027971     0.00004140
H        -4.53828946     1.49998818    -0.39104388     0.00061612    -0.00090947     0.00118737
H        -2.19342571    -0.23275466     0.68099683    -0.00000880     0.00003225    -0.00054615
C        -1.81959760     1.71399962    -0.03575328    -0.00070735    -0.00022161    -0.00028605
H        -2.17718126     2.63339530    -0.47611870    -0.00072397     0.00066164    -0.00055387
N        -0.47591161     1.63807974     0.20399492     0.00057505     0.00001015     0.00034230
H         0.10464406     2.43178786     0.12097072    -0.00020605    -0.00101350    -0.00022208
H        -0.08341133     0.87351381     0.66958046     0.00116745     0.00023563    -0.00049254
    14
  Step:     7            Position(A)                                  Velocity(au)
C        -5.94582615    -0.94754390    -0.12882771     0.00018747     0.00010226    -0.00009560
C        -4.64035975    -0.65464718     0.14585331    -0.00030352    -0.00017462    -0.00004174
H        -6.68232178    -0.20217891    -0.42459556    -0.00007899    -0.00103716     0.00106754
H        -6.28186691    -1.93821987     0.09006375     0.00120852     0.00169244     0.00017362
H        -4.01988751    -1.41083626     0.56560656     0.00005207     0.00044249     0.00027610
C        -4.01681222     0.62852956    -0.10203103    -0.00046416    -0.00005178    -0.00008681
C        -2.66863541     0.62427182     0.23287612     0.00045543     0.00031491     0.00004302
H        -4.53221180     1.49098401    -0.37869203     0.00045396    -0.00067347     0.00105037
H        -2.19369458    -0.23307618     0.67524009    -0.00003434    -0.00009364    -0.00050065
C        -1.82728444     1.71154654    -0.03887094    -0.00069204    -0.00022447    -0.00028399
H        -2.18523642     2.64084796    -0.48228877    -0.00073539     0.00066816    -0.00055905
N        -0.46974653     1.63823770     0.20768320     0.00054404     0.00001575     0.00033129
H         0.10326282     2.42208457     0.11833860    -0.00000469    -0.00070007    -0.00026727
H        -0.06984854     0.87421288     0.66522124     0.00131189    -0.00011625    -0.00030206
    14
  Step:     8            Position(A)                                  Velocity(au)
C        -5.94386875    -0.94641466    -0.12984946     0.00017127     0.00010663    -0.00009151
C        -4.64368115    -0.65635493     0.14531249    -0.00029923    -0.00013421    -0.00005723
H        -6.68306284    -0.21354885    -0.41318142    -0.00007767    -0.00101243     0.00100479
H        -6.26930702    -1.92049335     0.09191259     0.00105980     0.00147244     0.00017986
H        -4.01856178    -1.40684501     0.56892004     0.00018731     0.00028480     0.00032594
C        -4.02212966     0.62761384    -0.10288129    -0.00050589    -0.00012102    -0.00006677
C        -2.66328091     0.62790506     0.23335351     0.00052137     0.00034806     0.00004405
H        -4.52835823     1.48525470    -0.36806511     0.00021855    -0.00032506     0.00087806
H        -2.19417687    -0.23480314     0.67004423    -0.00004899    -0.00022011    -0.00044563
C        -1.83473729     1.70908898    -0.04196612    -0.00066596    -0.00022237    -0.00028212
H        -2.19326941     2.64801251    -0.48834894    -0.00072098     0.00061142    -0.00053509
N        -0.46400963     1.63842438     0.21124257     0.00050022     0.00001522     0.00031987
H         0.10454152     2.41647257     0.11512369     0.00026348    -0.00028939    -0.00032668
H        -0.05471122     0.87097068     0.66297222     0.00144311    -0.00046011    -0.00012131
    14
  Step:     9            Position(A)                                  Velocity(au)
C        -5.94207918    -0.94521125    -0.13082958     0.00015646     0.00011512    -0.00008801
C        -4.64690595    -0.65758322     0.14460127    -0.00028568    -0.00008835    -0.00007229
H        -6.68402103    -0.22432775    -0.40261391    -0.00011890    -0.00092989     0.00091387
H        -6.25868182    -1.90600748     0.09399845     0.00085899     0.00110919     0.00021576
H        -4.01578980    -1.40460567     0.57273705     0.00030996     0.00013017     0.00036396
C        -4.02787960     0.62588195    -0.10349171    -0.00054287    -0.00019805    -0.00004360
C        -2.65722934     0.63188628     0.23383970     0.00058110     0.00037718     0.00004471
H        -4.52743064     1.48387278    -0.35948284    -0.00006570     0.00009600     0.00068497
H        -2.19476635    -0.23789147     0.66549103    -0.00005522    -0.00033786    -0.00038564
C        -1.84185358     1.70668169    -0.04504282    -0.00063089    -0.00021468    -0.00028077
H        -2.20100922     2.65422404    -0.49399483    -0.00068361     0.00049848    -0.00048545
N        -0.45880317     1.63857074     0.21468091     0.00045048     0.00000912     0.00030989
H         0.10902689     2.41575355     0.11119176     0.00055848     0.00016175    -0.00039468
H        -0.03827786     0.86414702     0.66256726     0.00153803    -0.00074986     0.00002357
    14
  Step:    10            Position(A)                                  Velocity(au)
C        -5.94044599    -0.94389628    -0.13177482     0.00014196     0.00012558    -0.00008495
C        -4.64993099    -0.65828774     0.14373108    -0.00026288    -0.00004001    -0.00008574
H        -6.68566406    -0.23389202    -0.39318881    -0.00020052    -0.00079390     0.00079808
H        -6.25051499    -1.89622770     0.09663285     0.00061831     0.00063344     0.00027579
H        -4.01178089    -1.40399721     0.57688235     0.00040799    -0.00000676     0.00038266
C        -4.03400590     0.62328115    -0.10383519    -0.00057430    -0.00027620    -0.00001869
C        -2.65056833     0.63615665     0.23433153     0.00063064     0.00039932     0.00004517
H        -4.52979555     1.48735489    -0.35308006    -0.00036495     0.00053269     0.00048894
H        -2.19538501    -0.24219455     0.66160759    -0.00005558    -0.00043776    -0.00032553
C        -1.84853916     1.70439241    -0.04810860    -0.00058688    -0.00020008    -0.00028022
H        -2.20822478     2.65891772    -0.49896900    -0.00062741     0.00033993    -0.00041501
N        -0.45415448     1.63862379     0.21802204     0.00040107    -0.00000045     0.00030231
H         0.11675927     2.42001116     0.10648926     0.00083311     0.00058651    -0.00046274
H        -0.02106385     0.85456609     0.66348794     0.00157854    -0.00095059     0.00011445
    14
  Step:    11            Position(A)                                  Velocity(au)
C        -5.93897343    -0.94246396    -0.13268811     0.00012599     0.00013462    -0.00008183
C        -4.65265690    -0.65845848     0.14272553    -0.00023139     0.00000791    -0.00009664
H        -6.68840778    -0.24169581    -0.38515442    -0.00031492    -0.00061431     0.00066265
H        -6.24515504    -1.89214986     0.10003184     0.00035659     0.00009752     0.00034860
H        -4.00686424    -1.40475348     0.58110842     0.00047239    -0.00011487     0.00037662
C        -4.04044357     0.61983964    -0.10390050    -0.00059984    -0.00034830     0.00000655
C        -2.64343284     0.64062220     0.23482795     0.00066636     0.00041155     0.00004572
H        -4.53541454     1.49552644    -0.34878625    -0.00064353     0.00092317     0.00030760
H        -2.19598223    -0.24746837     0.65836949    -0.00005236    -0.00051164    -0.00026949
C        -1.85469279     1.70230449    -0.05117323    -0.00053332    -0.00017746    -0.00028061
H        -2.21473512     2.66166062    -0.50307403    -0.00055710     0.00014862    -0.00032964
N        -0.45002908     1.63856101     0.22129444     0.00035681    -0.00001051     0.00029714
H         0.12725281     2.42858453     0.10106847     0.00104430     0.00092388    -0.00052121
H        -0.00374438     0.84335095     0.66507097     0.00155456    -0.00104394     0.00014332
    14
  Step:    12            Position(A)                                  Velocity(au)
C        -5.93768966    -0.94095120    -0.13356507     0.00010615     0.00013831    -0.00007792
C        -4.65499310    -0.65811469     0.14161687    -0.00019221     0.00005303    -0.00010438
H        -6.69255348    -0.24733126    -0.37869209    -0.00044916    -0.00040593     0.00051431
H        -6.24271395    -1.89409422     0.10425908     0.00009609    -0.00043383     0.00041915
H        -4.00144651    -1.40651014     0.58512158     0.00049830    -0.00018758     0.00034299
C        -4.04712851     0.61566146    -0.10369196    -0.00061970    -0.00040828     0.00003084
C        -2.63599041     0.64516017     0.23533178     0.00068603     0.00041171     0.00004673
H        -4.54387410     1.50755092    -0.34635070    -0.00087228     0.00121507     0.00015461
H        -2.19653048    -0.25338768     0.65571207    -0.00004732    -0.00055326    -0.00022054
C        -1.86020649     1.70051021    -0.05424744    -0.00046979    -0.00014639    -0.00028194
H        -2.22041243     2.66216912    -0.50618062    -0.00047755    -0.00006127    -0.00023582
N        -0.44634851     1.63839395     0.22452264     0.00032078    -0.00001825     0.00029382
H         0.13960523     2.44022272     0.09508669     0.00116260     0.00113199    -0.00056174
H         0.01294522     0.83172799     0.66662336     0.00146478    -0.00102812     0.00011168
    14
  Step:    13            Position(A)                                  Velocity(au)
C        -5.93665111    -0.93943810    -0.13439283     0.00007996     0.00013325    -0.00007254
C        -4.65686183    -0.65729824     0.14044198    -0.00014669     0.00009356    -0.00010869
H        -6.69823412    -0.25057625    -0.37390297    -0.00058640    -0.00018684     0.00036058
H        -6.24305288    -1.90164069     0.10920164    -0.00014207    -0.00089789     0.00047225
H        -3.99596300    -1.40885719     0.58861190     0.00048509    -0.00022284     0.00028158
C        -4.05400064     0.61090765    -0.10322587    -0.00063408    -0.00045205     0.00005333
C        -2.62842459     0.64962918     0.23585022     0.00068875     0.00039855     0.00004856
H        -4.55449744     1.52210832    -0.34540396    -0.00103387     0.00137584     0.00003745
H        -2.19701735    -0.25957190     0.65354466    -0.00004140    -0.00055898    -0.00018042
C        -1.86497032     1.69910193    -0.05734117    -0.00039631    -0.00010723    -0.00028406
H        -2.22518252     2.66032029    -0.50823309    -0.00039365    -0.00027475    -0.00014039
N        -0.44301150     1.63816172     0.22772242     0.00029410    -0.00002168     0.00029148
H         0.15268695     2.45334888     0.08877926     0.00117639     0.00119376    -0.00057904
H         0.02830048     0.82085891     0.66751420     0.00131514    -0.00091448     0.00002791
    14
  Step:    14            Position(A)                                  Velocity(au)
C        -5.93594044    -0.93803616    -0.13515192     0.00004539     0.00011744    -0.00006524
C        -4.65820215    -0.65606800     0.13923904    -0.00009655     0.00012810    -0.00010958
H        -6.70538217    -0.25141881    -0.37080368    -0.00070833     0.00002404     0.00020899
H        -6.24582207    -1.91373727     0.11459043    -0.00034207    -0.00124736     0.00049607
H        -3.99083415    -1.41138510     0.59128163     0.00043575    -0.00022240     0.00019460
C        -4.06100015     0.60577206    -0.10252530    -0.00064277    -0.00047759     0.00007360
C        -2.62092263     0.65387924     0.23639403     0.00067461     0.00037176     0.00005145
H        -4.56649197     1.53765013    -0.34553133    -0.00112353     0.00139535    -0.00004250
H        -2.19743628    -0.26561635     0.65176515    -0.00003476    -0.00052810    -0.00014952
C        -1.86887645     1.69816442    -0.06046190    -0.00031321    -0.00006100    -0.00028666
H        -2.22902428     2.65615849    -0.50925192    -0.00031022    -0.00047638    -0.00005035
N        -0.43991462     1.63791974     0.23089932     0.00027625    -0.00001977     0.00028920
H         0.16534108     2.46633840     0.08241905     0.00109018     0.00111456    -0.00057145
H         0.04171645     0.81172194     0.66723394     0.00111655    -0.00072268    -0.00009567
    14
  Step:    15            Position(A)                                  Velocity(au)
C        -5.93565813    -0.93686892    -0.13582000     0.00000136     0.00009068    -0.00005595
C        -4.65897405    -0.65449581     0.13804463    -0.00004385     0.00015565    -0.00010731
H        -6.71373026    -0.25005034    -0.36933098    -0.00079820     0.00020974     0.00006617
H        -6.25053626    -1.92892914     0.12005407    -0.00049538    -0.00145747     0.00048434
H        -3.98643005    -1.41372271     0.59286922     0.00035601    -0.00019101     0.00008615
C        -4.06806249     0.60045938    -0.10161566    -0.00064524    -0.00048467     0.00009158
C        -2.61366612     0.65776205     0.23697575     0.00064450     0.00033194     0.00005547
H        -4.57907687     1.55263433    -0.34633365    -0.00114616     0.00128167    -0.00008838
H        -2.19777770    -0.27112516     0.65027353    -0.00002679    -0.00046284    -0.00012714
C        -1.87182242     1.69776744    -0.06361251    -0.00022112    -0.00000939    -0.00028922
H        -2.23196910     2.64989851    -0.50933460    -0.00023201    -0.00065064     0.00002730
N        -0.43696794     1.63772911     0.23404926     0.00026556    -0.00001234     0.00028616
H         0.17653673     2.47773194     0.07627763     0.00091958     0.00091521    -0.00054043
H         0.05272719     0.80504882     0.66542130     0.00088270    -0.00047660    -0.00024515
    14
  Step:    16            Position(A)                                  Velocity(au)
C        -5.93591059    -0.93605227    -0.13637589    -0.00005210     0.00005432    -0.00004490
C        -4.65916150    -0.65266296     0.13689144     0.00000914     0.00017546    -0.00010230
H        -6.72284428    -0.24683040    -0.36935605    -0.00084334     0.00035734    -0.00006275
H        -6.25665937    -1.94562228     0.12518619    -0.00060047    -0.00152523     0.00043643
H        -3.98304565    -1.41556381     0.59316632     0.00025336    -0.00013531    -0.00003849
C        -4.07511600     0.59516902    -0.10052175    -0.00064085    -0.00047420     0.00010739
C        -2.60682298     0.66114095     0.23760763     0.00059996     0.00028059     0.00006050
H        -4.59156640     1.56568908    -0.34746477    -0.00111217     0.00105421    -0.00010576
H        -2.19802226    -0.27574183     0.64898375    -0.00001639    -0.00036796    -0.00011156
C        -1.87371388     1.69795894    -0.06678920    -0.00012091     0.00004532    -0.00029104
H        -2.23409994     2.64192457    -0.50865465    -0.00016367    -0.00078235     0.00008578
N        -0.43410506     1.63764984     0.23715969     0.00025964     0.00000039     0.00028165
H         0.18545862     2.48636046     0.07059616     0.00068604     0.00062473    -0.00048959
H         0.06102716     0.80129547     0.66187086     0.00062861    -0.00020177    -0.00040647
    14
  Step:    17            Position(A)                                  Velocity(au)
C        -5.93679782    -0.93568065    -0.13680228    -0.00011393     0.00001057    -0.00003249
C        -4.65877404    -0.65065720     0.13580659     0.00006009     0.00018710    -0.00009512
H        -6.73217999    -0.24223290    -0.37070366    -0.00083678     0.00045916    -0.00017447
H        -6.26367275    -1.96229641     0.12960176    -0.00066091    -0.00146340     0.00035593
H        -3.98088735    -1.41668289     0.59202724     0.00013617    -0.00006310    -0.00017337
C        -4.08208234     0.59008535    -0.09926635    -0.00062910    -0.00044778     0.00012122
C        -2.60054094     0.66390039     0.23829931     0.00054306     0.00021999     0.00006619
H        -4.60340767     1.57569725    -0.34864740    -0.00103396     0.00073735    -0.00010102
H        -2.19813635    -0.27917497     0.64783294    -0.00000220    -0.00025032    -0.00010039
C        -1.87446761     1.69875886    -0.06997949    -0.00001373     0.00010038    -0.00029125
H        -2.23554960     2.63278314    -0.50745795    -0.00010952    -0.00085756     0.00011889
N        -0.43128787     1.63773757     0.24021096     0.00025582     0.00001797     0.00027507
H         0.19154513     2.49139913     0.06556701     0.00041298     0.00027497    -0.00042385
H         0.06647920     0.80063479     0.65652907     0.00036978     0.00007594    -0.00056610
    14
  Step:    18            Position(A)                                  Velocity(au)
C        -5.93840309    -0.93582093    -0.13708672    -0.00018228    -0.00003800    -0.00001915
C        -4.65784697    -0.64856988     0.13481045     0.00010668     0.00019035    -0.00008643
H        -6.74115053    -0.23678543    -0.37317281    -0.00077752     0.00051282    -0.00026750
H        -6.27111809    -1.97763707     0.13297284    -0.00068317    -0.00129357     0.00024886
H        -3.98006674    -1.41694417     0.58937354     0.00001321     0.00001719    -0.00031228
C        -4.08887881     0.58537290    -0.09786977    -0.00060974    -0.00040735     0.00013332
C        -2.59494257     0.66595375     0.23905556     0.00047626     0.00015309     0.00007200
H        -4.61418617     1.58182013    -0.34967473    -0.00092371     0.00035621    -0.00008029
H        -2.19807028    -0.28121796     0.64678757     0.00001730    -0.00011826    -0.00009075
C        -1.87401421     1.70015496    -0.07316084     0.00009904     0.00015280    -0.00028894
H        -2.23649601     2.62316371    -0.50605376    -0.00007316    -0.00086510     0.00012167
N        -0.42850844     1.63804298     0.24317737     0.00025133     0.00003996     0.00026591
H         0.19449335     2.49237586     0.06132362     0.00012388    -0.00010203    -0.00034894
H         0.06911687     0.80295672     0.64948634     0.00012182     0.00033078    -0.00071131
    14
  Step:    19            Position(A)                                  Velocity(au)
C        -5.94078546    -0.93651192    -0.13722131    -0.00025474    -0.00008897    -0.00000527
C        -4.65644021    -0.64649284     0.13391578     0.00014679     0.00018536    -0.00007694
H        -6.74918964    -0.23101407    -0.37655578    -0.00066961     0.00052032    -0.00034188
H        -6.27861830    -1.99059570     0.13504604    -0.00067490    -0.00104052     0.00012216
H        -3.98059832    -1.41630691     0.58519552    -0.00010669     0.00009675    -0.00044897
C        -4.09542157     0.58117389    -0.09634976    -0.00058278    -0.00035504     0.00014392
C        -2.59012191     0.66724957     0.23987442     0.00040221     0.00008323     0.00007727
H        -4.62361565     1.58348997    -0.35040382    -0.00079264    -0.00006509    -0.00004917
H        -2.19775799    -0.28176210     0.64584755     0.00004350     0.00001893    -0.00007954
C        -1.87230090     1.70210173    -0.07630053     0.00021578     0.00019969    -0.00028323
H        -2.23715018     2.61385749    -0.50479614    -0.00005672    -0.00079849     0.00009135
N        -0.42578950     1.63861187     0.24602819     0.00024336     0.00006590     0.00025377
H         0.19425523     2.48916704     0.05793335    -0.00015809    -0.00047450    -0.00027122
H         0.06914431     0.80787121     0.64096782    -0.00009992     0.00053754    -0.00083034
    14
  Step:    20            Position(A)                                  Velocity(au)
C        -5.94397600    -0.93776721    -0.13720191    -0.00032871    -0.00014020     0.00000887
C        -4.65463563    -0.64451471     0.13312733     0.00017858     0.00017258    -0.00006738
H        -6.75579950    -0.22540252    -0.38065212    -0.00052089     0.00048689    -0.00039876
H        -6.28588287    -2.00040054     0.13564537    -0.00064396    -0.00072907    -0.00001723
H        -3.98240083    -1.41482759     0.57955136    -0.00021495     0.00016672    -0.00057737
C        -4.10162829     0.57760581    -0.09472116    -0.00054845    -0.00029323     0.00015333
C        -2.58614338     0.66777457     0.24074592     0.00032360     0.00001392     0.00008123
H        -4.63152665     1.58039607    -0.35075045    -0.00065102    -0.00050357    -0.00001285
H        -2.19711863    -0.28080378     0.64504746     0.00007765     0.00015161    -0.00006362
C        -1.86929351     1.70452351    -0.07935697     0.00033470     0.00023862    -0.00027345
H        -2.23773692     2.60569518    -0.50405541    -0.00006006    -0.00065822     0.00002829
N        -0.42318449     1.63948466     0.24872898     0.00022914     0.00009518     0.00023841