     6
  Step:   120            Position(A)                                  Velocity(au)
C        -0.02936489     0.09192442    -0.00004874     0.00014491     0.00016859    -0.00038967
N        -0.04838223    -0.03946803     1.33349147    -0.00007758    -0.00021120     0.00023263
H         0.76832066    -0.52412107    -0.59381727    -0.00006204    -0.00112233     0.00039633
H         0.86189860    -0.09868598     1.82269638     0.00022513     0.00165630     0.00029594
H        -0.89411866    -0.45821840     1.80138055     0.00013497    -0.00020693     0.00034937
H        -0.92678751    -0.13567609    -0.66831032    -0.00094671     0.00059895     0.00036891
