     6
  Step:   120            Position(A)                                  Velocity(au)
C        -0.03324314     0.06603598    -0.21776224     0.00004103     0.00006650     0.00006842
N        -0.04667942     0.01022970     1.52194935    -0.00000698     0.00015113     0.00001646
H         0.87238819    -0.44161776    -0.62781691    -0.00048706    -0.00140114     0.00063146
H         0.82192023    -0.41533236     1.91412079    -0.00030119     0.00007749    -0.00074907
H        -0.83852258    -0.66427822     1.74796609     0.00059057    -0.00177585    -0.00109638
H        -1.02392415    -0.07759725    -0.69689873    -0.00019415     0.00020688     0.00016995
