    14
  Step:     0            Position(A)                                  Velocity(au)
C        -6.01961020    -0.71200643    -0.11117426    -0.00044411    -0.00028020    -0.00021272
C        -4.70528605    -0.75051857     0.12010996     0.00021590     0.00005567     0.00010962
H        -6.44942960     0.23303559    -0.49136276     0.00065080    -0.00031336     0.00078605
H        -6.64220646    -1.63204759     0.04535816    -0.00034989     0.00014630     0.00055751
H        -4.25816199    -1.67056195     0.45210246     0.00030504     0.00035595    -0.00007968
C        -3.88933731     0.41002516    -0.06998862    -0.00025981     0.00024885     0.00001078
C        -2.54279743     0.45135945     0.20253318     0.00002808    -0.00000778    -0.00012700
H        -4.37391184     1.33828767    -0.37323904     0.00043640    -0.00017814    -0.00028530
H        -1.99836299    -0.40049559     0.47883054     0.00078949    -0.00056518     0.00080625
C        -1.84198991     1.65438440     0.06206665     0.00049517     0.00014018     0.00004292
H        -2.44890799     2.53638235    -0.13334264     0.00043922    -0.00102950     0.00076585
N        -0.53151026     1.85408205     0.13348092    -0.00014439    -0.00006078    -0.00001664
H        -0.07405003     2.78607368     0.14303281    -0.00027642    -0.00062305     0.00005845
H         0.05113409     1.13471514     0.61202261    -0.00040783     0.00118421    -0.00027596
    14
  Step:     1            Position(A)                                  Velocity(au)
C        -6.02487558    -0.71510588    -0.11357462    -0.00051116    -0.00028732    -0.00022384
C        -4.70258945    -0.74985680     0.12135111     0.00027139     0.00006616     0.00011591
H        -6.44260486     0.22886228    -0.48249120     0.00057853    -0.00042534     0.00082203
H        -6.64571169    -1.62921293     0.05116423    -0.00029773     0.00036026     0.00050246
H        -4.25428681    -1.66714573     0.45149196     0.00040732     0.00026130    -0.00002867
C        -3.89263283     0.41267869    -0.06991501    -0.00034013     0.00023417     0.00000352
C        -2.54207718     0.45139449     0.20117836     0.00010659     0.00001150    -0.00011935
H        -4.36927597     1.33630354    -0.37651005     0.00039788    -0.00016542    -0.00031857
H        -1.98894089    -0.40852034     0.48807976     0.00089698    -0.00085195     0.00086653
C        -1.83681376     1.65602997     0.06252305     0.00044794     0.00015520     0.00004110
H        -2.44400633     2.52533554    -0.12531547     0.00043625    -0.00095066     0.00069132
N        -0.53276316     1.85338903     0.13340577    -0.00008485    -0.00006419     0.00000137
H        -0.07809225     2.77835500     0.14351668    -0.00044929    -0.00075571     0.00002830
H         0.04605149     1.14844507     0.60815153    -0.00048839     0.00127830    -0.00040589
    14
  Step:     2            Position(A)                                  Velocity(au)
C        -6.03079278    -0.71829210    -0.11607109    -0.00056251    -0.00029585    -0.00023028
C        -4.69934885    -0.74907130     0.12264567     0.00031523     0.00007805     0.00011942
H        -6.43677304     0.22373040    -0.47337938     0.00046867    -0.00048436     0.00082910
H        -6.64871979    -1.62416632     0.05635034    -0.00026346     0.00054359     0.00044587
H        -4.24925109    -1.66484559     0.45147516     0.00051462     0.00015726     0.00002693
C        -3.89677838     0.41514809    -0.06991167    -0.00041522     0.00021503    -0.00000197
C        -2.54046555     0.45161097     0.19992212     0.00019105     0.00002534    -0.00010889
H        -4.36520743     1.33466883    -0.38020842     0.00033310    -0.00011508    -0.00036349
H        -1.97873985    -0.41913353     0.49778754     0.00093067    -0.00103443     0.00088796
C        -1.83219041     1.65777976     0.06296581     0.00039493     0.00015909     0.00004045
H        -2.43936422     2.51558481    -0.11821880     0.00039173    -0.00079407     0.00059634
N        -0.53336651     1.85267768     0.13351092    -0.00002731    -0.00006421     0.00001582
H        -0.08387906     2.76954099     0.14365200    -0.00058932    -0.00081342    -0.00000507
H         0.04044955     1.16268046     0.60314289    -0.00049466     0.00126812    -0.00047755
    14
  Step:     3            Position(A)                                  Velocity(au)
C        -6.03718154    -0.72157827    -0.11861242    -0.00059719    -0.00030521    -0.00023221
C        -4.69569318    -0.74814934     0.12396361     0.00034771     0.00009093     0.00012030
H        -6.43235179     0.21826593    -0.46435310     0.00032142    -0.00048445     0.00080664
H        -6.65147547    -1.61732078     0.06091854    -0.00025565     0.00068260     0.00039132
H        -4.24302854    -1.66370537     0.45208104     0.00062135     0.00005507     0.00008305
C        -3.90171647     0.41738293    -0.06995812    -0.00048536     0.00019119    -0.00000557
C        -2.53789761     0.45194893     0.19879613     0.00028115     0.00003417    -0.00009562
H        -4.36198877     1.33378592    -0.38446201     0.00024416    -0.00003096    -0.00041936
H        -1.96858080    -0.43115037     0.50750551     0.00089254    -0.00111112     0.00086859
C        -1.82817385     1.65951048     0.06340805     0.00033778     0.00015202     0.00004097
H        -2.43543641     2.50796370    -0.11226940     0.00030855    -0.00056725     0.00048299
N        -0.53336062     1.85198440     0.13375195     0.00002513    -0.00006113     0.00002594
H        -0.09098470     2.76055978     0.14340567    -0.00068597    -0.00077968    -0.00004121
H         0.03522977     1.17618755     0.59770420    -0.00041443     0.00114196    -0.00048151
    14
  Step:     4            Position(A)                                  Velocity(au)
C        -6.04385745    -0.72496916    -0.12115117    -0.00061547    -0.00031444    -0.00023017
C        -4.69174200    -0.74708195     0.12527740     0.00037019     0.00010456     0.00011884
H        -6.42974131     0.21313205    -0.45573255     0.00013998    -0.00042557     0.00075645
H        -6.65431273    -1.60923315     0.06491132    -0.00028164     0.00076532     0.00034251
H        -4.23565781    -1.66364093     0.45329204     0.00072161    -0.00003386     0.00013552
C        -3.90739657     0.41933075    -0.07003346    -0.00055131     0.00016259    -0.00000729
C        -2.53431483     0.45235843     0.19783018     0.00037595     0.00003907    -0.00007985
H        -4.35986586     1.33399161    -0.38938277     0.00013557     0.00007880    -0.00048387
H        -1.95921387    -0.44344146     0.51678967     0.00079181    -0.00109108     0.00081054
C        -1.82480077     1.66110539     0.06386221     0.00027796     0.00013508     0.00004253
H        -2.43261401     2.50317523    -0.10765248     0.00019553    -0.00028642     0.00035498
N        -0.53281664     1.85134025     0.13407851     0.00007025    -0.00005567     0.00003155
H        -0.09888605     2.75248406     0.14275054    -0.00073294    -0.00064642    -0.00007947
H         0.03138307     1.18766310     0.59260903    -0.00024576     0.00090124    -0.00041689
    14
  Step:     5            Position(A)                                  Velocity(au)
C        -6.05064609    -0.72845716    -0.12364787    -0.00061880    -0.00032226    -0.00022503
C        -4.68759467    -0.74586193     0.12656344     0.00038470     0.00011872     0.00011545
H        -6.42928954     0.20895581    -0.44780429    -0.00006930    -0.00031488     0.00068292
H        -6.65763698    -1.60057795     0.06841151    -0.00034661     0.00078310     0.00030284
H        -4.22724200    -1.66444613     0.45504590     0.00080980    -0.00009935     0.00018060
C        -3.91377741     0.42093987    -0.07011761    -0.00061347     0.00012960    -0.00000725
C        -2.52967306     0.45280364     0.19704929     0.00047341     0.00004118    -0.00006212
H        -4.35902282     1.33550992    -0.39504765     0.00001382     0.00020218    -0.00055300
H        -1.95125844    -0.45501977     0.52523761     0.00064171    -0.00098923     0.00071872
C        -1.82209285     1.66246559     0.06433844     0.00021678     0.00011051     0.00004483
H        -2.43115892     2.50169764    -0.10450363     0.00006677     0.00002451     0.00021753
N        -0.53182384     1.85076656     0.13444211     0.00010723    -0.00004890     0.00003324
H        -0.10701916     2.74641806     0.14166715    -0.00072983    -0.00041755    -0.00011908
H         0.02985325     1.19590388     0.58858399    -0.00000082     0.00056440    -0.00029431
    14
  Step:     6            Position(A)                                  Velocity(au)
C        -6.05739498    -0.73201932    -0.12607408    -0.00060942    -0.00032726    -0.00021781
C        -4.68332584    -0.74448470     0.12780308     0.00039317     0.00013291     0.00011059
H        -6.43125734     0.20624353    -0.44079242    -0.00029708    -0.00016690     0.00059274
H        -6.66189557    -1.59210145     0.07153660    -0.00045242     0.00073227     0.00027497
H        -4.21794196    -1.66581440     0.45724305     0.00088131    -0.00013377     0.00021541
C        -3.92081751     0.42216596    -0.07019203    -0.00067087     0.00009342    -0.00000559
C        -2.52395810     0.45325938     0.19647110     0.00056980     0.00004108    -0.00004325
H        -4.35956354     1.33841473    -0.40148074    -0.00011345     0.00032459    -0.00062130
H        -1.94517528    -0.46508283     0.53251303     0.00045696    -0.00082298     0.00059989
C        -1.82005840     1.66352296     0.06484289     0.00015537     0.00008164     0.00004742
H        -2.43115335     2.50371144    -0.10289361    -0.00006035     0.00033697     0.00007707
N        -0.53047087     1.85027053     0.13480573     0.00013707    -0.00004217     0.00003244
H        -0.11485247     2.74334941     0.14014553    -0.00068317    -0.00011119    -0.00015900
H         0.03136522     1.20001041     0.58617042     0.00029330     0.00016732    -0.00013607
    14
  Step:     7            Position(A)                                  Velocity(au)
C        -6.06397830    -0.73561664    -0.12841291    -0.00058970    -0.00032810    -0.00020947
C        -4.67899324    -0.74295417     0.12898278     0.00039646     0.00014603     0.00010470
H        -6.43578873     0.20530466    -0.43483688    -0.00053192    -0.00000188     0.00049403
H        -6.66753452    -1.58455813     0.07442691    -0.00059627     0.00061595     0.00026004
H        -4.20796176    -1.66737260     0.45975832     0.00093297    -0.00013277     0.00023819
C        -3.92845402     0.42298371    -0.07023993    -0.00072082     0.00005629    -0.00000252
C        -2.51720757     0.45370234     0.19610317     0.00065986     0.00003867    -0.00002419
H        -4.36150485     1.34261101    -0.40863985    -0.00023852     0.00043082    -0.00068259
H        -1.94126148    -0.47302412     0.53836133     0.00025224    -0.00061015     0.00046175
C        -1.81869385     1.66425167     0.06537588     0.00009479     0.00005250     0.00004977
H        -2.43247918     2.50906950    -0.10281761    -0.00016833     0.00062209    -0.00005952
N        -0.52882516     1.84984407     0.13515179     0.00016240    -0.00003672     0.00003109
H        -0.12196491     2.74398565     0.13818878    -0.00060589     0.00024072    -0.00019793
H         0.03626986     1.19956423     0.58560721     0.00059848    -0.00024189     0.00002761
    14
  Step:     8            Position(A)                                  Velocity(au)
C        -6.07029579    -0.73919716    -0.13065674    -0.00056192    -0.00032389    -0.00020070
C        -4.67465242    -0.74128996     0.13009361     0.00039429     0.00015654     0.00009816
H        -6.44289417     0.20620232    -0.42998459    -0.00076159     0.00015719     0.00039514
H        -6.67494002    -1.57862628     0.07722539    -0.00076976     0.00044517     0.00025710
H        -4.19753137    -1.66871895     0.46245398     0.00096321    -0.00009536     0.00024842
C        -3.93658674     0.42339742    -0.07024711    -0.00076000     0.00002103     0.00000166
C        -2.50952232     0.45410527     0.19594189     0.00073821     0.00003365    -0.00000592
H        -4.36478156     1.34783977    -0.41641374    -0.00035454     0.00050714    -0.00073100
H        -1.93965705    -0.47843110     0.54261468     0.00004141    -0.00036823     0.00031205
C        -1.81798466     1.66467145     0.06593171     0.00003603     0.00002688     0.00005138
H        -2.43483598     2.51732084    -0.10419562    -0.00024280     0.00085524    -0.00018597
N        -0.52691814     1.84946714     0.13548586     0.00018661    -0.00003330     0.00003122
H        -0.12810736     2.74861561     0.13581552    -0.00051483     0.00059663    -0.00023440
H         0.04445803     1.19471850     0.58677446     0.00087356    -0.00061259     0.00016526
    14
  Step:     9            Position(A)                                  Velocity(au)
C        -6.07627131    -0.74270243    -0.13280366    -0.00052833    -0.00031444    -0.00019184
C        -4.67036749    -0.73952962     0.13113015     0.00038576     0.00016294     0.00009123
H        -6.45244993     0.20874348    -0.42619241    -0.00097446     0.00028832     0.00030354
H        -6.68437456    -1.57481913     0.08005146    -0.00095908     0.00023836     0.00026288
H        -4.18688973    -1.66945877     0.46519292     0.00097190    -0.00002367     0.00024662
C        -3.94508041     0.42344373    -0.07020358    -0.00078587    -0.00000964     0.00000650
C        -2.50105779     0.45443857     0.19597368     0.00080075     0.00002608     0.00001076
H        -4.36926114     1.35370569    -0.42463195    -0.00045634     0.00054314    -0.00076187
H        -1.94035562    -0.48107987     0.54518795    -0.00016261    -0.00011442     0.00015818
C        -1.81790561     1.66483975     0.06649989    -0.00001988     0.00000765     0.00005190
H        -2.43779093     2.52777941    -0.10688601    -0.00027466     0.00101919    -0.00029760
N        -0.52474268     1.84911555     0.13583469     0.00021282    -0.00003187     0.00003443
H        -0.13322770     2.75703800     0.13306086    -0.00042718     0.00091267    -0.00026692
H         0.05538070     1.18616273     0.58922268     0.00108370    -0.00090239     0.00025138
    14
  Step:    10            Position(A)                                  Velocity(au)
C        -6.08185413    -0.74607612    -0.13485371    -0.00049132    -0.00030032    -0.00018293
C        -4.66621325    -0.73772534     0.13208938     0.00036996     0.00016411     0.00008409
H        -6.46421245     0.21250989    -0.42334397    -0.00116079     0.00037382     0.00022486
H        -6.69592165    -1.57341163     0.08297633    -0.00114630     0.00001912     0.00027218
H        -4.17626916    -1.66923669     0.46784935     0.00096025     0.00007753     0.00023426
C        -3.95377915     0.42318662    -0.07010488    -0.00079718    -0.00003353     0.00001148
C        -2.49200439     0.45467579     0.19617736     0.00084509     0.00001648     0.00002525
H        -4.37476497     1.35972191    -0.43308105    -0.00054078     0.00053283    -0.00077217
H        -1.94321446    -0.48093421     0.54607521    -0.00034770     0.00013391     0.00000734
C        -1.81841959     1.66483870     0.06706715    -0.00007173    -0.00000353     0.00005116
H        -2.44084459     2.53961748    -0.11070613    -0.00026087     0.00110543    -0.00039164
N        -0.52226234     1.84876996     0.13623915     0.00024295    -0.00003168     0.00004161
H        -0.13745278     2.76858198     0.12997618    -0.00035687     0.00115080    -0.00029402
H         0.06816598     1.17497691     0.59227384     0.00120696    -0.00108473     0.00027122
    14
  Step:    11            Position(A)                                  Velocity(au)
C        -6.08701986    -0.74927245    -0.13680569    -0.00045321    -0.00028276    -0.00017375
C        -4.66227386    -0.73593931     0.13296986     0.00034620     0.00015937     0.00007687
H        -6.47784435     0.21692140    -0.42127314    -0.00131343     0.00040248     0.00016240
H        -6.70945205    -1.57440086     0.08600591    -0.00131203    -0.00018758     0.00027883
H        -4.16588236    -1.66776276     0.47031771     0.00093049     0.00020137     0.00021342
C        -3.96252030     0.42271009    -0.06995237    -0.00079377    -0.00004920     0.00001610
C        -2.48256981     0.45479906     0.19652616     0.00087021     0.00000583     0.00003709
H        -4.38109171     1.36536232    -0.44152463    -0.00060666     0.00047489    -0.00076069
H        -1.94796227    -0.47815026     0.54534859    -0.00050244     0.00035883    -0.00013330
C        -1.81947475     1.66476245     0.06761920    -0.00011810    -0.00000600     0.00004914
H        -2.44349795     2.55196285    -0.11545380    -0.00020379     0.00111349    -0.00046706
N        -0.51942769     1.84842247     0.13674502     0.00027744    -0.00003160     0.00005281
H        -0.14103502     2.78221404     0.12662852    -0.00031212     0.00128522    -0.00031441
H         0.08178530     1.16243223     0.59515620     0.00123638    -0.00115079     0.00022190
    14
  Step:    12            Position(A)                                  Velocity(au)
C        -6.09176903    -0.75226200    -0.13865485    -0.00041609    -0.00026334    -0.00016393
C        -4.65863947    -0.73423888     0.13377112     0.00031407     0.00014843     0.00006963
H        -6.49294623     0.22131484    -0.41979115    -0.00142817     0.00037024     0.00011717
H        -6.72462490    -1.57751540     0.08907633    -0.00143853    -0.00035969     0.00027689
H        -4.15591297    -1.66483135     0.47251843     0.00088556     0.00033960     0.00018669
C        -3.97114439     0.42211029    -0.06975258    -0.00077622    -0.00005585     0.00001995
C        -2.47296696     0.45480325     0.19698882     0.00087599    -0.00000456     0.00004589
H        -4.38803690     1.37011106    -0.44972271    -0.00065447     0.00037226    -0.00072794
H        -1.95420621    -0.47308411     0.54315906    -0.00061606     0.00054168    -0.00025646
C        -1.82100327     1.66470754     0.06814218    -0.00015754     0.00000015     0.00004591
H        -2.44530297     2.56397714    -0.12092403    -0.00010967     0.00104915    -0.00052421
N        -0.51619286     1.84807856     0.13739437     0.00031537    -0.00003050     0.00006741
H        -0.14428103     2.79669863     0.12309791    -0.00029483     0.00130510    -0.00032706
H         0.09521425     1.14980108     0.59712842     0.00117786    -0.00110697     0.00011025
    14
  Step:    13            Position(A)                                  Velocity(au)
C        -6.09612259    -0.75503353    -0.14039196    -0.00038152    -0.00024364    -0.00015308
C        -4.65540305    -0.73269213     0.13449309     0.00027346     0.00013144     0.00006236
H        -6.50908822     0.22502112    -0.41870990    -0.00150344     0.00027933     0.00008833
H        -6.74092270    -1.58226976     0.09206341    -0.00151233    -0.00048136     0.00026173
H        -4.14650894    -1.66033330     0.47440200     0.00082894     0.00048311     0.00015691
C        -3.97950156     0.42148829    -0.06951596    -0.00074560    -0.00005336     0.00002274
C        -2.46340588     0.45469922     0.19753002     0.00086295    -0.00001315     0.00005129
H        -4.39540958     1.37350628    -0.45744965    -0.00068597     0.00023142    -0.00067588
H        -1.96143974    -0.46629999     0.53973802    -0.00067889     0.00066369    -0.00035497
C        -1.82292132     1.66476568     0.06862359    -0.00018869     0.00001421     0.00004163
H        -2.44589713     2.57491497    -0.12692180     0.00001292     0.00092256    -0.00056435
N        -0.51252832     1.84775517     0.13821971     0.00035492    -0.00002753     0.00008442
H        -0.14748509     2.81076565     0.11947351    -0.00030156     0.00121384    -0.00033137
H         0.10755329     1.13821524     0.59756814     0.00104603    -0.00096989    -0.00005074
    14
  Step:    14            Position(A)                                  Velocity(au)
C        -6.10011549    -0.75759213    -0.14200379    -0.00035047    -0.00022498    -0.00014090
C        -4.65265708    -0.73136328     0.13513539     0.00022457     0.00010897     0.00005502
H        -6.52583692     0.22742565    -0.41785867    -0.00153995     0.00013680     0.00007379
H        -6.75771005    -1.58804613     0.09480226    -0.00152580    -0.00054464     0.00023077
H        -4.13777837    -1.65426244     0.47595118     0.00076436     0.00062240     0.00012707
C        -3.98745578     0.42094292    -0.06925518    -0.00070330    -0.00004224     0.00002435
C        -2.45408829     0.45451567     0.19811087     0.00083204    -0.00001830     0.00005301
H        -4.40304380     1.37517371    -0.46450897    -0.00070375     0.00006141    -0.00060770
H        -1.96905827    -0.45856465     0.53539333    -0.00068316     0.00070750    -0.00042238
C        -1.82513118     1.66501851     0.06905288    -0.00021040     0.00003513     0.00003649
H        -2.44502025     2.58416001    -0.13327032     0.00015439     0.00074644    -0.00058941
N        -0.50842823     1.84747634     0.13924125     0.00039379    -0.00002223     0.00010269
H        -0.15087828     2.82325368     0.11584861    -0.00032516     0.00102600    -0.00032722
H         0.11809813     1.12858295     0.59601839     0.00086022    -0.00076180    -0.00024521
    14
  Step:    15            Position(A)                                  Velocity(au)
C        -6.10378975    -0.75995530    -0.14347436    -0.00032331    -0.00020829    -0.00012720
C        -4.65049020    -0.73030828     0.13569678     0.00016790     0.00008194     0.00004750
H        -6.54277752     0.22801393    -0.41709559    -0.00154015    -0.00004692     0.00007062
H        -6.77430259    -1.59418482     0.09711195    -0.00147730    -0.00054915     0.00018356
H        -4.12978705    -1.64671720     0.47718191     0.00069572     0.00074804     0.00010018
C        -3.99488752     0.42056431    -0.06898337    -0.00065090    -0.00002353     0.00002481
C        -2.44520348     0.45429888     0.19868964     0.00078460    -0.00001861     0.00005087
H        -4.41080548     1.37484963    -0.47074426    -0.00071088    -0.00012704    -0.00052740
H        -1.97638508    -0.45082214     0.53049767    -0.00062436     0.00066006    -0.00045403
C        -1.82752414     1.66553419     0.06942177    -0.00022183     0.00006153     0.00003070
H        -2.44251957     2.59124467    -0.13981620     0.00030493     0.00053490    -0.00060169
N        -0.50391348     1.84726889     0.14046629     0.00042954    -0.00001450     0.00012107
H        -0.15459859     2.83321128     0.11231493    -0.00035656     0.00076351    -0.00031501
H         0.12637230     1.12154951     0.59220363     0.00064169    -0.00050730    -0.00045668
    14
  Step:    16            Position(A)                                  Velocity(au)
C        -6.10718841    -0.76214892    -0.14478647    -0.00029991    -0.00019419    -0.00011193
C        -4.64898399    -0.72957061     0.13617451     0.00010422     0.00005167     0.00003964
H        -6.55953065     0.22639930    -0.41631379    -0.00150780    -0.00025955     0.00007553
H        -6.79002877    -1.60005993     0.09881798    -0.00137016    -0.00050051     0.00012149
H        -4.12255806    -1.63789764     0.47814274     0.00062686     0.00085112     0.00007912
C        -4.00169543     0.42042820    -0.06871248    -0.00059009     0.00000122     0.00002431
C        -2.43692373     0.45410858     0.19922375     0.00072240    -0.00001322     0.00004495
H        -4.41859575     1.37239451    -0.47604685    -0.00071067    -0.00032219    -0.00043960
H        -1.98271738    -0.44412461     0.52546056    -0.00050309     0.00051674    -0.00044858
C        -1.82998419     1.66636460     0.06972456    -0.00022250     0.00009184     0.00002453
H        -2.43834925     2.59586205    -0.14643347     0.00045495     0.00030296    -0.00060386
N        -0.49903120     1.84715910     0.14188992     0.00045987    -0.00000448     0.00013850
H        -0.15867875     2.83995695     0.10895712    -0.00038611     0.00045254    -0.00029563
H         0.13213633     1.11748470     0.58602758     0.00041210    -0.00023173    -0.00066917
    14
  Step:    17            Position(A)                                  Velocity(au)
C        -6.11035090    -0.76420359    -0.14592307    -0.00027980    -0.00018299    -0.00009516
C        -4.64821016    -0.72917783     0.13656388     0.00003454     0.00001972     0.00003124
H        -6.57576344     0.22233573    -0.41544332    -0.00144754    -0.00048797     0.00008512
H        -6.80427755    -1.60513440     0.09976974    -0.00121142    -0.00040839     0.00004728
H        -4.11607338    -1.62809736     0.47891279     0.00056130     0.00092374     0.00006650
C        -4.00779688     0.42059096    -0.06845163    -0.00052258     0.00003006     0.00002316
C        -2.42939956     0.45400963     0.19967299     0.00064769    -0.00000223     0.00003566
H        -4.42635284     1.36780113    -0.48036126    -0.00070654    -0.00051183    -0.00034931
H        -1.98739119    -0.43951739     0.52068423    -0.00032650     0.00028533    -0.00040932
C        -1.83239173     1.66754329     0.06995831    -0.00021222     0.00012430     0.00001822
H        -2.43256674     2.59787242    -0.15302677     0.00059518     0.00006609    -0.00059887
N        -0.49385285     1.84717080     0.14349619     0.00048267     0.00000757     0.00015401
H        -0.16304552     2.84311137     0.10584752    -0.00040439     0.00012134    -0.00027041
H         0.13538780     1.11647992     0.57756435     0.00019307     0.00003937    -0.00086754
    14
  Step:    18            Position(A)                                  Velocity(au)
C        -6.11330954    -0.76615220    -0.14686829    -0.00026222    -0.00017484    -0.00007701
C        -4.64822832    -0.72913919     0.13685800    -0.00003995    -0.00001221     0.00002212
H        -6.59119846     0.21572393    -0.41445167    -0.00136477    -0.00071874     0.00009601
H        -6.81653099    -1.60899414     0.09985225    -0.00101036    -0.00028470    -0.00003556
H        -4.11027853    -1.61768903     0.47959754     0.00050199     0.00095968     0.00006441
C        -4.01312776     0.42108576    -0.06820581    -0.00045001     0.00006076     0.00002180
C        -2.42275430     0.45405973     0.20000383     0.00056316     0.00001310     0.00002381
H        -4.43405270     1.36119735    -0.48368863    -0.00070192    -0.00068372    -0.00026177
H        -1.98986019    -0.43788239     0.51650600    -0.00010877    -0.00001177    -0.00034480
C        -1.83462680     1.66908399     0.07012311    -0.00019106     0.00015708     0.00001207
H        -2.42532864     2.59730790    -0.15953481     0.00071675    -0.00015983    -0.00058999
N        -0.48847186     1.84732469     0.14525918     0.00049602     0.00002137     0.00016675
H        -0.16752559     2.84261140     0.10304134    -0.00040267    -0.00020103    -0.00024113
H         0.13636007     1.11834590     0.56704849     0.00000601     0.00028028    -0.00103766
    14
  Step:    19            Position(A)                                  Velocity(au)
C        -6.11608755    -0.76802864    -0.14760792    -0.00024629    -0.00016980    -0.00005766
C        -4.64908406    -0.72944490     0.13704786    -0.00011790    -0.00004243     0.00001211
H        -6.60562043     0.20661183    -0.41334303    -0.00126541    -0.00093854     0.00010489
H        -6.82638117    -1.61136278     0.09899187    -0.00077750    -0.00014235    -0.00012310
H        -4.10509129    -1.60710261     0.48032185     0.00045086     0.00095503     0.00007416
C        -4.01764168     0.42192015    -0.06797482    -0.00037394     0.00009095     0.00002071
C        -2.41707936     0.45429628     0.20019383     0.00047186     0.00003048     0.00001055
H        -4.44170864     1.35284354    -0.48608789    -0.00070014    -0.00082612    -0.00018219
H        -1.98977073    -0.43977482     0.51314113     0.00013017    -0.00033912    -0.00026797
C        -1.83657150     1.67097968     0.07022243    -0.00015933     0.00018824     0.00000641
H        -2.41688645     2.59437581    -0.16593404     0.00081126    -0.00035882    -0.00058085
N        -0.48300147     1.84763830     0.14714420     0.00049825     0.00003662     0.00017600
H        -0.17185476     2.83871351     0.10057230    -0.00037317    -0.00048564    -0.00020992
H         0.13551923     1.12261158     0.55486358    -0.00012841     0.00046572    -0.00116677
    14
  Step:    20            Position(A)                                  Velocity(au)
C        -6.11869751    -0.76986690    -0.14812982    -0.00023097    -0.00016783    -0.00003730
C        -4.65080768    -0.73006739     0.13712297    -0.00019788    -0.00006944     0.00000112
H        -6.61888180     0.19519158    -0.41215709    -0.00115584    -0.00113448     0.00010858
H        -6.83354023    -1.61210838     0.09715913    -0.00052402     0.00000542    -0.00021130
H        -4.10041509    -1.59679591     0.48121986     0.00040837     0.00090889     0.00009601
C        -4.02130852     0.42307551    -0.06775281    -0.00029580     0.00011830     0.00002041
C        -2.41243144     0.45472645     0.20023452     0.00037692     0.00004699    -0.00000284
H        -4.44936969     1.34312439    -0.48767447    -0.00070430    -0.00092846    -0.00011553
H        -1.98701237    -0.44530118     0.51064371     0.00036773    -0.00065417    -0.00019383
C        -1.83811235     1.67320208     0.07026337    -0.00011751     0.00021588     0.00000157
H        -2.40758080     2.58945798    -0.17224211     0.00087100    -0.00051535    -0.00057530
N        -0.47757163     1.84812577     0.14910942     0.00048806     0.00005296     0.00018121