 Fermi distribution function

Calculation with static geometry


********************************************************************************
 iSCC Total electronic   Diff electronic      SCC error    
   12   -0.52929850E+01   -0.48324900E-10    0.97128731E-06
********************************************************************************

 Total charge:     1.00000000

 Atomic gross charges (e)
 Atom           Charge
    1       0.29350526
    2      -0.21378508
    3       0.17899384
    4       0.28563005
    5       0.27773310
    6       0.17792283

Nr. of electrons (up):     12.00000000
Atom populations (up)
 Atom       Population
    1       3.70649474
    2       5.21378508
    3       0.82100616
    4       0.71436995
    5       0.72226690
    6       0.82207717

l-shell populations (up)
 Atom Sh.   l       Population
    1   1   0       1.39229605
    1   2   1       2.31419869
    2   1   0       1.48120267
    2   2   1       3.73258241
    3   1   0       0.82100616
    4   1   0       0.71436995
    5   1   0       0.72226690
    6   1   0       0.82207717

Orbital populations (up)
 Atom Sh.   l   m       Population  Label
    1   1   0   0       1.39229605  s
    1   2   1  -1       0.49829903  p_y
    1   2   1   0       0.84419635  p_z
    1   2   1   1       0.97170331  p_x
    2   1   0   0       1.48120267  s
    2   2   1  -1       1.39105029  p_y
    2   2   1   0       1.05415543  p_z
    2   2   1   1       1.28737669  p_x
    3   1   0   0       0.82100616  s
    4   1   0   0       0.71436995  s
    5   1   0   0       0.72226690  s
    6   1   0   0       0.82207717  s

Fermi level:                        -0.4946075790 H          -13.4590 eV
Band energy:                        -8.6241963949 H         -234.6763 eV
TS:                                  0.0000000000 H            0.0000 eV
Band free energy (E-TS):            -8.6241963949 H         -234.6763 eV
Extrapolated E(0K):                 -8.6241963949 H         -234.6763 eV
Input / Output electrons (q):     12.0000000000     12.0000000000

Energy H0:                          -5.4233442174 H         -147.5767 eV
Energy SCC:                          0.1303592056 H            3.5473 eV
Total Electronic energy:            -5.2929850118 H         -144.0295 eV
Repulsive energy:                    0.1373840091 H            3.7384 eV
Total energy:                       -5.1556010028 H         -140.2910 eV
Extrapolated to 0:                  -5.1556010028 H         -140.2910 eV
Total Mermin free energy:           -5.1556010028 H         -140.2910 eV
Force related energy:               -5.1556010028 H         -140.2910 eV

SCC converged

Excitation Energy:                   0.1041950647 H            2.8353 eV

Total Forces
    1      0.002832407081     -0.002355468781      0.074378621892
    2      0.028783687078     -0.006756407331     -0.069042820071
    3     -0.010845749357      0.010038363380      0.005706352466
    4     -0.029537304818      0.002382133024     -0.011941102176
    5      0.003104660693      0.009884565082      0.001738257041
    6      0.005662299324     -0.013193185374     -0.000839309151

Maximal derivative component:        0.743786E-01 au


