 Fermi distribution function

Calculation with static geometry


********************************************************************************
 iSCC Total electronic   Diff electronic      SCC error    
   10   -0.54144008E+01   -0.28865799E-12    0.14781585E-07
********************************************************************************

 Total charge:     1.00000000

 Atomic gross charges (e)
 Atom           Charge
    1       0.13440272
    2      -0.01927784
    3       0.18012516
    4       0.27089964
    5       0.27289851
    6       0.16095181

Nr. of electrons (up):     12.00000000
Atom populations (up)
 Atom       Population
    1       3.86559728
    2       5.01927784
    3       0.81987484
    4       0.72910036
    5       0.72710149
    6       0.83904819

l-shell populations (up)
 Atom Sh.   l       Population
    1   1   0       1.32019477
    1   2   1       2.54540251
    2   1   0       1.42152462
    2   2   1       3.59775323
    3   1   0       0.81987484
    4   1   0       0.72910036
    5   1   0       0.72710149
    6   1   0       0.83904819

Orbital populations (up)
 Atom Sh.   l   m       Population  Label
    1   1   0   0       1.32019477  s
    1   2   1  -1       0.62141633  p_y
    1   2   1   0       0.87859803  p_z
    1   2   1   1       1.04538815  p_x
    2   1   0   0       1.42152462  s
    2   2   1  -1       1.32037871  p_y
    2   2   1   0       1.12823561  p_z
    2   2   1   1       1.14913890  p_x
    3   1   0   0       0.81987484  s
    4   1   0   0       0.72910036  s
    5   1   0   0       0.72710149  s
    6   1   0   0       0.83904819  s

Fermi level:                        -0.4983321716 H          -13.5603 eV
Band energy:                        -8.9539570587 H         -243.6496 eV
TS:                                  0.0000000000 H            0.0000 eV
Band free energy (E-TS):            -8.9539570587 H         -243.6496 eV
Extrapolated E(0K):                 -8.9539570587 H         -243.6496 eV
Input / Output electrons (q):     12.0000000000     12.0000000000

Energy H0:                          -5.5488054160 H         -150.9907 eV
Energy SCC:                          0.1344046097 H            3.6573 eV
Total Electronic energy:            -5.4144008063 H         -147.3333 eV
Repulsive energy:                    0.1885183220 H            5.1298 eV
Total energy:                       -5.2258824843 H         -142.2035 eV
Extrapolated to 0:                  -5.2258824843 H         -142.2035 eV
Total Mermin free energy:           -5.2258824843 H         -142.2035 eV
Force related energy:               -5.2258824843 H         -142.2035 eV

SCC converged

Excitation Energy:                   0.1518880038 H            4.1331 eV

Total Forces
    1      0.004016130712     -0.007263102982      0.010670588284
    2      0.012828677664     -0.004276737040     -0.028326643827
    3     -0.011894909566      0.002718270442      0.004455055441
    4     -0.011135327513      0.006304978330      0.001884148232
    5     -0.001823867118     -0.002028121278      0.007985855174
    6      0.008009295821      0.004544712529      0.003330996697

Maximal derivative component:        0.283266E-01 au


