|===============================================================================
|
|  DFTB+ release 20.1
|
|  Copyright (C) 2006 - 2020  DFTB+ developers group
|
|===============================================================================
|
|  When publishing results obtained with DFTB+, please cite the following
|  reference:
|
|  * DFTB+, a software package for efficient approximate density functional
|    theory based atomistic simulations, J. Chem. Phys. 152, 124101 (2020).
|    [doi: 10.1063/1.5143190]
|
|  You should also cite additional publications crediting the parametrization
|  data you use. Please consult the documentation of the SK-files for the
|  references.
|
|===============================================================================

Reading input file 'dftb_in.hsd'
Parser version: 8

--------------------------------------------------------------------------------
Reading SK-files:
Done.


Processed input in HSD format written to 'dftb_pin.hsd'

Starting initialization...
--------------------------------------------------------------------------------
WARNING!
-> Excited state forces are not implemented yet for fractional occupations, kT=  0.3158E-02K
OpenMP threads:              1
Chosen random seed:          435509991
Mode:                        Static calculation
Self consistent charges:     Yes
SCC-tolerance:                 0.100000E-05
Max. scc iterations:                    100
Shell resolved Hubbard:      No
Spin polarisation:           No
Nr. of up electrons:             6.000000
Nr. of down electrons:           6.000000
Periodic boundaries:         No
Electronic solver:           Relatively robust
Mixer:                       Broyden mixer
Mixing parameter:                  0.200000
Maximal SCC-cycles:                     100
Nr. of chrg. vec. in memory:              0
Electronic temperature:        0.100000E-07 H      0.272114E-06 eV
Initial charges:             Set automatically (system chrg:   0.100E+01)
Included shells:             C:  s, p
                             N:  s, p
                             H:  s
Extra options:
                             Mulliken analysis
                             Force calculation
Force type                   original
                             Eigenvector printing

--------------------------------------------------------------------------------

***  Geometry step: 0

 iSCC Total electronic   Diff electronic      SCC error    
    1   -0.54088474E+01    0.00000000E+00    0.57947305E+00
    2   -0.54118665E+01   -0.30191302E-02    0.40056788E+00
    3   -0.54142006E+01   -0.23340707E-02    0.44246810E-01
    4   -0.54143993E+01   -0.19870083E-03    0.10953340E-01
    5   -0.54143961E+01    0.32136078E-05    0.61875727E-02
    6   -0.54144008E+01   -0.47416964E-05    0.10271184E-03
    7   -0.54144008E+01   -0.27728930E-09    0.66756435E-04
    8   -0.54144008E+01   -0.15362644E-09    0.40439268E-05
    9   -0.54144008E+01   -0.36681769E-12    0.26643473E-05
   10   -0.54144008E+01   -0.28865799E-12    0.14781585E-07
>> Charges saved for restart in charges.bin

Total Energy:                       -5.0739944806 H         -138.0704 eV
Extrapolated to 0:                  -5.2258824843 H         -142.2035 eV
Total Mermin free energy:           -5.0739944806 H         -138.0704 eV
Force related energy:               -5.2258824843 H         -142.2035 eV

--------------------------------------------------------------------------------
DFTB+ running times                          cpu [s]             wall clock [s]
--------------------------------------------------------------------------------
SCC                                    +     0.01  ( 50.6%)      0.07  ( 76.1%)
Post-SCC processing                    +     0.01  ( 42.1%)      0.02  ( 19.3%)
--------------------------------------------------------------------------------
Missing                                +     0.00  (  7.4%)      0.00  (  4.5%)
Total                                  =     0.02  (100.0%)      0.09  (100.0%)
--------------------------------------------------------------------------------
