     6
  Step:   120            Position(A)                                  Velocity(au)
C        -0.03533502    -0.02510718    -0.10011450    -0.00005275     0.00000940     0.00058737
N        -0.03886476    -0.12347471     1.41043499     0.00010229     0.00006980    -0.00051124
H         0.88481684    -0.05686383    -0.72566424    -0.00035887    -0.00154329     0.00004890
H         0.59332571     0.66964289     1.69060462    -0.00129692     0.00094810    -0.00048379
H        -0.95043888    -0.02904407     1.93244707    -0.00017350    -0.00147227    -0.00005346
H        -0.77951036     0.76152083    -0.41226685     0.00103643     0.00098543     0.00059367
