 Fermi distribution function

Calculation with static geometry


********************************************************************************
 iSCC Total electronic   Diff electronic      SCC error    
   13   -0.52899281E+01   -0.81745277E-10    0.38571590E-08
********************************************************************************

 Total charge:     1.00000000

 Atomic gross charges (e)
 Atom           Charge
    1       0.31093536
    2      -0.19846803
    3       0.17320240
    4       0.26057304
    5       0.27350823
    6       0.18024899

Nr. of electrons (up):     12.00000000
Atom populations (up)
 Atom       Population
    1       3.68906464
    2       5.19846803
    3       0.82679760
    4       0.73942696
    5       0.72649177
    6       0.81975101

l-shell populations (up)
 Atom Sh.   l       Population
    1   1   0       1.39051450
    1   2   1       2.29855014
    2   1   0       1.50666706
    2   2   1       3.69180097
    3   1   0       0.82679760
    4   1   0       0.73942696
    5   1   0       0.72649177
    6   1   0       0.81975101

Orbital populations (up)
 Atom Sh.   l   m       Population  Label
    1   1   0   0       1.39051450  s
    1   2   1  -1       0.45627530  p_y
    1   2   1   0       0.86981310  p_z
    1   2   1   1       0.97246175  p_x
    2   1   0   0       1.50666706  s
    2   2   1  -1       1.35819430  p_y
    2   2   1   0       1.09861450  p_z
    2   2   1   1       1.23499217  p_x
    3   1   0   0       0.82679760  s
    4   1   0   0       0.73942696  s
    5   1   0   0       0.72649177  s
    6   1   0   0       0.81975101  s

Fermi level:                        -0.5111437574 H          -13.9089 eV
Band energy:                        -8.6868044668 H         -236.3800 eV
TS:                                  0.0000000000 H            0.0000 eV
Band free energy (E-TS):            -8.6868044668 H         -236.3800 eV
Extrapolated E(0K):                 -8.6868044668 H         -236.3800 eV
Input / Output electrons (q):     12.0000000000     12.0000000000

Energy H0:                          -5.4253627099 H         -147.6316 eV
Energy SCC:                          0.1354346343 H            3.6854 eV
Total Electronic energy:            -5.2899280756 H         -143.9463 eV
Repulsive energy:                    0.1415279256 H            3.8512 eV
Total energy:                       -5.1484001500 H         -140.0951 eV
Extrapolated to 0:                  -5.1484001500 H         -140.0951 eV
Total Mermin free energy:           -5.1484001500 H         -140.0951 eV
Force related energy:               -5.1484001500 H         -140.0951 eV

SCC converged

Excitation Energy:                   0.1024025584 H            2.7865 eV

Total Forces
    1      0.006870720120     -0.006091003029      0.057036341931
    2     -0.020755906019     -0.011979358882     -0.060086979745
    3     -0.008102924748     -0.007375841459      0.003975461125
    4      0.007839440886      0.012063943160      0.005062120907
    5      0.014329093814      0.001113445642     -0.005389758845
    6     -0.000180424054      0.012268814567     -0.000597185373

Maximal derivative component:        0.600870E-01 au


