     6
  Step:   120            Position(A)                                  Velocity(au)
C        -0.03644294     0.05782444    -0.04757605    -0.00008918    -0.00007007     0.00063057
N        -0.03232512    -0.00721388     1.37129315     0.00008240    -0.00000821    -0.00054844
H         0.86994200     0.16577069    -0.70228805    -0.00025541     0.00156329     0.00044555
H         0.49115652    -0.88188604     1.66701545    -0.00128897    -0.00100803    -0.00046283
H        -0.89291902     0.09214054     1.94970456     0.00046924     0.00154273    -0.00026424
H        -0.79768350    -0.63460741    -0.51143975     0.00099280    -0.00114883     0.00038890
