     6
  Step:     0            Position(A)                                  Velocity(au)
C        -0.03571208     0.02453227     0.02272580     0.00003073    -0.00001241    -0.00019370
N        -0.04564585    -0.05727759     1.29235713     0.00013592    -0.00009205     0.00025597
H         0.92122741    -0.01742297    -0.49500012     0.00031985     0.00022583     0.00000178
H         0.83076475    -0.14628086     1.85163019    -0.00075149     0.00049919    -0.00131941
H        -0.89244414    -0.03468758     1.87027300    -0.00127283     0.00046563     0.00061455
H        -1.01262767     0.03223491    -0.56471284    -0.00055046     0.00023637    -0.00054579
     6
  Step:     1            Position(A)                                  Velocity(au)
C        -0.03546908     0.02445539     0.01994893     0.00001245    -0.00000203    -0.00030861
N        -0.04413102    -0.05833479     1.29580365     0.00013244    -0.00010039     0.00036768
H         0.92547650    -0.01494186    -0.49621116     0.00044877     0.00022856    -0.00021880
H         0.82221916    -0.14083284     1.83710338    -0.00074461     0.00049042    -0.00128611
H        -0.90670527    -0.02950097     1.87733101    -0.00127522     0.00048128     0.00063712
H        -1.01801584     0.03472628    -0.57083740    -0.00041768     0.00021905    -0.00056408
     6
  Step:     2            Position(A)                                  Velocity(au)
C        -0.03543972     0.02448775     0.01597427    -0.00000759     0.00000741    -0.00041065
N        -0.04274847    -0.05947385     1.30040078     0.00011201    -0.00010689     0.00046383
H         0.93104504    -0.01242278    -0.49978680     0.00055584     0.00023286    -0.00042636
H         0.81447495    -0.13555202     1.82349405    -0.00059925     0.00046902    -0.00114967
H        -0.92034198    -0.02415859     1.88421119    -0.00116730     0.00049368     0.00058919
H        -1.02176514     0.03702701    -0.57705321    -0.00025536     0.00020153    -0.00056530
     6
  Step:     3            Position(A)                                  Velocity(au)
C        -0.03563505     0.02461739     0.01096512    -0.00002788     0.00001564    -0.00049635
N        -0.04168060    -0.06067316     1.30595080     0.00007614    -0.00011141     0.00054043
H         0.93763660    -0.00984751    -0.50553851     0.00063171     0.00023884    -0.00061323
H         0.80910934    -0.13057215     1.81195218    -0.00031531     0.00043690    -0.00091390
H        -0.93224227    -0.01870086     1.89022061    -0.00096922     0.00050226     0.00048688
H        -1.02360225     0.03913522    -0.58320440    -0.00007298     0.00018388    -0.00055518
     6
  Step:     4            Position(A)                                  Velocity(au)
C        -0.03604961     0.02482986     0.00511577    -0.00004696     0.00002249    -0.00056349
N        -0.04108280    -0.06191123     1.31222363     0.00002833    -0.00011412     0.00059571
H         0.94486495    -0.00719762    -0.51320246     0.00066969     0.00024645    -0.00077355
H         0.80757693    -0.12599406     1.80350069     0.00008203     0.00039805    -0.00059902
H        -0.94154553    -0.01317059     1.89486263    -0.00070504     0.00050716     0.00034854
H        -1.02336166     0.04104966    -0.58919884     0.00011932     0.00016613    -0.00053954
     6
  Step:     5            Position(A)                                  Velocity(au)
C        -0.03666243     0.02510937    -0.00136238    -0.00006348     0.00002788    -0.00061109
N        -0.04106088    -0.06316965     1.31898314    -0.00002601    -0.00011536     0.00063018
H         0.95228730    -0.00445597    -0.52246142     0.00066617     0.00025546    -0.00090349
H         0.81090392    -0.12186402     1.79884752     0.00054120     0.00035791    -0.00024040
H        -0.94766644    -0.00760573     1.89784566    -0.00040026     0.00050914     0.00019269
H        -1.02099190     0.04276963    -0.59500797     0.00031087     0.00014841    -0.00052416
     6
  Step:     6            Position(A)                                  Velocity(au)
C        -0.03743834     0.02543976    -0.00825306    -0.00007624     0.00003182    -0.00063916
N        -0.04165190    -0.06443504     1.32601002    -0.00008022    -0.00011566     0.00064595
H         0.95943867    -0.00160897    -0.53296795     0.00062055     0.00026567    -0.00100118
H         0.81941662    -0.11816418     1.79824148     0.00099308     0.00032204     0.00011835
H        -0.95030202    -0.00203213     1.89907815    -0.00008100     0.00050965     0.00003735
H        -1.01656089     0.04429645    -0.60066574     0.00049072     0.00013072    -0.00051456
     6
  Step:     7            Position(A)                                  Velocity(au)
C        -0.03833036     0.02580542    -0.01534534    -0.00008142     0.00004017    -0.00076083
N        -0.04281589    -0.06569990     1.33311462    -0.00012837    -0.00012108     0.00073439
H         0.96586303     0.00135609    -0.54436411     0.00045945     0.00036499    -0.00098081
H         0.83262940    -0.11481873     1.80143657     0.00131802     0.00020717     0.00040152
H        -0.94943855     0.00354388     1.89866277     0.00027417     0.00059354    -0.00013003
H        -1.01025639     0.04562946    -0.60626500     0.00070248     0.00003815    -0.00042979
     6
  Step:     8            Position(A)                                  Velocity(au)
C        -0.03921957     0.02631852    -0.02489777    -0.00007786     0.00005287    -0.00097665
N        -0.04446020    -0.06708382     1.34207611    -0.00016477    -0.00013206     0.00089763
H         0.96949007     0.00637585    -0.55442496     0.00018949     0.00052493    -0.00084881
H         0.84825091    -0.11363191     1.80702546     0.00146620     0.00004769     0.00058332
H        -0.94430412     0.01095273     1.89623356     0.00063316     0.00073372    -0.00029440
H        -1.00119286     0.04513114    -0.61006824     0.00092870    -0.00010123    -0.00027607
     6
  Step:     9            Position(A)                                  Velocity(au)
C        -0.04003377     0.02696215    -0.03671134    -0.00006769     0.00006370    -0.00116721
N        -0.04642049    -0.06858901     1.35275197    -0.00018464    -0.00014305     0.00104172
H         0.97000853     0.01283988    -0.56293348    -0.00009568     0.00064527    -0.00070497
H         0.86470527    -0.11377546     1.81419772     0.00147153    -0.00005560     0.00069496
H        -0.93558686     0.01959538     1.89222221     0.00090749     0.00083924    -0.00040292
H        -0.98993931     0.04341489    -0.61230451     0.00108912    -0.00020013    -0.00015465
     6
  Step:    10            Position(A)                                  Velocity(au)
C        -0.04070040     0.02771214    -0.05043273    -0.00005080     0.00007227    -0.00132334
N        -0.04849955    -0.07021333     1.36486580    -0.00018568    -0.00015397     0.00115859
H         0.96739683     0.02049230    -0.56984757    -0.00037160     0.00074757    -0.00056397
H         0.88044353    -0.11484836     1.82222912     0.00134302    -0.00012923     0.00074605
H        -0.92445094     0.02931281     1.88741885     0.00105651     0.00093952    -0.00042781
H        -0.97736623     0.04075294    -0.61345144     0.00115767    -0.00027940    -0.00008554
     6
  Step:    11            Position(A)                                  Velocity(au)
C        -0.04114508     0.02854316    -0.06566183    -0.00002721     0.00007859    -0.00144261
N        -0.05048251    -0.07195743     1.37809842    -0.00016707    -0.00016522     0.00124598
H         0.96187910     0.02919445    -0.57527144    -0.00061596     0.00083987    -0.00043884
H         0.89408641    -0.11660265     1.83051908     0.00110112    -0.00018384     0.00074952
H        -0.91247376     0.04014928     1.88286307     0.00104859     0.00105063    -0.00035129
H        -0.96461312     0.03730257    -0.61417580     0.00111228    -0.00034714    -0.00008370
     6
  Step:    12            Position(A)                                  Velocity(au)
C        -0.04129577     0.02943146    -0.08199269     0.00000240     0.00008288    -0.00152569
N        -0.05215455    -0.07382792     1.39212407    -0.00012991    -0.00017737     0.00130452
H         0.95392142     0.03886597    -0.57944802    -0.00080661     0.00092659    -0.00034192
H         0.90453269    -0.11887030     1.83862623     0.00077423    -0.00022526     0.00072049
H        -0.90151094     0.05229727     1.87973363     0.00087030     0.00118418    -0.00016848
H        -0.95303301     0.03315860    -0.61528249     0.00093885    -0.00040826    -0.00015789
     6
  Step:    13            Position(A)                                  Velocity(au)
C        -0.04109267     0.03035627    -0.09903924     0.00003620     0.00008541    -0.00157521
N        -0.05332453    -0.07583780     1.40663726    -0.00007771    -0.00019085     0.00133705
H         0.94423296     0.04946542    -0.58275168    -0.00092165     0.00101116    -0.00028469
H         0.91102422    -0.12153061     1.84628125     0.00039526    -0.00025722     0.00067461
H        -0.89343421     0.06605542     1.87917721     0.00053726     0.00134691     0.00010765
H        -0.94407389     0.02837106    -0.61762998     0.00063779    -0.00046651    -0.00030729
     6
  Step:    14            Position(A)                                  Velocity(au)
C        -0.04050393     0.03130004    -0.11645352     0.00007082     0.00008646    -0.00159525
N        -0.05385465    -0.07800318     1.42137456    -0.00001667    -0.00020566     0.00134805
H         0.93375865     0.06098708    -0.58567615    -0.00094119     0.00109685    -0.00027682
H         0.91317975    -0.12449750     1.85338453    -0.00000057    -0.00028243     0.00062693
H        -0.88975732     0.08176345     1.88208867     0.00009959     0.00153821     0.00044483
H        -0.93908008     0.02295282    -0.62200501     0.00022993    -0.00052491    -0.00051881
     6
  Step:    15            Position(A)                                  Velocity(au)
C        -0.03954330     0.03224765    -0.13393842     0.00010158     0.00008615    -0.00159076
N        -0.05368918    -0.08033704     1.43612849     0.00004491    -0.00022117     0.00134276
H         0.92364263     0.07346111    -0.58880761    -0.00085087     0.00118701    -0.00032458
H         0.91101178    -0.12770941     1.85999647    -0.00037677    -0.00030296     0.00059169
H        -0.89125552     0.09970668     1.88890871    -0.00036444     0.00174839     0.00079675
H        -0.93904378     0.01688774    -0.62898003    -0.00024236    -0.00058547    -0.00076763
     6
  Step:    16            Position(A)                                  Velocity(au)
C        -0.03828163     0.03318465    -0.15125454     0.00012340     0.00008446    -0.00156705
N        -0.05287223    -0.08284178     1.45074996     0.00009798    -0.00023617     0.00132602
H         0.91514417     0.08695520    -0.59277705    -0.00064695     0.00128490    -0.00042871
H         0.90493708    -0.13112534     1.86632880    -0.00069648    -0.00032059     0.00058230
H        -0.89773018     0.12001282     1.89951919    -0.00076711     0.00195988     0.00111435
H        -0.94438220     0.01014463    -0.63879839    -0.00072144    -0.00064870    -0.00102173
     6
  Step:    17            Position(A)                                  Velocity(au)
C        -0.03684375     0.03409542    -0.16822057     0.00013228     0.00008125    -0.00152916
N        -0.05154560    -0.08550380     1.46513769     0.00013466    -0.00024917     0.00130136
H         0.90948932     0.10157079    -0.59818642    -0.00034136     0.00139296    -0.00058247
H         0.89577500    -0.13472282     1.87273545    -0.00092438    -0.00033692     0.00061097
H        -0.90803747     0.14258274     1.91328727    -0.00103471     0.00215172     0.00135829
H        -0.95482672     0.00269614    -0.65133231    -0.00114697    -0.00071343    -0.00124937
     6
  Step:    18            Position(A)                                  Velocity(au)
C        -0.03538781     0.03496219    -0.18470793     0.00012668     0.00007638    -0.00148168
N        -0.04992635    -0.08829283     1.47921980     0.00014964    -0.00025883     0.00127076
H         0.90767621     0.11742877    -0.60551974     0.00003568     0.00151170    -0.00077112
H         0.88471452    -0.13849603     1.87969500    -0.00103067    -0.00035330     0.00068746
H        -0.92036641     0.16708577     1.92923428    -0.00112436     0.00230538     0.00150677
H        -0.96947447    -0.00546300    -0.66613082    -0.00146958    -0.00077713    -0.00142619
     6
  Step:    19            Position(A)                                  Velocity(au)
C        -0.03407237     0.03576627    -0.20063522     0.00010807     0.00006988    -0.00142856
N        -0.04827197    -0.09116612     1.49293799     0.00014096    -0.00026432     0.00123502
H         0.91026995     0.13464201    -0.61505606     0.00043816     0.00163872    -0.00097348
H         0.87322720    -0.14245201     1.88777488    -0.00099699    -0.00037060     0.00081691
H        -0.93263508     0.19301736     1.94625066    -0.00102777     0.00240902     0.00155614
H        -0.98697664    -0.01430515    -0.68253286    -0.00165994    -0.00083675    -0.00153906
     6
  Step:    20            Position(A)                                  Velocity(au)
C        -0.03302360     0.03649093    -0.21596034     0.00008032     0.00006209    -0.00137291
N        -0.04684259    -0.09407532     1.50623821     0.00010995    -0.00026546     0.00119443
H         0.91726175     0.15327886    -0.62681639     0.00081263     0.00176844    -0.00116598
H         0.86290353    -0.14660355     1.89756656    -0.00082340    -0.00038878     0.00099719
H        -0.94285096     0.21978769     1.96327784    -0.00076397     0.00245878     0.00151617
H        -1.00578879    -0.02376858    -0.69980060    -0.00171024    -0.00088950    -0.00158588
     6
  Step:    21            Position(A)                                  Velocity(au)
C        -0.03231526     0.03712470    -0.23067033     0.00004836     0.00005361    -0.00131691
N        -0.04586653    -0.09697347     1.51906848     0.00006080    -0.00026262     0.00114938
H         0.92804789     0.17333000    -0.64056421     0.00110976     0.00189286    -0.00132761
H         0.85521374    -0.15095723     1.90959021    -0.00053352    -0.00040658     0.00121658
H        -0.94934840     0.24680787     1.97941982    -0.00036772     0.00245766     0.00140376
H        -1.02439149    -0.03376471    -0.71722706    -0.00162963    -0.00093335    -0.00157252
     6
  Step:    22            Position(A)                                  Velocity(au)
C        -0.03196561     0.03766384    -0.24477031     0.00001678     0.00004516    -0.00126173
N        -0.04551250    -0.09982065     1.53138314    -0.00000024    -0.00025663     0.00110073
H         0.94153983     0.19468878    -0.65586046     0.00129429     0.00200337    -0.00144381
H         0.85123175    -0.15549820     1.92418151    -0.00017399    -0.00042143     0.00145384
H        -0.95089546     0.27355369     1.99398784     0.00012055     0.00241340     0.00123793
H        -1.04143996    -0.04418751    -0.73420250    -0.00143742    -0.00096732    -0.00150913
     6
  Step:    23            Position(A)                                  Velocity(au)
C        -0.03194806     0.03811274    -0.25827312    -0.00001106     0.00003743    -0.00120770
N        -0.04587184    -0.10258771     1.54314895    -0.00006585    -0.00024857     0.00104978
H         0.95636287     0.21715745    -0.67215033     0.00134970     0.00209254    -0.00150803
H         0.85140730    -0.16017674     1.94139572     0.00019360    -0.00042980     0.00168116
H        -0.94671115     0.29960556     2.00650196     0.00066081     0.00233672     0.00103708
H        -1.05583790    -0.05492668    -0.75024224    -0.00115718    -0.00099131    -0.00140724
     6
  Step:    24            Position(A)                                  Velocity(au)
C        -0.03220757     0.03848278    -0.27119102    -0.00003327     0.00003097    -0.00115450
N        -0.04695310    -0.10525861     1.55434903    -0.00012881    -0.00023970     0.00099798
H         0.97106705     0.24046712    -0.68885155     0.00127689     0.00215527    -0.00152085
H         0.85546708    -0.16490083     1.96096004     0.00050650    -0.00042799     0.00186964
H        -0.93643890     0.32467395     2.01667586     0.00121591     0.00224046     0.00081817
H        -1.06675552    -0.06587439    -0.76498868    -0.00081281    -0.00100585    -0.00127804
     6
  Step:    25            Position(A)                                  Velocity(au)
C        -0.03267590     0.03879025    -0.28353008    -0.00004911     0.00002612    -0.00110144
N        -0.04868981    -0.10783156     1.56498160    -0.00018306    -0.00023134     0.00094642
H         0.98429728     0.26430806    -0.70542190     0.00108933     0.00218916    -0.00148774
H         0.86248803    -0.16953982     1.98229757     0.00071511    -0.00041313     0.00199544
H        -0.92011087     0.34861981     2.02440100     0.00175157     0.00213947     0.00059711
H        -1.07361957    -0.07693162    -0.77820180    -0.00042690    -0.00101199    -0.00113172
     6
  Step:    26            Position(A)                                  Velocity(au)
C        -0.03328194     0.03905421    -0.29528720    -0.00005854     0.00002306    -0.00104763
N        -0.05095789    -0.11031960     1.57505380    -0.00022430    -0.00022488     0.00089552
H         0.99489833     0.28835927    -0.72139868     0.00080727     0.00219425    -0.00141660
H         0.87111156    -0.17393883     2.00461409     0.00079197    -0.00038394     0.00204404
H        -0.89811998     0.37147885     2.02973870     0.00223585     0.00205108     0.00038932
H        -1.07609475    -0.08801356    -0.78974721    -0.00002047    -0.00101126    -0.00097750
     6
  Step:    27            Position(A)                                  Velocity(au)
C        -0.03395660     0.03929482    -0.30644907    -0.00006180     0.00002186    -0.00099214
N        -0.05359684    -0.11275118     1.58457277    -0.00025011    -0.00022174     0.00084489
H         1.00195784     0.31231153    -0.73641268     0.00045311     0.00217236    -0.00131594
H         0.87981398    -0.17793922     2.02701486     0.00073310    -0.00034101     0.00201131
H        -0.87119746     0.39349115     2.03291812     0.00263927     0.00199532     0.00020997
H        -1.07406739    -0.09905481    -0.79958646     0.00038671    -0.00100570    -0.00082387
     6
  Step:    28            Position(A)                                  Velocity(au)
C        -0.03463400     0.03953233    -0.31699214    -0.00005914     0.00002247    -0.00093403
N        -0.05642962    -0.11517062     1.59353749    -0.00025977    -0.00022335     0.00079359
H         1.00481102     0.33588371    -0.75018743     0.00004895     0.00212658    -0.00119395
H         0.88714944    -0.18139917     2.04861535     0.00055330    -0.00028666     0.00190193
H        -0.84038090     0.41513021     2.03433215     0.00293694     0.00199395     0.00007302
H        -1.06763470    -0.11001519    -0.80777091     0.00077549    -0.00099794    -0.00067897
     6
  Step:    29            Position(A)                                  Velocity(au)
C        -0.03525051     0.03978648    -0.32688284    -0.00005069     0.00002486    -0.00087241
N        -0.05927980    -0.11763739     1.60193406    -0.00025405    -0.00023092     0.00074042
H         1.00302869     0.35883457    -0.76253255    -0.00038451     0.00206099    -0.00105810
H         0.89191852    -0.18421046     2.06862322     0.00027939    -0.00022449     0.00172663
H        -0.80694618     0.43711269     2.03451547     0.00311285     0.00206757    -0.00001110
H        -1.05710198    -0.12088664    -0.81444019     0.00112677    -0.00099129    -0.00055094
     6
  Step:    30            Position(A)                                  Velocity(au)
C        -0.03574291     0.04007615    -0.33607772    -0.00003641     0.00002892    -0.00080636
N        -0.06198753    -0.12022252     1.60973568    -0.00023523    -0.00024511     0.00068445
H         0.99639905     0.38097188    -0.77333539    -0.00082806     0.00198051    -0.00091525
H         0.89326153    -0.18631042     2.08638862    -0.00005599    -0.00015904     0.00149956
H        -0.77228132     0.46036220     2.03408940     0.00316542     0.00222990    -0.00003897
H        -1.04298438    -0.13170147    -0.81982369     0.00142138    -0.00098984    -0.00044802
     6
  Step:    31            Position(A)                                  Velocity(au)
C        -0.03604705     0.04041913    -0.34452352    -0.00001623     0.00003453    -0.00073499
N        -0.06442586    -0.12299964     1.61690771    -0.00020708    -0.00026548     0.00062534
H         0.98491320     0.40216194    -0.78255546    -0.00126337     0.00189097    -0.00077191
H         0.89069363    -0.18768985     2.10142886    -0.00041824    -0.00009541     0.00123652
H        -0.73769662     0.48589598     2.03366299     0.00311232     0.00248069    -0.00001782
H        -1.02600657    -0.14254117    -0.82424148     0.00164048    -0.00099847    -0.00037853
     6
  Step:    32            Position(A)                                  Velocity(au)
C        -0.03609804     0.04083148    -0.35215710     0.00000978     0.00004147    -0.00065743
N        -0.06651786    -0.12603040     1.62341627    -0.00017479    -0.00029011     0.00056356
H         0.96876042     0.42234041    -0.79022244    -0.00167235     0.00179937    -0.00063456
H         0.88411164    -0.18839762     2.11343985    -0.00077264    -0.00003903     0.00095425
H        -0.70419327     0.51463194     2.03369961     0.00299032     0.00279955     0.00003313
H        -1.00709581    -0.15354489    -0.82810470     0.00176717    -0.00102265    -0.00035016
     6
  Step:    33            Position(A)                                  Velocity(au)
C        -0.03583318     0.04132643    -0.35890612     0.00004110     0.00004940    -0.00057292
N        -0.06824970    -0.12934631     1.62923660    -0.00014430    -0.00031552     0.00050013
H         0.94832736     0.44152666    -0.79643777    -0.00203662     0.00171422    -0.00051004
H         0.87379069    -0.18854368     2.12230489    -0.00108495     0.00000450     0.00067026
H        -0.67227775     0.54714145     2.03438787     0.00284769     0.00314503     0.00008544
H        -0.98734642    -0.16491355    -0.83190189     0.00178943    -0.00106782    -0.00036862
     6
  Step:    34            Position(A)                                  Velocity(au)
C        -0.03519879     0.04191220    -0.36469079     0.00007645     0.00005769    -0.00048094
N        -0.06967480    -0.13293302     1.63435748    -0.00012140    -0.00033725     0.00043618
H         0.92420550     0.45984216    -0.80138051    -0.00233729     0.00164574    -0.00040571
H         0.86037638    -0.18829908     2.12810308    -0.00132212     0.00002979     0.00040268
H        -0.64189463     0.58343554     2.03556880     0.00273160     0.00346192     0.00010834
H        -0.96794865    -0.17690559    -0.83616907     0.00170393    -0.00113839    -0.00043577
     6
  Step:    35            Position(A)                                  Velocity(au)
C        -0.03416077     0.04258856    -0.36942754     0.00011340     0.00006536    -0.00038141
N        -0.07090556    -0.13672426     1.63877896    -0.00011063    -0.00035083     0.00037241
H         0.89719476     0.47753031    -0.80531349    -0.00255553     0.00160595    -0.00032945
H         0.84486683    -0.18789204     2.13111438    -0.00145383     0.00003196     0.00016959
H        -0.61251870     0.62287755     2.03675800     0.00267540     0.00369472     0.00007711
H        -0.95006967    -0.18981802    -0.84143521     0.00152002    -0.00123619    -0.00054741
     6
  Step:    36            Position(A)                                  Velocity(au)
C        -0.03271796     0.04334211    -0.37303483     0.00014847     0.00007099    -0.00027485
N        -0.07209493    -0.14060817     1.64250457    -0.00011459    -0.00035284     0.00030872
H         0.86829831     0.49497543    -0.80858794    -0.00267451     0.00160803    -0.00028899
H         0.82857117    -0.18759989     2.13181328    -0.00145584     0.00000708    -0.00001280
H        -0.58336512     0.66426467     2.03725580     0.00269208     0.00380127    -0.00002108
H        -0.93469526    -0.20394969    -0.84814473     0.00126154    -0.00135913    -0.00069198
     6
  Step:    37            Position(A)                                  Velocity(au)
C        -0.03091271     0.04414163    -0.37544052     0.00017754     0.00007283    -0.00016250
N        -0.07341245    -0.14444333     1.64553281    -0.00013369    -0.00034144     0.00024445
H         0.83868466     0.51270896    -0.81163574    -0.00268293     0.00166457    -0.00029039
H         0.81301751    -0.18773706     2.13083436    -0.00131524    -0.00004761    -0.00013313
H        -0.55362429     0.70603765     2.03629678     0.00277570     0.00376048    -0.00018610
H        -0.92247101    -0.21955161    -0.85657368     0.00096476    -0.00150048    -0.00085099
     6
  Step:    38            Position(A)                                  Velocity(au)
C        -0.02883385     0.04493534    -0.37658985     0.00019681     0.00006908    -0.00004628
N        -0.07501975    -0.14807782     1.64785248    -0.00016616    -0.00031640     0.00017881
H         0.80960398     0.53139098    -0.81494087    -0.00257983     0.00178459    -0.00033560
H         0.79979784    -0.18864149     2.12890082    -0.00103641    -0.00013373    -0.00018845
H        -0.52264134     0.74653235     2.03318443     0.00290800     0.00357240    -0.00040768
H        -0.91358927    -0.23677561    -0.86676173     0.00067219    -0.00164957    -0.00100158
     6
  Step:    39            Position(A)                                  Velocity(au)
C        -0.02660717     0.04565291    -0.37645294     0.00020387     0.00005844     0.00007125
N        -0.07704759    -0.15136528     1.64944461    -0.00020829    -0.00027869     0.00011139
H         0.78224599     0.55175021    -0.81897762    -0.00237922     0.00196941    -0.00041935
H         0.79034403    -0.19066256     2.12671175    -0.00064542    -0.00025199    -0.00018683
H        -0.49000619     0.78419070     2.02737796     0.00306595     0.00325273    -0.00066996
H        -0.90776563    -0.25563904    -0.87848521     0.00042394    -0.00179378    -0.00112075
     6
  Step:    40            Position(A)                                  Velocity(au)
C        -0.02437388     0.04621393    -0.37503117     0.00019851     0.00004058     0.00018700
N        -0.07957649    -0.15417475     1.65028938    -0.00025484    -0.00022987     0.00004249
H         0.75755399     0.57447558    -0.82411502    -0.00211162     0.00220923    -0.00052688
H         0.78567796    -0.19415427     2.12481366    -0.00018968    -0.00040291    -0.00014705
H        -0.45556776     0.81769208     2.01852779     0.00322716     0.00282573    -0.00095535
H        -0.90431486    -0.27601792    -0.89128027     0.00025007    -0.00192128    -0.00118941
     6
  Step:    41            Position(A)                                  Velocity(au)
C        -0.02226442     0.04654061    -0.37236201     0.00018268     0.00001629     0.00029751
N        -0.08262264    -0.15639405     1.65037414    -0.00029963    -0.00017155    -0.00002706
H         0.73605016     0.60008127    -0.83050403    -0.00182015     0.00248247    -0.00063359
H         0.78619440    -0.19947703     2.12349484     0.00026849    -0.00058787    -0.00009416
H        -0.41940582     0.84600898     2.00647786     0.00337206     0.00231842    -0.00124655
H        -0.90229491    -0.29767063    -0.90450574     0.00016663    -0.00202329    -0.00119479
     6
  Step:    42            Position(A)                                  Velocity(au)
C        -0.02037747     0.04657040    -0.36852253     0.00015958    -0.00001274     0.00039901
N        -0.08613147    -0.15792770     1.64969739    -0.00033620    -0.00010488    -0.00009638
H         0.71773468     0.62878433    -0.83797602    -0.00155123     0.00275927    -0.00070733
H         0.79155178    -0.20701514     2.12275380     0.00066298    -0.00081144    -0.00005125
H        -0.38179753     0.86841185     1.99125713     0.00348279     0.00175660    -0.00152651
H        -0.90066946    -0.32028130    -0.91741867     0.00017585    -0.00209521    -0.00113022
     6
  Step:    43            Position(A)                                  Velocity(au)
C        -0.01877322     0.04626185    -0.36363280     0.00013220    -0.00004477     0.00048720
N        -0.08997761    -0.15868842     1.64826564    -0.00035789    -0.00002969    -0.00016524
H         0.70211393     0.66044549    -0.84597817    -0.00134214     0.00300732    -0.00071121
H         0.80069835    -0.21722884     2.12237363     0.00093433    -0.00108603    -0.00002989
H        -0.34321322     0.88443802     1.97308243     0.00353703     0.00116121    -0.00177623
H        -0.89844786    -0.34350728    -0.92923138     0.00026896    -0.00213644    -0.00099178
     6
  Step:    44            Position(A)                                  Velocity(au)
C        -0.01748535     0.04559088    -0.35786420     0.00010172    -0.00007799     0.00055758
N        -0.09396107    -0.15857719     1.64608235    -0.00035765     0.00005559    -0.00023445
H         0.68837283     0.69457524    -0.85353514    -0.00120670     0.00319085    -0.00060933
H         0.81199210    -0.23077404     2.12209992     0.00103921    -0.00143103    -0.00002854
H        -0.30441827     0.89381565     1.95239867     0.00349620     0.00054501    -0.00197338
H        -0.89478554    -0.36702002    -0.93911585     0.00042925    -0.00214812    -0.00077491
     6