     6
  Step:     0            Position(A)                                  Velocity(au)
C        -0.03660255     0.01916377     0.02538336    -0.00004022     0.00010189    -0.00032164
N        -0.05012409    -0.05045439     1.28858777    -0.00014099    -0.00010365     0.00033429
H         0.91366394    -0.04731594    -0.48199827    -0.00003749    -0.00021425    -0.00004214
H         0.88387222    -0.10702488     1.86169092     0.00107750     0.00026293     0.00000589
H        -0.88472407    -0.09096922     1.86815813     0.00075379     0.00046648    -0.00105160
H        -0.99304948     0.04830703    -0.56494787     0.00064464    -0.00028895     0.00027516
     6
  Step:     1            Position(A)                                  Velocity(au)
C        -0.03684659     0.01977172     0.02322946    -0.00004838     0.00012026    -0.00046445
N        -0.05084218    -0.05102182     1.29077948    -0.00011992    -0.00010381     0.00046516
H         0.91379023    -0.04867584    -0.48240438     0.00007897    -0.00028177    -0.00010633
H         0.88928461    -0.10567723     1.86136313     0.00089400     0.00022996    -0.00012621
H        -0.88092961    -0.08858462     1.86247073     0.00061802     0.00040519    -0.00101363
H        -0.98949624     0.04657533    -0.56331713     0.00065184    -0.00034385     0.00031668
     6
  Step:     2            Position(A)                                  Velocity(au)
C        -0.03713183     0.02047949     0.02030186    -0.00005508     0.00013802    -0.00060309
N        -0.05143611    -0.05159014     1.29367697    -0.00009563    -0.00010390     0.00059092
H         0.91452793    -0.05039871    -0.48316163     0.00018433    -0.00034553    -0.00016963
H         0.89365331    -0.10450887     1.86031003     0.00069685     0.00019754    -0.00025739
H        -0.87796244    -0.08653608     1.85706818     0.00045146     0.00034411    -0.00094637
H        -0.98591782     0.04454499    -0.56148311     0.00065251    -0.00039691     0.00034823
     6
  Step:     3            Position(A)                                  Velocity(au)
C        -0.03744959     0.02128275     0.01662680    -0.00006003     0.00015461    -0.00073507
N        -0.05188913    -0.05215935     1.29724891    -0.00006848    -0.00010395     0.00070925
H         0.91580825    -0.05245868    -0.48426146     0.00027614    -0.00040319    -0.00023037
H         0.89691376    -0.10351454     1.85854522     0.00048990     0.00016645    -0.00038407
H        -0.87598706    -0.08481734     1.85210984     0.00025633     0.00028496    -0.00085036
H        -0.98235260     0.04223001    -0.55950472     0.00064446    -0.00044613     0.00036795
     6
  Step:     4            Position(A)                                  Velocity(au)
C        -0.03778975     0.02217414     0.01224504    -0.00006297     0.00016947    -0.00085715
N        -0.05218670    -0.05272947     1.30145083    -0.00003903    -0.00010388     0.00081729
H         0.91755465    -0.05481791    -0.48568667     0.00035352    -0.00045280    -0.00028692
H         0.89902296    -0.10268451     1.85610035     0.00027788     0.00013731    -0.00050269
H        -0.87515295    -0.08341271     1.84774763     0.00003675     0.00022922    -0.00072808
H        -0.97885415     0.03965513    -0.55745015     0.00062449    -0.00048966     0.00037426
     6
  Step:     5            Position(A)                                  Velocity(au)
C        -0.03814103     0.02314354     0.00721533    -0.00006372     0.00018211    -0.00096571
N        -0.05231762    -0.05329992     1.30622269    -0.00000808    -0.00010353     0.00091195
H         0.91968983    -0.05743044    -0.48741179     0.00041642    -0.00049317    -0.00033779
H         0.89996484    -0.10200693     1.85302577     0.00006664     0.00011027    -0.00060945
H        -0.87558357    -0.08230049     1.84411560    -0.00020074     0.00017768    -0.00058398
H        -0.97549577     0.03685357    -0.55539541     0.00058912    -0.00052617     0.00036593
     6
  Step:     6            Position(A)                                  Velocity(au)
C        -0.03849109     0.02417853     0.00161579    -0.00006211     0.00019213    -0.00105719
N        -0.05227559    -0.05386893     1.31148835     0.00002327    -0.00010265     0.00099032
H         0.92213803    -0.06024608    -0.48940455     0.00046507    -0.00052372    -0.00038185
H         0.89975649    -0.10147085     1.84939235    -0.00013686     0.00008504    -0.00070034
H        -0.87736244    -0.08145702     1.84131993    -0.00044700     0.00013057    -0.00042435
H        -0.97236994     0.03386373    -0.55342254     0.00053552    -0.00055492     0.00034223
     6
  Step:     7            Position(A)                                  Velocity(au)
C        -0.03882683     0.02526487    -0.00445719    -0.00005809     0.00019927    -0.00112860
N        -0.05206072    -0.05443325     1.31715693     0.00005367    -0.00010100     0.00105006
H         0.92482475    -0.06321290    -0.49162785     0.00049975    -0.00054431    -0.00041846
H         0.89845381    -0.10106801     1.84529322    -0.00032496     0.00006115    -0.00077137
H        -0.88051889    -0.08085890     1.83943029    -0.00069067     0.00008785    -0.00025684
H        -0.96958305     0.03072666    -0.55161685     0.00046229    -0.00057560     0.00030316
     6
  Step:     8            Position(A)                                  Velocity(au)
C        -0.03913494     0.02638695    -0.01089212    -0.00005174     0.00020339    -0.00117802
N        -0.05168081    -0.05498833     1.32312582     0.00008168    -0.00009843     0.00108979
H         0.92767660    -0.06627851    -0.49404220     0.00052092    -0.00055515    -0.00044748
H         0.89615508    -0.10079312     1.84084354    -0.00048996     0.00003816    -0.00081908
H        -0.88501696    -0.08048338     1.83847342    -0.00091936     0.00004950    -0.00008985
H        -0.96724656     0.02748452    -0.55006271     0.00036984    -0.00058833     0.00024967
     6
  Step:     9            Position(A)                                  Velocity(au)
C        -0.03940266     0.02752853    -0.01756821    -0.00004328     0.00020457    -0.00120516
N        -0.05115169    -0.05552874     1.32928598     0.00010593    -0.00009487     0.00110959
H         0.93062238    -0.06939151    -0.49660814     0.00052949    -0.00055690    -0.00046932
H         0.89300074    -0.10064335     1.83617707    -0.00062499     0.00001571    -0.00084126
H        -0.89075114    -0.08030797     1.83843025    -0.00112135     0.00001552     0.00006840
H        -0.96546683     0.02417877    -0.54883808     0.00026048    -0.00059369     0.00018375
     6
  Step:    10            Position(A)                                  Velocity(au)
C        -0.03961873     0.02867383    -0.02436424    -0.00003310     0.00020316    -0.00121176
N        -0.05049668    -0.05604888     1.33552956     0.00012535    -0.00009043     0.00111125
H         0.93359559    -0.07250387    -0.49928856     0.00052701    -0.00055083    -0.00048491
H         0.88916847    -0.10061749     1.83143935    -0.00072498    -0.00000642    -0.00083737
H        -0.89755216    -0.08030994     1.83923804    -0.00128761    -0.00001412     0.00021098
H        -0.96433473     0.02084780    -0.54800866     0.00013810    -0.00059293     0.00010829
     6
  Step:    11            Position(A)                                  Velocity(au)
C        -0.03977423     0.02980891    -0.03116936    -0.00003416     0.00031440    -0.00189103
N        -0.04974474    -0.05654376     1.34175907     0.00021930    -0.00013429     0.00172852
H         0.93653772    -0.07557422    -0.50205098     0.00081149    -0.00084806    -0.00078004
H         0.88486334    -0.10071537     1.82677818    -0.00123928    -0.00004475    -0.00127288
H        -0.90520369    -0.08046641     1.84079838    -0.00222449    -0.00006223     0.00052448
H        -0.96391679     0.01752355    -0.54762260     0.00001172    -0.00092524     0.00004200
     6
  Step:    12            Position(A)                                  Velocity(au)
C        -0.03994120     0.03153767    -0.04139582    -0.00002412     0.00029268    -0.00169832
N        -0.04848949    -0.05727714     1.35115490     0.00021776    -0.00012307     0.00156882
H         0.94132809    -0.08030339    -0.50674996     0.00086354    -0.00081279    -0.00086265
H         0.87788082    -0.10093277     1.81983966    -0.00118669    -0.00003320    -0.00114872
H        -0.91792680    -0.08083748     1.84409155    -0.00221557    -0.00006707     0.00061418
H        -0.96445593     0.01243238    -0.54798676    -0.00020004    -0.00086436    -0.00016640
     6
  Step:    13            Position(A)                                  Velocity(au)
C        -0.04004934     0.03314692    -0.05053856    -0.00001369     0.00027137    -0.00150603
N        -0.04726118    -0.05794735     1.35965135     0.00020918    -0.00011173     0.00140823
H         0.94638632    -0.08484403    -0.51188945     0.00090078    -0.00077845    -0.00093043
H         0.87132923    -0.10109402     1.81367717    -0.00108529    -0.00002478    -0.00099841
H        -0.93047210    -0.08123138     1.84780309    -0.00215468    -0.00007008     0.00066994
H        -0.96619820     0.00766554    -0.54952043    -0.00040460    -0.00080784    -0.00036441
     6
  Step:    14            Position(A)                                  Velocity(au)
C        -0.04009770     0.03463911    -0.05860775    -0.00000343     0.00025314    -0.00133108
N        -0.04609881    -0.05855402     1.36724912     0.00019615    -0.00010145     0.00126215
H         0.95162282    -0.08920001    -0.51738355     0.00093072    -0.00075219    -0.00099246
H         0.86547739    -0.10121595     1.80842916    -0.00094990    -0.00001934    -0.00083561
H        -0.94255188    -0.08163838     1.85174802    -0.00206697    -0.00007220     0.00070186
H        -0.96907999     0.00319989    -0.55215152    -0.00059876    -0.00076290    -0.00055179
     6
  Step:    15            Position(A)                                  Velocity(au)
C        -0.04008848     0.03603113    -0.06570462     0.00000639     0.00023854    -0.00117693
N        -0.04502630    -0.05910326     1.37403201     0.00017983    -0.00009251     0.00113381
H         0.95699070    -0.09341430    -0.52319730     0.00095601    -0.00073572    -0.00105315
H         0.86050631    -0.10131432     1.80415635    -0.00078720    -0.00001644    -0.00066497
H        -0.95402266    -0.08205407     1.85579994    -0.00196304    -0.00007397     0.00071653
H        -0.97302039    -0.00102683    -0.55580740    -0.00078094    -0.00073076    -0.00072985
     6
  Step:    16            Position(A)                                  Velocity(au)
C        -0.04002526     0.03734289    -0.07194802     0.00001560     0.00022686    -0.00103985
N        -0.04406052    -0.05960262     1.38010063     0.00016041    -0.00008465     0.00101976
H         0.96245902    -0.09753922    -0.52932078     0.00097484    -0.00072706    -0.00111202
H         0.85655463    -0.10140230     1.80089184    -0.00059955    -0.00001558    -0.00048673
H        -0.96480252    -0.08247685     1.85986976    -0.00184277    -0.00007549     0.00071654
H        -0.97793175    -0.00508308    -0.56042421    -0.00094756    -0.00070884    -0.00089780
     6
  Step:    17            Position(A)                                  Velocity(au)
C        -0.03991251     0.03859031    -0.07743520     0.00002398     0.00021711    -0.00091512
N        -0.04321673    -0.06005817     1.38553595     0.00013797    -0.00007751     0.00091554
H         0.96798792    -0.10161629    -0.53574202     0.00098381    -0.00072327    -0.00116646
H         0.85374277    -0.10149006     1.79866552    -0.00039009    -0.00001623    -0.00030146
H        -0.97481099    -0.08290564     1.86388323    -0.00170337    -0.00007667     0.00070278
H        -0.98370990    -0.00902326    -0.56593555    -0.00109346    -0.00069378    -0.00105287
     6
  Step:    18            Position(A)                                  Velocity(au)
C        -0.03975560     0.03978387    -0.08223680     0.00003135     0.00020853    -0.00079947
N        -0.04250935    -0.06047411     1.39039412     0.00011287    -0.00007087     0.00081804
H         0.97352016    -0.10567100    -0.54243542     0.00098011    -0.00072189    -0.00121399
H         0.85216880    -0.10158473     1.79750253    -0.00016480    -0.00001786    -0.00011164
H        -0.98395367    -0.08333887     1.86777123    -0.00154378    -0.00007743     0.00067621
H        -0.99022567    -0.01288331    -0.57226179    -0.00121365    -0.00068283    -0.00119189
     6
  Step:    19            Position(A)                                  Velocity(au)
C        -0.03956079     0.04092986    -0.08640482     0.00003754     0.00020062    -0.00069110
N        -0.04195037    -0.06085328     1.39471399     0.00008582    -0.00006459     0.00072563
H         0.97898420    -0.10971554    -0.54936239     0.00096208    -0.00072126    -0.00125303
H         0.85189375    -0.10169045     1.79741302     0.00006789    -0.00001996     0.00007870
H        -0.99213137    -0.08377441     1.87146992    -0.00136538    -0.00007772     0.00063831
H        -0.99732645    -0.01668427    -0.57930793    -0.00130460    -0.00067411    -0.00131237
     6
  Step:    20            Position(A)                                  Velocity(au)
C        -0.03933491     0.04203188    -0.08998085     0.00004250     0.00019310    -0.00058912
N        -0.04154770    -0.06119785     1.39852509     0.00005771    -0.00005863     0.00063757
H         0.98430063    -0.11375304    -0.55647615     0.00092918    -0.00072034    -0.00128286
H         0.85292954    -0.10180844     1.79838435     0.00029828    -0.00002204     0.00026477
H        -0.99925330    -0.08420979     1.87492372    -0.00117131    -0.00007752     0.00059104
H        -1.00484428    -0.02043703    -0.58696748    -0.00136457    -0.00066642    -0.00141290
     6
  Step:    21            Position(A)                                  Velocity(au)
C        -0.03908497     0.04309197    -0.09300113     0.00004621     0.00018581    -0.00049309
N        -0.04130417    -0.06150970     1.40185283     0.00002952    -0.00005297     0.00055365
H         0.98938812    -0.11778108    -0.56372644     0.00088168    -0.00071850    -0.00130342
H         0.85523361    -0.10193719     1.80037768     0.00051651    -0.00002362     0.00044179
H        -1.00524645    -0.08464239     1.87808779    -0.00096562    -0.00007683     0.00053659
H        -1.01260545    -0.02414611    -0.59512802    -0.00139345    -0.00065901    -0.00149302
     6
  Step:    22            Position(A)                                  Velocity(au)
C        -0.03881780     0.04411132    -0.09549913     0.00004874     0.00017866    -0.00040274
N        -0.04121733    -0.06179070     1.40472117     0.00000218    -0.00004765     0.00047385
H         0.99416781    -0.12179404    -0.57106313     0.00082041    -0.00071543    -0.00131508
H         0.85870998    -0.10207278     1.80332855     0.00071348    -0.00002432     0.00060537
H        -1.01005987    -0.08506960     1.88092887    -0.00075260    -0.00007567     0.00047710
H        -1.02043880    -0.02781225    -0.60367636    -0.00139243    -0.00065146    -0.00155312
     6
  Step:    23            Position(A)                                  Velocity(au)
C        -0.03853972     0.04509068    -0.09750654     0.00005020     0.00017162    -0.00031784
N        -0.04127977    -0.06204272     1.40715378    -0.00002347    -0.00004265     0.00039820
H         0.99856602    -0.12578461    -0.57843826     0.00074646    -0.00071095    -0.00131841
H         0.86321530    -0.10220926     1.80714997     0.00088153    -0.00002382     0.00075188
H        -1.01366580    -0.08548887     1.88342514    -0.00053641    -0.00007406     0.00041460
H        -1.02818258    -0.03143405    -0.61250283    -0.00136364    -0.00064354    -0.00159415
     6
  Step:    24            Position(A)                                  Velocity(au)
C        -0.03825635     0.04603061    -0.09905359     0.00005074     0.00016467    -0.00023816
N        -0.04147985    -0.06226770     1.40917428    -0.00004677    -0.00003801     0.00032670
H         1.00251554    -0.12974466    -0.58580713     0.00066110    -0.00070499    -0.00131409
H         0.86856820    -0.10233913     1.81173698     0.00101484    -0.00002189     0.00087858
H        -1.01605867    -0.08589778     1.88556540    -0.00032093    -0.00007203     0.00035092
H        -1.03568862    -0.03500906    -0.62150395    -0.00130980    -0.00063513    -0.00161741
     6
  Step:    25            Position(A)                                  Velocity(au)
C        -0.03797245     0.04693156    -0.10016902     0.00005051     0.00015779    -0.00016343
N        -0.04180261    -0.06246762     1.41080608    -0.00006718    -0.00003371     0.00025930
H         1.00595669    -0.13366590    -0.59312886     0.00056573    -0.00069757    -0.00130282
H         0.87456052    -0.10245393     1.81697191     0.00110966    -0.00001839     0.00098366
H        -1.01725357    -0.08629412     1.88734815    -0.00010969    -0.00006963     0.00028770
H        -1.04282527    -0.03853442    -0.63058437    -0.00123396    -0.00062622    -0.00162445
     6
  Step:    26            Position(A)                                  Velocity(au)
C        -0.03769192     0.04779401    -0.10087993     0.00004965     0.00015100    -0.00009334
N        -0.04223065    -0.06264445     1.41207204    -0.00008436    -0.00002976     0.00019587
H         1.00883771    -0.13754025    -0.60036657     0.00046173    -0.00068875    -0.00128530
H         0.88096899    -0.10254464     1.82272969     0.00116423    -0.00001328     0.00106622
H        -1.01728454    -0.08667592     1.88878058     0.00009406    -0.00006690     0.00022644
H        -1.04947860    -0.04200726    -0.63965777    -0.00113929    -0.00061681    -0.00161691
     6
  Step:    27            Position(A)                                  Velocity(au)
C        -0.03741785     0.04861841    -0.10121176     0.00004830     0.00014429    -0.00002761
N        -0.04274506    -0.06280011     1.41299415    -0.00009811    -0.00002615     0.00013622
H         1.01111481    -0.14136008    -0.60748721     0.00035053    -0.00067863    -0.00126220
H         0.88756632    -0.10260224     1.82888283     0.00117865    -0.00000657     0.00112619
H        -1.01620278    -0.08704148     1.88987776     0.00028742    -0.00006390     0.00016846
H        -1.05555249    -0.04542495    -0.64864719    -0.00102880    -0.00060696    -0.00159637
     6
  Step:    28            Position(A)                                  Velocity(au)
C        -0.03715261     0.04940531    -0.10118826     0.00004657     0.00013768     0.00003407
N        -0.04332620    -0.06293644     1.41359319    -0.00010833    -0.00002285     0.00008012
H         1.01275199    -0.14511841    -0.61446139     0.00023346    -0.00066732    -0.00123413
H         0.89413086    -0.10261805     1.83530572     0.00115453     0.00000163     0.00116417
H        -1.01407492    -0.08738946     1.89066179     0.00046776    -0.00006069     0.00011497
H        -1.06096708    -0.04878512    -0.65748428    -0.00090530    -0.00059671    -0.00156435
     6
  Step:    29            Position(A)                                  Velocity(au)
C        -0.03689800     0.05015526    -0.10083149     0.00004457     0.00013117     0.00009198
N        -0.04395431    -0.06305517     1.41388851    -0.00011506    -0.00001985     0.00002731
H         1.01372081    -0.14880905    -0.62126313     0.00011185    -0.00065498    -0.00120167
H         0.90045371    -0.10258401     1.84187786     0.00109462     0.00001122     0.00118128
H        -1.01098145    -0.08771892     1.89116110     0.00063270    -0.00005734     0.00006704
H        -1.06565788    -0.05208575    -0.66610914    -0.00077142    -0.00058613    -0.00152226
     6
  Step:    30            Position(A)                                  Velocity(au)
C        -0.03665528     0.05086891    -0.10016191     0.00004238     0.00012477     0.00014641
N        -0.04461003    -0.06315791     1.41389795    -0.00011838    -0.00001712    -0.00002249
H         1.01399999    -0.15242663    -0.62786957    -0.00001308    -0.00064173    -0.00116533
H         0.90634464    -0.10249287     1.84848644     0.00100253     0.00002203     0.00117902
H        -1.00701525    -0.08802929     1.89140980     0.00078012    -0.00005393     0.00002565
H        -1.06957451    -0.05532517    -0.67446964    -0.00062954    -0.00057527    -0.00147145
     6
  Step:    31            Position(A)                                  Velocity(au)
C        -0.03642527     0.05154694    -0.09919848     0.00004007     0.00011850     0.00019761
N        -0.04527470    -0.06324613     1.41363768    -0.00011845    -0.00001464    -0.00006957
H         1.01357487    -0.15596662    -0.63426061    -0.00014018    -0.00062774    -0.00112558
H         0.91163543    -0.10233835     1.85502798     0.00088234     0.00003388     0.00115910
H        -1.00228038    -0.08832045     1.89144717     0.00090810    -0.00005053    -0.00000831
H        -1.07267948    -0.05850206    -0.68252093    -0.00048184    -0.00056419    -0.00141312
     6
  Step:    32            Position(A)                                  Velocity(au)
C        -0.03620848     0.05219009    -0.09795874     0.00003769     0.00011236     0.00024580
N        -0.04593061    -0.06332116     1.41312226    -0.00011543    -0.00001239    -0.00011422
H         1.01243714    -0.15942540    -0.64041870    -0.00026832    -0.00061315    -0.00108283
H         0.91618196    -0.10211515     1.86140937     0.00073845     0.00004660     0.00112343
H        -0.99689078    -0.08859270     1.89131715     0.00101496    -0.00004722    -0.00003405
H        -1.07494655    -0.06161540    -0.69022458    -0.00033019    -0.00055293    -0.00134833
     6
  Step:    33            Position(A)                                  Velocity(au)
C        -0.03600518     0.05279917    -0.09645902     0.00003528     0.00010636     0.00029119
N        -0.04656119    -0.06338422     1.41236472    -0.00010955    -0.00001034    -0.00015669
H         1.01058446    -0.16280015    -0.64632860    -0.00039645    -0.00059811    -0.00103746
H         0.91986539    -0.10181901     1.86754854     0.00057542     0.00006000     0.00107400
H        -0.99096873    -0.08884676     1.89106767     0.00109933    -0.00004407    -0.00005092
H        -1.07635942    -0.06466439    -0.69754788    -0.00017630    -0.00054151    -0.00127804
     6
  Step:    34            Position(A)                                  Velocity(au)
C        -0.03581545     0.05337502    -0.09471458     0.00003285     0.00010050     0.00033393
N        -0.04715117    -0.06343636     1.41137660    -0.00010105    -0.00000847    -0.00019721
H         1.00802025    -0.16608891    -0.65197712    -0.00052354    -0.00058274    -0.00098983
H         0.92259273    -0.10144669     1.87337478     0.00039782     0.00007390     0.00101279
H        -0.98464308    -0.08908372     1.89074988     0.00116019    -0.00004114    -0.00005842
H        -1.07691066    -0.06764842    -0.70446321    -0.00002165    -0.00052996    -0.00120308
     6
  Step:    35            Position(A)                                  Velocity(au)
C        -0.03563931     0.05391855    -0.09273984     0.00003042     0.00009481     0.00037414
N        -0.04768669    -0.06347854     1.41016822    -0.00009019    -0.00000676    -0.00023599
H         1.00475344    -0.16929045    -0.65735298    -0.00064858    -0.00056717    -0.00094025
H         0.92429620    -0.10099595     1.87882863     0.00021010     0.00008812     0.00094179
H        -0.97804699    -0.08930500     1.89041705     0.00119695    -0.00003849    -0.00005628
H        -1.07660058    -0.07056694    -0.71094734     0.00013240    -0.00051828    -0.00112419
     6
  Step:    36            Position(A)                                  Velocity(au)
C        -0.03547673     0.05443070    -0.09054856     0.00002799     0.00008928     0.00041191
N        -0.04815547    -0.06351162     1.40874891    -0.00007726    -0.00000520    -0.00027315
H         1.00079844    -0.17240428    -0.66244664    -0.00077055    -0.00055154    -0.00088901
H         0.92493212    -0.10046547     1.88386147     0.00001646     0.00010250     0.00086288
H        -0.97131522    -0.08951230     1.89012324     0.00120956    -0.00003615    -0.00004448
H        -1.07543639    -0.07341942    -0.71698085     0.00028463    -0.00050647    -0.00104201
     6
  Step:    37            Position(A)                                  Velocity(au)
C        -0.03532769     0.05491246    -0.08815409     0.00002556     0.00008392     0.00044728
N        -0.04854685    -0.06353638     1.40712732    -0.00006257    -0.00000377    -0.00030877
H         0.99617508    -0.17543059    -0.66725018    -0.00088843    -0.00053594    -0.00083641
H         0.92447942    -0.09985482     1.88843495    -0.00017910     0.00011688     0.00077788
H        -0.96458119    -0.08970746     1.88992182     0.00119851    -0.00003415    -0.00002331
H        -1.07343180    -0.07620532    -0.72254782     0.00043386    -0.00049450    -0.00095715
     6
  Step:    38            Position(A)                                  Velocity(au)
C        -0.03519215     0.05536489    -0.08556956     0.00002314     0.00007875     0.00048025
N        -0.04885199    -0.06355353     1.40531174    -0.00004646    -0.00000246    -0.00034289
H         0.99090866    -0.17837019    -0.67175731    -0.00100120    -0.00052049    -0.00078273
H         0.92293846    -0.09916442     1.89252062    -0.00037272     0.00013110     0.00068856
H        -0.95797372    -0.08989239     1.88986373     0.00116489    -0.00003248     0.00000664
H        -1.07060677    -0.07892401    -0.72763557     0.00057893    -0.00048236    -0.00087019
     6
  Step:    39            Position(A)                                  Velocity(au)
C        -0.03507014     0.05578910    -0.08280816     0.00002070     0.00007378     0.00051076
N        -0.04906402    -0.06356377     1.40331042    -0.00002931    -0.00000128    -0.00037545
H         0.98503010    -0.18122453    -0.67596329    -0.00110778    -0.00050530    -0.00072828
H         0.92033038    -0.09839547     1.89609976    -0.00056069     0.00014502     0.00059668
H        -0.95161404    -0.09006901     1.88999576     0.00111036    -0.00003114     0.00004446
H        -1.06698734    -0.08157478    -0.73223452     0.00071870    -0.00047004    -0.00078170
     6
  Step:    40            Position(A)                                  Velocity(au)
C        -0.03496171     0.05618630    -0.07988335     0.00001825     0.00006903     0.00053875
N        -0.04917827    -0.06356775     1.40113192    -0.00001154    -0.00000021    -0.00040637
H         0.97857598    -0.18399563    -0.67986506    -0.00120710    -0.00049048    -0.00067336
H         0.91669643    -0.09754998     1.89916331    -0.00073938     0.00015848     0.00050399
H        -0.94561229    -0.09023908     1.89035868     0.00103725    -0.00003009     0.00008885
H        -1.06260560    -0.08415684    -0.73633811     0.00085204    -0.00045752    -0.00069225
     6
  Step:    41            Position(A)                                  Velocity(au)
C        -0.03486692     0.05655777    -0.07680902     0.00001578     0.00006451     0.00056412
N        -0.04919246    -0.06356615     1.39878542     0.00000641     0.00000073    -0.00043549
H         0.97158870    -0.18668615    -0.68346135    -0.00129810    -0.00047614    -0.00061834
H         0.91209720    -0.09663071     1.90171179    -0.00090534     0.00017136     0.00041225
H        -0.94006402    -0.09040412     1.89098516     0.00094849    -0.00002929     0.00013819
H        -1.05749971    -0.08666934    -0.73994287     0.00097780    -0.00044479    -0.00060243
     6
  Step:    42            Position(A)                                  Velocity(au)
C        -0.03478590     0.05690493    -0.07359966     0.00001330     0.00006026     0.00058673
N        -0.04910688    -0.06355966     1.39628102     0.00002405     0.00000154    -0.00046262
H         0.96411640    -0.18929936    -0.68675276    -0.00137973    -0.00046240    -0.00056358
H         0.90661184    -0.09564115     1.90375532    -0.00105528     0.00018352     0.00032320
H        -0.93504707    -0.09056530     1.89189793     0.00084753    -0.00002865     0.00019051
H        -1.05171390    -0.08911141    -0.74304855     0.00109486    -0.00043187    -0.00051286
     6
  Step:    43            Position(A)                                  Velocity(au)
C        -0.03471876     0.05722930    -0.07027046     0.00001079     0.00005629     0.00060645
N        -0.04892448    -0.06354903     1.39362993     0.00004089     0.00000221    -0.00048754
H         0.95621278    -0.19183921    -0.68974201    -0.00145101    -0.00044939    -0.00050951
H         0.90033702    -0.09458548     1.90531361    -0.00118616     0.00019485     0.00023859
H        -0.93061901    -0.09072339     1.89310827     0.00073822    -0.00002810     0.00024367
H        -1.04529845    -0.09148222    -0.74565829     0.00120213    -0.00041879    -0.00042422
     6
  Step:    44            Position(A)                                  Velocity(au)
C        -0.03466560     0.05753257    -0.06683736     0.00000827     0.00005263     0.00062318
N        -0.04865092    -0.06353504     1.39084466     0.00005646     0.00000273    -0.00051003
H         0.94793675    -0.19431034    -0.69243405    -0.00151111    -0.00043726    -0.00045655
H         0.89338547    -0.09346845     1.90641578    -0.00129526     0.00020524     0.00016011
H        -0.92681551    -0.09087867     1.89461496     0.00062461    -0.00002756     0.00029535
H        -1.03830944    -0.09378112    -0.74777886     0.00129861    -0.00040558    -0.00033720
     6