|===============================================================================
|
|  DFTB+ release 20.1
|
|  Copyright (C) 2006 - 2020  DFTB+ developers group
|
|===============================================================================
|
|  When publishing results obtained with DFTB+, please cite the following
|  reference:
|
|  * DFTB+, a software package for efficient approximate density functional
|    theory based atomistic simulations, J. Chem. Phys. 152, 124101 (2020).
|    [doi: 10.1063/1.5143190]
|
|  You should also cite additional publications crediting the parametrization
|  data you use. Please consult the documentation of the SK-files for the
|  references.
|
|===============================================================================

Reading input file 'dftb_in.hsd'
Parser version: 8

--------------------------------------------------------------------------------
Reading SK-files:
Done.


Processed input in HSD format written to 'dftb_pin.hsd'

Starting initialization...
--------------------------------------------------------------------------------
OpenMP threads:              1
Chosen random seed:          500406887
Mode:                        Static calculation
Self consistent charges:     Yes
SCC-tolerance:                 0.100000E-05
Max. scc iterations:                   1000
Shell resolved Hubbard:      No
Spin polarisation:           No
Nr. of up electrons:            16.000000
Nr. of down electrons:          16.000000
Periodic boundaries:         No
Electronic solver:           Relatively robust
Maximal SCC-cycles:                    1000
Initial charges:             Set automatically (system chrg:   0.100E+01)
Included shells:             C:  s, p
                             H:  s
                             N:  s, p
Spin coupling constants:     C   1(s)-1(s):  -0.455900E-01
                             C   1(s)-2(p):  -0.293000E-01
                             C   2(p)-1(s):  -0.293000E-01
                             C   2(p)-2(p):  -0.275500E-01
                             H   1(s)-1(s):  -0.792500E-01
                             N   1(s)-1(s):  -0.468700E-01
                             N   1(s)-2(p):  -0.317000E-01
                             N   2(p)-1(s):  -0.317000E-01
                             N   2(p)-2(p):  -0.307200E-01
Range separated hybrid:      Yes
  Screening parameter omega:   0.300000E+00
  Range separated algorithm:   MatrixBased
Extra options:
                             Mulliken analysis
                             Force calculation
Force type                   original
                             Eigenvector printing


REKS Calcuation:             Yes
SSR(2,2) Calcuation:         Yes
Energy Functional:           (PPS+OSS)/2
Number of Core Orbitals:                 15
Number of Active Orbitals:                2
Number of Basis:                         32
Number of States:                         2
State-Averaging Weight:          0.500000
                                 0.500000
State of Interest:                        1
Initial Guess:               Diagonalize H0 matrix
Newton-Raphson for FON opt:  Yes
NR max. Iterations:                      50
Level Shifting:              Yes
Shift Value:                     0.300000
W Scale Factor:              C  =    3.200000
                             H  =    3.200000
                             N  =    3.200000
Transition Dipole:           No
Gradient of Microstate:      No
CP-REKS Solver:              Preconditioned Conjugate-Gradient
CG max. Iterations:                     100
CG Tolerance:                  0.100000E-07
Memory for A and Hxc:        Direct Updating Without Saving
Non-Adiabatic Coupling:      Yes

--------------------------------------------------------------------------------

***  Geometry step: 0

  iSCC       reks energy        Diff energy         x_a       SCC error   
    1      -16.3928533670       0.0000000000     0.998426    1.24003827
    2      -16.4125745454      -0.0197211785     0.999600    0.04976380
    3      -16.4169874196      -0.0044128742     0.999839    0.01892586
    4      -16.4184275632      -0.0014401436     0.999908    0.00901448
    5      -16.4190045395      -0.0005769763     0.999936    0.00495886
    6      -16.4192680574      -0.0002635178     0.999949    0.00277970
    7      -16.4194009111      -0.0001328537     0.999957    0.00190914
    8      -16.4194734809      -0.0000725698     0.999962    0.00142583
    9      -16.4195160304      -0.0000425495     0.999964    0.00108974
   10      -16.4195427396      -0.0000267093     0.999966    0.00086687
   11      -16.4195606948      -0.0000179552     0.999968    0.00071733
   12      -16.4195736116      -0.0000129168     0.999969    0.00059847
   13      -16.4195835126      -0.0000099010     0.999969    0.00050298
   14      -16.4195915336      -0.0000080210     0.999970    0.00043199
   15      -16.4195983300      -0.0000067964     0.999970    0.00040489
   16      -16.4196042902      -0.0000059602     0.999970    0.00038599
   17      -16.4196096503      -0.0000053602     0.999971    0.00036939
   18      -16.4196145581      -0.0000049078     0.999971    0.00035462
   19      -16.4196191085      -0.0000045504     0.999971    0.00034132
   20      -16.4196233648      -0.0000042563     0.999971    0.00032923
   21      -16.4196273704      -0.0000040056     0.999971    0.00031815
   22      -16.4196311565      -0.0000037861     0.999971    0.00030793
   23      -16.4196347462      -0.0000035897     0.999971    0.00029843
   24      -16.4196381574      -0.0000034112     0.999971    0.00028955
   25      -16.4196414045      -0.0000032471     0.999972    0.00028121
   26      -16.4196444994      -0.0000030949     0.999972    0.00027335
   27      -16.4196474522      -0.0000029528     0.999972    0.00026589
   28      -16.4196502718      -0.0000028196     0.999972    0.00025881
   29      -16.4196529662      -0.0000026944     0.999972    0.00025205
   30      -16.4196555424      -0.0000025762     0.999972    0.00024560
   31      -16.4196580070      -0.0000024646     0.999972    0.00023941
   32      -16.4196603659      -0.0000023590     0.999972    0.00023348
   33      -16.4196626248      -0.0000022589     0.999972    0.00022777
   34      -16.4196647888      -0.0000021640     0.999972    0.00022228
   35      -16.4196668627      -0.0000020739     0.999972    0.00021698
   36      -16.4196688510      -0.0000019883     0.999972    0.00021187
   37      -16.4196707581      -0.0000019070     0.999972    0.00020694
   38      -16.4196725878      -0.0000018297     0.999972    0.00020217
   39      -16.4196743440      -0.0000017562     0.999972    0.00019756
   40      -16.4196760302      -0.0000016862     0.999972    0.00019309
   41      -16.4196776498      -0.0000016196     0.999972    0.00018882
   42      -16.4196792059      -0.0000015561     0.999972    0.00018502
   43      -16.4196807015      -0.0000014956     0.999972    0.00018132
   44      -16.4196821394      -0.0000014379     0.999972    0.00017771
   45      -16.4196835224      -0.0000013829     0.999972    0.00017420
   46      -16.4196848528      -0.0000013305     0.999972    0.00017077
   47      -16.4196861332      -0.0000012804     0.999972    0.00016743
   48      -16.4196873657      -0.0000012326     0.999972    0.00016418
   49      -16.4196885526      -0.0000011869     0.999972    0.00016101
   50      -16.4196896959      -0.0000011433     0.999972    0.00015793
   51      -16.4196907975      -0.0000011016     0.999972    0.00015493
   52      -16.4196918592      -0.0000010617     0.999972    0.00015200
   53      -16.4196928828      -0.0000010236     0.999972    0.00014915
   54      -16.4196938699      -0.0000009871     0.999973    0.00014637
   55      -16.4196948221      -0.0000009522     0.999973    0.00014366
   56      -16.4196957410      -0.0000009188     0.999973    0.00014103
   57      -16.4196966278      -0.0000008868     0.999973    0.00013846
   58      -16.4196974839      -0.0000008562     0.999973    0.00013595
   59      -16.4196983108      -0.0000008268     0.999973    0.00013351
   60      -16.4196991094      -0.0000007987     0.999973    0.00013113
   61      -16.4196998811      -0.0000007717     0.999973    0.00012880
   62      -16.4197006269      -0.0000007458     0.999973    0.00012654
   63      -16.4197013479      -0.0000007210     0.999973    0.00012433
   64      -16.4197020450      -0.0000006971     0.999973    0.00012217
   65      -16.4197027193      -0.0000006743     0.999973    0.00012007
   66      -16.4197033716      -0.0000006523     0.999973    0.00011802
   67      -16.4197040028      -0.0000006312     0.999973    0.00011602
   68      -16.4197046138      -0.0000006110     0.999973    0.00011406
   69      -16.4197052053      -0.0000005915     0.999973    0.00011215
   70      -16.4197057780      -0.0000005728     0.999973    0.00011029
   71      -16.4197063328      -0.0000005548     0.999973    0.00010847
   72      -16.4197068703      -0.0000005375     0.999973    0.00010669
   73      -16.4197073911      -0.0000005208     0.999973    0.00010496
   74      -16.4197078959      -0.0000005048     0.999973    0.00010326
   75      -16.4197083853      -0.0000004894     0.999973    0.00010160
   76      -16.4197088598      -0.0000004745     0.999973    0.00009998
   77      -16.4197093200      -0.0000004602     0.999973    0.00009840
   78      -16.4197097665      -0.0000004465     0.999973    0.00009685
   79      -16.4197101997      -0.0000004332     0.999973    0.00009534
   80      -16.4197106201      -0.0000004204     0.999973    0.00009386
   81      -16.4197110281      -0.0000004081     0.999973    0.00009242
   82      -16.4197114243      -0.0000003962     0.999973    0.00009100
   83      -16.4197118091      -0.0000003847     0.999973    0.00008962
   84      -16.4197121827      -0.0000003737     0.999973    0.00008826
   85      -16.4197125457      -0.0000003630     0.999973    0.00008694
   86      -16.4197128984      -0.0000003527     0.999973    0.00008564
   87      -16.4197132412      -0.0000003428     0.999973    0.00008437
   88      -16.4197135743      -0.0000003332     0.999973    0.00008313
   89      -16.4197138982      -0.0000003239     0.999973    0.00008192
   90      -16.4197142131      -0.0000003149     0.999973    0.00008073
   91      -16.4197145194      -0.0000003063     0.999973    0.00007956
   92      -16.4197148173      -0.0000002979     0.999973    0.00007842
   93      -16.4197151072      -0.0000002898     0.999973    0.00007730
   94      -16.4197153892      -0.0000002820     0.999973    0.00007621
   95      -16.4197156637      -0.0000002745     0.999973    0.00007514
   96      -16.4197159309      -0.0000002672     0.999973    0.00007408
   97      -16.4197161910      -0.0000002601     0.999973    0.00007305
   98      -16.4197164443      -0.0000002533     0.999973    0.00007205
   99      -16.4197166909      -0.0000002467     0.999973    0.00007106
  100      -16.4197169312      -0.0000002402     0.999973    0.00007010
  101      -16.4197171652      -0.0000002340     0.999974    0.00006922
  102      -16.4197173932      -0.0000002280     0.999974    0.00006835
  103      -16.4197176155      -0.0000002222     0.999974    0.00006750
  104      -16.4197178321      -0.0000002166     0.999974    0.00006667
  105      -16.4197180432      -0.0000002111     0.999974    0.00006584
  106      -16.4197182490      -0.0000002058     0.999974    0.00006504
  107      -16.4197184498      -0.0000002007     0.999974    0.00006425
  108      -16.4197186455      -0.0000001957     0.999974    0.00006347
  109      -16.4197188364      -0.0000001909     0.999974    0.00006271
  110      -16.4197190227      -0.0000001863     0.999974    0.00006195
  111      -16.4197192044      -0.0000001817     0.999974    0.00006122
  112      -16.4197193817      -0.0000001773     0.999974    0.00006049
  113      -16.4197195548      -0.0000001731     0.999974    0.00005978
  114      -16.4197197237      -0.0000001689     0.999974    0.00005908
  115      -16.4197198886      -0.0000001649     0.999974    0.00005839
  116      -16.4197200496      -0.0000001610     0.999974    0.00005771
  117      -16.4197202068      -0.0000001572     0.999974    0.00005705
  118      -16.4197203604      -0.0000001535     0.999974    0.00005639
  119      -16.4197205103      -0.0000001500     0.999974    0.00005575
  120      -16.4197206568      -0.0000001465     0.999974    0.00005511
  121      -16.4197208000      -0.0000001431     0.999974    0.00005449
  122      -16.4197209398      -0.0000001398     0.999974    0.00005388
  123      -16.4197210765      -0.0000001367     0.999974    0.00005328
  124      -16.4197212100      -0.0000001336     0.999974    0.00005268
  125      -16.4197213406      -0.0000001306     0.999974    0.00005210
  126      -16.4197214682      -0.0000001276     0.999974    0.00005153
  127      -16.4197215930      -0.0000001248     0.999974    0.00005096
  128      -16.4197217151      -0.0000001220     0.999974    0.00005041
  129      -16.4197218344      -0.0000001193     0.999974    0.00004986
  130      -16.4197219512      -0.0000001167     0.999974    0.00004932
  131      -16.4197220653      -0.0000001142     0.999974    0.00004879
  132      -16.4197221770      -0.0000001117     0.999974    0.00004827
  133      -16.4197222863      -0.0000001093     0.999974    0.00004776
  134      -16.4197223933      -0.0000001069     0.999974    0.00004725
  135      -16.4197224979      -0.0000001047     0.999974    0.00004675
  136      -16.4197226004      -0.0000001024     0.999974    0.00004626
  137      -16.4197227006      -0.0000001003     0.999974    0.00004578
  138      -16.4197227988      -0.0000000982     0.999974    0.00004531
  139      -16.4197228949      -0.0000000961     0.999974    0.00004484
  140      -16.4197229890      -0.0000000941     0.999974    0.00004438
  141      -16.4197230811      -0.0000000921     0.999974    0.00004392
  142      -16.4197231714      -0.0000000902     0.999974    0.00004348
  143      -16.4197232598      -0.0000000884     0.999974    0.00004304
  144      -16.4197233464      -0.0000000866     0.999974    0.00004260
  145      -16.4197234312      -0.0000000848     0.999974    0.00004217
  146      -16.4197235143      -0.0000000831     0.999974    0.00004175
  147      -16.4197235958      -0.0000000814     0.999974    0.00004134
  148      -16.4197236756      -0.0000000798     0.999974    0.00004093
  149      -16.4197237538      -0.0000000782     0.999974    0.00004052
  150      -16.4197238304      -0.0000000767     0.999974    0.00004013
  151      -16.4197239056      -0.0000000752     0.999974    0.00003973
  152      -16.4197239793      -0.0000000737     0.999974    0.00003935
  153      -16.4197240515      -0.0000000722     0.999974    0.00003897
  154      -16.4197241223      -0.0000000708     0.999974    0.00003859
  155      -16.4197241918      -0.0000000695     0.999974    0.00003822
  156      -16.4197242599      -0.0000000681     0.999974    0.00003786
  157      -16.4197243267      -0.0000000668     0.999974    0.00003750
  158      -16.4197243922      -0.0000000655     0.999974    0.00003714
  159      -16.4197244565      -0.0000000643     0.999974    0.00003679
  160      -16.4197245196      -0.0000000631     0.999974    0.00003645
  161      -16.4197245815      -0.0000000619     0.999974    0.00003611
  162      -16.4197246422      -0.0000000607     0.999974    0.00003577
  163      -16.4197247018      -0.0000000596     0.999974    0.00003544
  164      -16.4197247602      -0.0000000585     0.999974    0.00003512
  165      -16.4197248176      -0.0000000574     0.999974    0.00003479
  166      -16.4197248740      -0.0000000563     0.999974    0.00003448
  167      -16.4197249293      -0.0000000553     0.999974    0.00003416
  168      -16.4197249835      -0.0000000543     0.999974    0.00003385
  169      -16.4197250368      -0.0000000533     0.999974    0.00003355
  170      -16.4197250892      -0.0000000523     0.999974    0.00003325
  171      -16.4197251406      -0.0000000514     0.999974    0.00003295
  172      -16.4197251910      -0.0000000505     0.999974    0.00003266
  173      -16.4197252406      -0.0000000496     0.999974    0.00003237
  174      -16.4197252893      -0.0000000487     0.999974    0.00003208
  175      -16.4197253371      -0.0000000478     0.999974    0.00003180
  176      -16.4197253841      -0.0000000470     0.999974    0.00003152
  177      -16.4197254302      -0.0000000462     0.999974    0.00003125
  178      -16.4197254756      -0.0000000453     0.999974    0.00003097
  179      -16.4197255201      -0.0000000446     0.999974    0.00003071
  180      -16.4197255639      -0.0000000438     0.999974    0.00003044
  181      -16.4197256069      -0.0000000430     0.999974    0.00003018
  182      -16.4197256492      -0.0000000423     0.999974    0.00002992
  183      -16.4197256908      -0.0000000416     0.999974    0.00002967
  184      -16.4197257316      -0.0000000408     0.999974    0.00002942
  185      -16.4197257718      -0.0000000402     0.999974    0.00002917
  186      -16.4197258113      -0.0000000395     0.999974    0.00002892
  187      -16.4197258501      -0.0000000388     0.999974    0.00002868
  188      -16.4197258882      -0.0000000382     0.999975    0.00002844
  189      -16.4197259258      -0.0000000375     0.999975    0.00002821
  190      -16.4197259627      -0.0000000369     0.999975    0.00002797
  191      -16.4197259989      -0.0000000363     0.999975    0.00002774
  192      -16.4197260346      -0.0000000357     0.999975    0.00002751
  193      -16.4197260697      -0.0000000351     0.999975    0.00002729
  194      -16.4197261042      -0.0000000345     0.999975    0.00002707
  195      -16.4197261382      -0.0000000340     0.999975    0.00002685
  196      -16.4197261716      -0.0000000334     0.999975    0.00002663
  197      -16.4197262045      -0.0000000329     0.999975    0.00002642
  198      -16.4197262368      -0.0000000323     0.999975    0.00002620
  199      -16.4197262686      -0.0000000318     0.999975    0.00002599
  200      -16.4197262999      -0.0000000313     0.999975    0.00002579
  201      -16.4197263307      -0.0000000308     0.999975    0.00002558
  202      -16.4197263610      -0.0000000303     0.999975    0.00002538
  203      -16.4197263909      -0.0000000298     0.999975    0.00002518
  204      -16.4197264202      -0.0000000294     0.999975    0.00002498
  205      -16.4197264492      -0.0000000289     0.999975    0.00002479
  206      -16.4197264776      -0.0000000285     0.999975    0.00002460
  207      -16.4197265056      -0.0000000280     0.999975    0.00002441
  208      -16.4197265332      -0.0000000276     0.999975    0.00002422
  209      -16.4197265603      -0.0000000271     0.999975    0.00002403
  210      -16.4197265871      -0.0000000267     0.999975    0.00002385
  211      -16.4197266134      -0.0000000263     0.999975    0.00002366
  212      -16.4197266393      -0.0000000259     0.999975    0.00002348
  213      -16.4197266648      -0.0000000255     0.999975    0.00002331
  214      -16.4197266900      -0.0000000251     0.999975    0.00002313
  215      -16.4197267147      -0.0000000248     0.999975    0.00002296
  216      -16.4197267391      -0.0000000244     0.999975    0.00002278
  217      -16.4197267631      -0.0000000240     0.999975    0.00002261
  218      -16.4197267868      -0.0000000237     0.999975    0.00002244
  219      -16.4197268101      -0.0000000233     0.999975    0.00002228
  220      -16.4197268330      -0.0000000230     0.999975    0.00002211
  221      -16.4197268556      -0.0000000226     0.999975    0.00002195
  222      -16.4197268779      -0.0000000223     0.999975    0.00002179
  223      -16.4197268999      -0.0000000220     0.999975    0.00002163
  224      -16.4197269215      -0.0000000216     0.999975    0.00002147
  225      -16.4197269428      -0.0000000213     0.999975    0.00002132
  226      -16.4197269638      -0.0000000210     0.999975    0.00002116
  227      -16.4197269845      -0.0000000207     0.999975    0.00002101
  228      -16.4197270049      -0.0000000204     0.999975    0.00002086
  229      -16.4197270251      -0.0000000201     0.999975    0.00002071
  230      -16.4197270449      -0.0000000198     0.999975    0.00002056
  231      -16.4197270644      -0.0000000195     0.999975    0.00002041
  232      -16.4197270837      -0.0000000193     0.999975    0.00002027
  233      -16.4197271027      -0.0000000190     0.999975    0.00002013
  234      -16.4197271214      -0.0000000187     0.999975    0.00001998
  235      -16.4197271398      -0.0000000185     0.999975    0.00001984
  236      -16.4197271580      -0.0000000182     0.999975    0.00001970
  237      -16.4197271760      -0.0000000179     0.999975    0.00001957
  238      -16.4197271937      -0.0000000177     0.999975    0.00001943
  239      -16.4197272111      -0.0000000174     0.999975    0.00001930
  240      -16.4197272283      -0.0000000172     0.999975    0.00001916
  241      -16.4197272453      -0.0000000170     0.999975    0.00001903
  242      -16.4197272620      -0.0000000167     0.999975    0.00001890
  243      -16.4197272785      -0.0000000165     0.999975    0.00001877
  244      -16.4197272948      -0.0000000163     0.999975    0.00001864
  245      -16.4197273108      -0.0000000161     0.999975    0.00001852
  246      -16.4197273267      -0.0000000158     0.999975    0.00001839
  247      -16.4197273423      -0.0000000156     0.999975    0.00001827
  248      -16.4197273577      -0.0000000154     0.999975    0.00001814
  249      -16.4197273729      -0.0000000152     0.999975    0.00001802
  250      -16.4197273879      -0.0000000150     0.999975    0.00001790
  251      -16.4197274027      -0.0000000148     0.999975    0.00001778
  252      -16.4197274173      -0.0000000146     0.999975    0.00001766
  253      -16.4197274317      -0.0000000144     0.999975    0.00001755
  254      -16.4197274459      -0.0000000142     0.999975    0.00001743
  255      -16.4197274600      -0.0000000140     0.999975    0.00001732
  256      -16.4197274738      -0.0000000138     0.999975    0.00001720
  257      -16.4197274875      -0.0000000137     0.999975    0.00001709
  258      -16.4197275010      -0.0000000135     0.999975    0.00001698
  259      -16.4197275143      -0.0000000133     0.999975    0.00001687
  260      -16.4197275274      -0.0000000131     0.999975    0.00001676
  261      -16.4197275404      -0.0000000130     0.999975    0.00001665
  262      -16.4197275532      -0.0000000128     0.999975    0.00001654
  263      -16.4197275658      -0.0000000126     0.999975    0.00001644
  264      -16.4197275783      -0.0000000125     0.999975    0.00001633
  265      -16.4197275906      -0.0000000123     0.999975    0.00001623
  266      -16.4197276027      -0.0000000122     0.999975    0.00001613
  267      -16.4197276147      -0.0000000120     0.999975    0.00001602
  268      -16.4197276266      -0.0000000118     0.999975    0.00001592
  269      -16.4197276383      -0.0000000117     0.999975    0.00001582
  270      -16.4197276498      -0.0000000116     0.999975    0.00001572
  271      -16.4197276612      -0.0000000114     0.999975    0.00001562
  272      -16.4197276725      -0.0000000113     0.999975    0.00001553
  273      -16.4197276836      -0.0000000111     0.999975    0.00001543
  274      -16.4197276946      -0.0000000110     0.999975    0.00001533
  275      -16.4197277055      -0.0000000108     0.999975    0.00001524
  276      -16.4197277162      -0.0000000107     0.999975    0.00001515
  277      -16.4197277268      -0.0000000106     0.999975    0.00001505
  278      -16.4197277372      -0.0000000105     0.999975    0.00001496
  279      -16.4197277475      -0.0000000103     0.999975    0.00001487
  280      -16.4197277577      -0.0000000102     0.999975    0.00001478
  281      -16.4197277678      -0.0000000101     0.999975    0.00001469
  282      -16.4197277778      -0.0000000100     0.999975    0.00001460
  283      -16.4197277876      -0.0000000098     0.999975    0.00001451
  284      -16.4197277973      -0.0000000097     0.999975    0.00001442
  285      -16.4197278069      -0.0000000096     0.999975    0.00001434
  286      -16.4197278164      -0.0000000095     0.999975    0.00001425
  287      -16.4197278257      -0.0000000094     0.999975    0.00001417
  288      -16.4197278350      -0.0000000093     0.999975    0.00001408
  289      -16.4197278441      -0.0000000091     0.999975    0.00001400
  290      -16.4197278532      -0.0000000090     0.999975    0.00001391
  291      -16.4197278621      -0.0000000089     0.999975    0.00001383
  292      -16.4197278709      -0.0000000088     0.999975    0.00001375
  293      -16.4197278796      -0.0000000087     0.999975    0.00001367
  294      -16.4197278883      -0.0000000086     0.999975    0.00001359
  295      -16.4197278968      -0.0000000085     0.999975    0.00001351
  296      -16.4197279052      -0.0000000084     0.999975    0.00001343
  297      -16.4197279135      -0.0000000083     0.999975    0.00001335
  298      -16.4197279217      -0.0000000082     0.999975    0.00001328
  299      -16.4197279299      -0.0000000081     0.999975    0.00001320
  300      -16.4197279379      -0.0000000080     0.999975    0.00001312
  301      -16.4197279458      -0.0000000079     0.999975    0.00001305
  302      -16.4197279537      -0.0000000078     0.999975    0.00001297
  303      -16.4197279614      -0.0000000078     0.999975    0.00001290
  304      -16.4197279691      -0.0000000077     0.999975    0.00001283
  305      -16.4197279767      -0.0000000076     0.999975    0.00001275
  306      -16.4197279842      -0.0000000075     0.999975    0.00001268
  307      -16.4197279916      -0.0000000074     0.999975    0.00001261
  308      -16.4197279989      -0.0000000073     0.999975    0.00001254
  309      -16.4197280062      -0.0000000072     0.999975    0.00001247
  310      -16.4197280133      -0.0000000072     0.999975    0.00001240
  311      -16.4197280204      -0.0000000071     0.999975    0.00001233
  312      -16.4197280274      -0.0000000070     0.999975    0.00001226
  313      -16.4197280344      -0.0000000069     0.999975    0.00001219
  314      -16.4197280412      -0.0000000069     0.999975    0.00001212
  315      -16.4197280480      -0.0000000068     0.999975    0.00001206
  316      -16.4197280547      -0.0000000067     0.999975    0.00001199
  317      -16.4197280613      -0.0000000066     0.999975    0.00001192
  318      -16.4197280679      -0.0000000066     0.999975    0.00001186
  319      -16.4197280743      -0.0000000065     0.999975    0.00001179
  320      -16.4197280807      -0.0000000064     0.999975    0.00001173
  321      -16.4197280871      -0.0000000063     0.999975    0.00001166
  322      -16.4197280934      -0.0000000063     0.999975    0.00001160
  323      -16.4197280996      -0.0000000062     0.999975    0.00001154
  324      -16.4197281057      -0.0000000061     0.999975    0.00001148
  325      -16.4197281118      -0.0000000061     0.999975    0.00001141
  326      -16.4197281178      -0.0000000060     0.999975    0.00001135
  327      -16.4197281237      -0.0000000059     0.999975    0.00001129
  328      -16.4197281296      -0.0000000059     0.999975    0.00001123
  329      -16.4197281354      -0.0000000058     0.999975    0.00001117
  330      -16.4197281412      -0.0000000058     0.999975    0.00001111
  331      -16.4197281468      -0.0000000057     0.999975    0.00001105
  332      -16.4197281525      -0.0000000056     0.999975    0.00001099
  333      -16.4197281580      -0.0000000056     0.999975    0.00001094
  334      -16.4197281636      -0.0000000055     0.999975    0.00001088
  335      -16.4197281690      -0.0000000055     0.999975    0.00001082
  336      -16.4197281744      -0.0000000054     0.999975    0.00001076
  337      -16.4197281797      -0.0000000053     0.999975    0.00001071
  338      -16.4197281850      -0.0000000053     0.999975    0.00001065
  339      -16.4197281903      -0.0000000052     0.999975    0.00001060
  340      -16.4197281954      -0.0000000052     0.999975    0.00001054
  341      -16.4197282006      -0.0000000051     0.999975    0.00001049
  342      -16.4197282056      -0.0000000051     0.999975    0.00001043
  343      -16.4197282106      -0.0000000050     0.999975    0.00001038
  344      -16.4197282156      -0.0000000050     0.999975    0.00001033
  345      -16.4197282205      -0.0000000049     0.999975    0.00001027
  346      -16.4197282254      -0.0000000049     0.999975    0.00001022
  347      -16.4197282302      -0.0000000048     0.999975    0.00001017
  348      -16.4197282350      -0.0000000048     0.999975    0.00001012
  349      -16.4197282397      -0.0000000047     0.999975    0.00001007
  350      -16.4197282443      -0.0000000047     0.999975    0.00001001
  351      -16.4197282490      -0.0000000046     0.999975    0.00000996
  352      -16.4197282535      -0.0000000046     0.999975    0.00000991
  353      -16.4197282581      -0.0000000045     0.999975    0.00000986
  354      -16.4197282626      -0.0000000045     0.999975    0.00000981
  355      -16.4197282670      -0.0000000044     0.999975    0.00000976
  356      -16.4197282714      -0.0000000044     0.999975    0.00000972
  357      -16.4197282757      -0.0000000043     0.999975    0.00000967
  358      -16.4197282800      -0.0000000043     0.999975    0.00000962
  359      -16.4197282843      -0.0000000043     0.999975    0.00000957
  360      -16.4197282885      -0.0000000042     0.999975    0.00000952
  361      -16.4197282927      -0.0000000042     0.999975    0.00000948
  362      -16.4197282968      -0.0000000041     0.999975    0.00000943
  363      -16.4197283009      -0.0000000041     0.999975    0.00000938
  364      -16.4197283050      -0.0000000041     0.999975    0.00000934
  365      -16.4197283090      -0.0000000040     0.999975    0.00000929
  366      -16.4197283130      -0.0000000040     0.999975    0.00000925
  367      -16.4197283169      -0.0000000039     0.999975    0.00000920
  368      -16.4197283208      -0.0000000039     0.999975    0.00000916
  369      -16.4197283247      -0.0000000039     0.999975    0.00000911
  370      -16.4197283285      -0.0000000038     0.999975    0.00000907
  371      -16.4197283323      -0.0000000038     0.999975    0.00000903
  372      -16.4197283361      -0.0000000038     0.999975    0.00000898
  373      -16.4197283398      -0.0000000037     0.999975    0.00000894
  374      -16.4197283435      -0.0000000037     0.999975    0.00000890
  375      -16.4197283471      -0.0000000036     0.999975    0.00000885
  376      -16.4197283507      -0.0000000036     0.999975    0.00000881
  377      -16.4197283543      -0.0000000036     0.999975    0.00000877
  378      -16.4197283578      -0.0000000035     0.999975    0.00000873
  379      -16.4197283614      -0.0000000035     0.999975    0.00000869
  380      -16.4197283648      -0.0000000035     0.999975    0.00000865
  381      -16.4197283683      -0.0000000034     0.999975    0.00000860
  382      -16.4197283717      -0.0000000034     0.999975    0.00000856
  383      -16.4197283751      -0.0000000034     0.999975    0.00000852
  384      -16.4197283784      -0.0000000033     0.999975    0.00000848
  385      -16.4197283817      -0.0000000033     0.999975    0.00000844
  386      -16.4197283850      -0.0000000033     0.999975    0.00000841
  387      -16.4197283883      -0.0000000033     0.999975    0.00000837
  388      -16.4197283915      -0.0000000032     0.999975    0.00000833
  389      -16.4197283947      -0.0000000032     0.999975    0.00000829
  390      -16.4197283979      -0.0000000032     0.999975    0.00000825
  391      -16.4197284010      -0.0000000031     0.999975    0.00000821
  392      -16.4197284041      -0.0000000031     0.999975    0.00000817
  393      -16.4197284072      -0.0000000031     0.999975    0.00000814
  394      -16.4197284102      -0.0000000031     0.999975    0.00000810
  395      -16.4197284132      -0.0000000030     0.999975    0.00000806
  396      -16.4197284162      -0.0000000030     0.999975    0.00000803
  397      -16.4197284192      -0.0000000030     0.999975    0.00000799
  398      -16.4197284221      -0.0000000029     0.999975    0.00000795
  399      -16.4197284251      -0.0000000029     0.999975    0.00000792
  400      -16.4197284279      -0.0000000029     0.999975    0.00000788
  401      -16.4197284308      -0.0000000029     0.999975    0.00000785
  402      -16.4197284336      -0.0000000028     0.999975    0.00000781
  403      -16.4197284365      -0.0000000028     0.999975    0.00000778
  404      -16.4197284392      -0.0000000028     0.999975    0.00000774
  405      -16.4197284420      -0.0000000028     0.999975    0.00000771
  406      -16.4197284447      -0.0000000027     0.999975    0.00000767
  407      -16.4197284474      -0.0000000027     0.999975    0.00000764
  408      -16.4197284501      -0.0000000027     0.999975    0.00000760
  409      -16.4197284528      -0.0000000027     0.999975    0.00000757
  410      -16.4197284554      -0.0000000026     0.999975    0.00000754
  411      -16.4197284581      -0.0000000026     0.999975    0.00000750
  412      -16.4197284606      -0.0000000026     0.999975    0.00000747
  413      -16.4197284632      -0.0000000026     0.999975    0.00000744
  414      -16.4197284658      -0.0000000025     0.999975    0.00000740
  415      -16.4197284683      -0.0000000025     0.999976    0.00000737
  416      -16.4197284708      -0.0000000025     0.999976    0.00000734
  417      -16.4197284733      -0.0000000025     0.999976    0.00000731
  418      -16.4197284757      -0.0000000025     0.999976    0.00000728
  419      -16.4197284782      -0.0000000024     0.999976    0.00000724
  420      -16.4197284806      -0.0000000024     0.999976    0.00000721
  421      -16.4197284830      -0.0000000024     0.999976    0.00000718
  422      -16.4197284854      -0.0000000024     0.999976    0.00000715
  423      -16.4197284877      -0.0000000024     0.999976    0.00000712
  424      -16.4197284900      -0.0000000023     0.999976    0.00000709
  425      -16.4197284924      -0.0000000023     0.999976    0.00000706
  426      -16.4197284947      -0.0000000023     0.999976    0.00000703
  427      -16.4197284969      -0.0000000023     0.999976    0.00000700
  428      -16.4197284992      -0.0000000023     0.999976    0.00000697
  429      -16.4197285014      -0.0000000022     0.999976    0.00000694
  430      -16.4197285036      -0.0000000022     0.999976    0.00000691
  431      -16.4197285058      -0.0000000022     0.999976    0.00000688
  432      -16.4197285080      -0.0000000022     0.999976    0.00000685
  433      -16.4197285102      -0.0000000022     0.999976    0.00000682
  434      -16.4197285123      -0.0000000021     0.999976    0.00000679
  435      -16.4197285144      -0.0000000021     0.999976    0.00000676
  436      -16.4197285166      -0.0000000021     0.999976    0.00000674
  437      -16.4197285186      -0.0000000021     0.999976    0.00000671
  438      -16.4197285207      -0.0000000021     0.999976    0.00000668
  439      -16.4197285228      -0.0000000021     0.999976    0.00000665
  440      -16.4197285248      -0.0000000020     0.999976    0.00000662
  441      -16.4197285268      -0.0000000020     0.999976    0.00000660
  442      -16.4197285288      -0.0000000020     0.999976    0.00000657
  443      -16.4197285308      -0.0000000020     0.999976    0.00000654
  444      -16.4197285328      -0.0000000020     0.999976    0.00000651
  445      -16.4197285347      -0.0000000020     0.999976    0.00000649
  446      -16.4197285367      -0.0000000019     0.999976    0.00000646
  447      -16.4197285386      -0.0000000019     0.999976    0.00000643
  448      -16.4197285405      -0.0000000019     0.999976    0.00000641
  449      -16.4197285424      -0.0000000019     0.999976    0.00000638
  450      -16.4197285443      -0.0000000019     0.999976    0.00000636
  451      -16.4197285461      -0.0000000019     0.999976    0.00000633
  452      -16.4197285480      -0.0000000018     0.999976    0.00000630
  453      -16.4197285498      -0.0000000018     0.999976    0.00000628
  454      -16.4197285516      -0.0000000018     0.999976    0.00000625
  455      -16.4197285534      -0.0000000018     0.999976    0.00000623
  456      -16.4197285552      -0.0000000018     0.999976    0.00000620
  457      -16.4197285570      -0.0000000018     0.999976    0.00000618
  458      -16.4197285588      -0.0000000018     0.999976    0.00000615
  459      -16.4197285605      -0.0000000017     0.999976    0.00000613
  460      -16.4197285622      -0.0000000017     0.999976    0.00000610
  461      -16.4197285639      -0.0000000017     0.999976    0.00000608
  462      -16.4197285656      -0.0000000017     0.999976    0.00000605
  463      -16.4197285673      -0.0000000017     0.999976    0.00000603
  464      -16.4197285690      -0.0000000017     0.999976    0.00000601
  465      -16.4197285707      -0.0000000017     0.999976    0.00000598
  466      -16.4197285723      -0.0000000016     0.999976    0.00000596
  467      -16.4197285739      -0.0000000016     0.999976    0.00000593
  468      -16.4197285756      -0.0000000016     0.999976    0.00000591
  469      -16.4197285772      -0.0000000016     0.999976    0.00000589
  470      -16.4197285788      -0.0000000016     0.999976    0.00000586
  471      -16.4197285804      -0.0000000016     0.999976    0.00000584
  472      -16.4197285819      -0.0000000016     0.999976    0.00000582
  473      -16.4197285835      -0.0000000016     0.999976    0.00000580
  474      -16.4197285850      -0.0000000015     0.999976    0.00000577
  475      -16.4197285866      -0.0000000015     0.999976    0.00000575
  476      -16.4197285881      -0.0000000015     0.999976    0.00000573
  477      -16.4197285896      -0.0000000015     0.999976    0.00000571
  478      -16.4197285911      -0.0000000015     0.999976    0.00000568
  479      -16.4197285926      -0.0000000015     0.999976    0.00000566
  480      -16.4197285941      -0.0000000015     0.999976    0.00000564
  481      -16.4197285955      -0.0000000015     0.999976    0.00000562
  482      -16.4197285970      -0.0000000015     0.999976    0.00000560
  483      -16.4197285984      -0.0000000014     0.999976    0.00000557
  484      -16.4197285999      -0.0000000014     0.999976    0.00000555
  485      -16.4197286013      -0.0000000014     0.999976    0.00000553
  486      -16.4197286027      -0.0000000014     0.999976    0.00000551
  487      -16.4197286041      -0.0000000014     0.999976    0.00000549
  488      -16.4197286055      -0.0000000014     0.999976    0.00000547
  489      -16.4197286069      -0.0000000014     0.999976    0.00000545
  490      -16.4197286082      -0.0000000014     0.999976    0.00000543
  491      -16.4197286096      -0.0000000014     0.999976    0.00000541
  492      -16.4197286109      -0.0000000013     0.999976    0.00000539
  493      -16.4197286123      -0.0000000013     0.999976    0.00000537
  494      -16.4197286136      -0.0000000013     0.999976    0.00000535
  495      -16.4197286149      -0.0000000013     0.999976    0.00000533
  496      -16.4197286162      -0.0000000013     0.999976    0.00000531
  497      -16.4197286175      -0.0000000013     0.999976    0.00000529
  498      -16.4197286188      -0.0000000013     0.999976    0.00000527
  499      -16.4197286201      -0.0000000013     0.999976    0.00000525
  500      -16.4197286213      -0.0000000013     0.999976    0.00000523
  501      -16.4197286226      -0.0000000013     0.999976    0.00000521
  502      -16.4197286239      -0.0000000012     0.999976    0.00000519
  503      -16.4197286251      -0.0000000012     0.999976    0.00000517
  504      -16.4197286263      -0.0000000012     0.999976    0.00000515
  505      -16.4197286275      -0.0000000012     0.999976    0.00000513
  506      -16.4197286288      -0.0000000012     0.999976    0.00000511
  507      -16.4197286300      -0.0000000012     0.999976    0.00000509
  508      -16.4197286312      -0.0000000012     0.999976    0.00000507
  509      -16.4197286323      -0.0000000012     0.999976    0.00000505
  510      -16.4197286335      -0.0000000012     0.999976    0.00000504
  511      -16.4197286347      -0.0000000012     0.999976    0.00000502
  512      -16.4197286358      -0.0000000012     0.999976    0.00000500
  513      -16.4197286370      -0.0000000012     0.999976    0.00000498
  514      -16.4197286381      -0.0000000011     0.999976    0.00000496
  515      -16.4197286393      -0.0000000011     0.999976    0.00000494
  516      -16.4197286404      -0.0000000011     0.999976    0.00000493
  517      -16.4197286415      -0.0000000011     0.999976    0.00000491
  518      -16.4197286426      -0.0000000011     0.999976    0.00000489
  519      -16.4197286437      -0.0000000011     0.999976    0.00000487
  520      -16.4197286448      -0.0000000011     0.999976    0.00000486
  521      -16.4197286459      -0.0000000011     0.999976    0.00000484
  522      -16.4197286470      -0.0000000011     0.999976    0.00000482
  523      -16.4197286481      -0.0000000011     0.999976    0.00000480
  524      -16.4197286491      -0.0000000011     0.999976    0.00000479
  525      -16.4197286502      -0.0000000011     0.999976    0.00000477
  526      -16.4197286512      -0.0000000010     0.999976    0.00000475
  527      -16.4197286523      -0.0000000010     0.999976    0.00000474
  528      -16.4197286533      -0.0000000010     0.999976    0.00000472
  529      -16.4197286543      -0.0000000010     0.999976    0.00000470
  530      -16.4197286553      -0.0000000010     0.999976    0.00000468
  531      -16.4197286564      -0.0000000010     0.999976    0.00000467
  532      -16.4197286574      -0.0000000010     0.999976    0.00000465
  533      -16.4197286584      -0.0000000010     0.999976    0.00000464
  534      -16.4197286593      -0.0000000010     0.999976    0.00000462
  535      -16.4197286603      -0.0000000010     0.999976    0.00000460
  536      -16.4197286613      -0.0000000010     0.999976    0.00000459
  537      -16.4197286623      -0.0000000010     0.999976    0.00000457
  538      -16.4197286632      -0.0000000010     0.999976    0.00000455
  539      -16.4197286642      -0.0000000010     0.999976    0.00000454
  540      -16.4197286651      -0.0000000009     0.999976    0.00000452
  541      -16.4197286661      -0.0000000009     0.999976    0.00000451
  542      -16.4197286670      -0.0000000009     0.999976    0.00000449
  543      -16.4197286679      -0.0000000009     0.999976    0.00000448
  544      -16.4197286689      -0.0000000009     0.999976    0.00000446
  545      -16.4197286698      -0.0000000009     0.999976    0.00000444
  546      -16.4197286707      -0.0000000009     0.999976    0.00000443
  547      -16.4197286716      -0.0000000009     0.999976    0.00000441
  548      -16.4197286725      -0.0000000009     0.999976    0.00000440
  549      -16.4197286734      -0.0000000009     0.999976    0.00000438
  550      -16.4197286743      -0.0000000009     0.999976    0.00000437
  551      -16.4197286752      -0.0000000009     0.999976    0.00000435
  552      -16.4197286760      -0.0000000009     0.999976    0.00000434
  553      -16.4197286769      -0.0000000009     0.999976    0.00000432
  554      -16.4197286778      -0.0000000009     0.999976    0.00000431
  555      -16.4197286786      -0.0000000009     0.999976    0.00000429
  556      -16.4197286795      -0.0000000008     0.999976    0.00000428
  557      -16.4197286803      -0.0000000008     0.999976    0.00000426
  558      -16.4197286811      -0.0000000008     0.999976    0.00000425
  559      -16.4197286820      -0.0000000008     0.999976    0.00000424
  560      -16.4197286828      -0.0000000008     0.999976    0.00000422
  561      -16.4197286836      -0.0000000008     0.999976    0.00000421
  562      -16.4197286844      -0.0000000008     0.999976    0.00000419
  563      -16.4197286852      -0.0000000008     0.999976    0.00000418
  564      -16.4197286861      -0.0000000008     0.999976    0.00000416
  565      -16.4197286868      -0.0000000008     0.999976    0.00000415
  566      -16.4197286876      -0.0000000008     0.999976    0.00000414
  567      -16.4197286884      -0.0000000008     0.999976    0.00000412
  568      -16.4197286892      -0.0000000008     0.999976    0.00000411
  569      -16.4197286900      -0.0000000008     0.999976    0.00000410
  570      -16.4197286908      -0.0000000008     0.999976    0.00000408
  571      -16.4197286915      -0.0000000008     0.999976    0.00000407
  572      -16.4197286923      -0.0000000008     0.999976    0.00000405
  573      -16.4197286931      -0.0000000008     0.999976    0.00000404
  574      -16.4197286938      -0.0000000008     0.999976    0.00000403
  575      -16.4197286946      -0.0000000007     0.999976    0.00000401
  576      -16.4197286953      -0.0000000007     0.999976    0.00000400
  577      -16.4197286960      -0.0000000007     0.999976    0.00000399
  578      -16.4197286968      -0.0000000007     0.999976    0.00000397
  579      -16.4197286975      -0.0000000007     0.999976    0.00000396
  580      -16.4197286982      -0.0000000007     0.999976    0.00000395
  581      -16.4197286989      -0.0000000007     0.999976    0.00000394
  582      -16.4197286996      -0.0000000007     0.999976    0.00000392
  583      -16.4197287004      -0.0000000007     0.999976    0.00000391
  584      -16.4197287011      -0.0000000007     0.999976    0.00000390
  585      -16.4197287018      -0.0000000007     0.999976    0.00000388
  586      -16.4197287025      -0.0000000007     0.999976    0.00000387
  587      -16.4197287031      -0.0000000007     0.999976    0.00000386
  588      -16.4197287038      -0.0000000007     0.999976    0.00000385
  589      -16.4197287045      -0.0000000007     0.999976    0.00000383
  590      -16.4197287052      -0.0000000007     0.999976    0.00000382
  591      -16.4197287059      -0.0000000007     0.999976    0.00000381
  592      -16.4197287065      -0.0000000007     0.999976    0.00000380
  593      -16.4197287072      -0.0000000007     0.999976    0.00000378
  594      -16.4197287079      -0.0000000007     0.999976    0.00000377
  595      -16.4197287085      -0.0000000007     0.999976    0.00000376
  596      -16.4197287092      -0.0000000007     0.999976    0.00000375
  597      -16.4197287098      -0.0000000006     0.999976    0.00000374
  598      -16.4197287105      -0.0000000006     0.999976    0.00000372
  599      -16.4197287111      -0.0000000006     0.999976    0.00000371
  600      -16.4197287117      -0.0000000006     0.999976    0.00000370
  601      -16.4197287124      -0.0000000006     0.999976    0.00000369
  602      -16.4197287130      -0.0000000006     0.999976    0.00000368
  603      -16.4197287136      -0.0000000006     0.999976    0.00000367
  604      -16.4197287142      -0.0000000006     0.999976    0.00000365
  605      -16.4197287148      -0.0000000006     0.999976    0.00000364
  606      -16.4197287155      -0.0000000006     0.999976    0.00000363
  607      -16.4197287161      -0.0000000006     0.999976    0.00000362
  608      -16.4197287167      -0.0000000006     0.999976    0.00000361
  609      -16.4197287173      -0.0000000006     0.999976    0.00000360
  610      -16.4197287179      -0.0000000006     0.999976    0.00000358
  611      -16.4197287185      -0.0000000006     0.999976    0.00000357
  612      -16.4197287190      -0.0000000006     0.999976    0.00000356
  613      -16.4197287196      -0.0000000006     0.999976    0.00000355
  614      -16.4197287202      -0.0000000006     0.999976    0.00000354
  615      -16.4197287208      -0.0000000006     0.999976    0.00000353
  616      -16.4197287214      -0.0000000006     0.999976    0.00000352
  617      -16.4197287219      -0.0000000006     0.999976    0.00000351
  618      -16.4197287225      -0.0000000006     0.999976    0.00000350
  619      -16.4197287231      -0.0000000006     0.999976    0.00000349
  620      -16.4197287236      -0.0000000006     0.999976    0.00000347
  621      -16.4197287242      -0.0000000006     0.999976    0.00000346
  622      -16.4197287247      -0.0000000006     0.999976    0.00000345
  623      -16.4197287253      -0.0000000005     0.999976    0.00000344
  624      -16.4197287258      -0.0000000005     0.999976    0.00000343
  625      -16.4197287264      -0.0000000005     0.999976    0.00000342
  626      -16.4197287269      -0.0000000005     0.999976    0.00000341
  627      -16.4197287274      -0.0000000005     0.999976    0.00000340
  628      -16.4197287280      -0.0000000005     0.999976    0.00000339
  629      -16.4197287285      -0.0000000005     0.999976    0.00000338
  630      -16.4197287290      -0.0000000005     0.999976    0.00000337
  631      -16.4197287296      -0.0000000005     0.999976    0.00000336
  632      -16.4197287301      -0.0000000005     0.999976    0.00000335
  633      -16.4197287306      -0.0000000005     0.999976    0.00000334
  634      -16.4197287311      -0.0000000005     0.999976    0.00000333
  635      -16.4197287316      -0.0000000005     0.999976    0.00000332
  636      -16.4197287321      -0.0000000005     0.999976    0.00000331
  637      -16.4197287326      -0.0000000005     0.999976    0.00000330
  638      -16.4197287331      -0.0000000005     0.999976    0.00000329
  639      -16.4197287336      -0.0000000005     0.999976    0.00000328
  640      -16.4197287341      -0.0000000005     0.999976    0.00000327
  641      -16.4197287346      -0.0000000005     0.999976    0.00000326
  642      -16.4197287351      -0.0000000005     0.999976    0.00000325
  643      -16.4197287356      -0.0000000005     0.999976    0.00000324
  644      -16.4197287361      -0.0000000005     0.999976    0.00000323
  645      -16.4197287366      -0.0000000005     0.999976    0.00000322
  646      -16.4197287370      -0.0000000005     0.999976    0.00000321
  647      -16.4197287375      -0.0000000005     0.999976    0.00000320
  648      -16.4197287380      -0.0000000005     0.999976    0.00000319
  649      -16.4197287384      -0.0000000005     0.999976    0.00000318
  650      -16.4197287389      -0.0000000005     0.999976    0.00000317
  651      -16.4197287394      -0.0000000005     0.999976    0.00000316
  652      -16.4197287398      -0.0000000005     0.999976    0.00000315
  653      -16.4197287403      -0.0000000005     0.999976    0.00000314
  654      -16.4197287407      -0.0000000005     0.999976    0.00000313
  655      -16.4197287412      -0.0000000005     0.999976    0.00000312
  656      -16.4197287417      -0.0000000004     0.999976    0.00000312
  657      -16.4197287421      -0.0000000004     0.999976    0.00000311
  658      -16.4197287425      -0.0000000004     0.999976    0.00000310
  659      -16.4197287430      -0.0000000004     0.999976    0.00000309
  660      -16.4197287434      -0.0000000004     0.999976    0.00000308
  661      -16.4197287439      -0.0000000004     0.999976    0.00000307
  662      -16.4197287443      -0.0000000004     0.999976    0.00000306
  663      -16.4197287447      -0.0000000004     0.999976    0.00000305
  664      -16.4197287452      -0.0000000004     0.999976    0.00000304
  665      -16.4197287456      -0.0000000004     0.999976    0.00000303
  666      -16.4197287460      -0.0000000004     0.999976    0.00000302
  667      -16.4197287464      -0.0000000004     0.999976    0.00000302
  668      -16.4197287468      -0.0000000004     0.999976    0.00000301
  669      -16.4197287473      -0.0000000004     0.999976    0.00000300
  670      -16.4197287477      -0.0000000004     0.999976    0.00000299
  671      -16.4197287481      -0.0000000004     0.999976    0.00000298
  672      -16.4197287485      -0.0000000004     0.999976    0.00000297
  673      -16.4197287489      -0.0000000004     0.999976    0.00000296
  674      -16.4197287493      -0.0000000004     0.999976    0.00000296
  675      -16.4197287497      -0.0000000004     0.999976    0.00000295
  676      -16.4197287501      -0.0000000004     0.999976    0.00000294
  677      -16.4197287505      -0.0000000004     0.999976    0.00000293
  678      -16.4197287509      -0.0000000004     0.999976    0.00000292
  679      -16.4197287513      -0.0000000004     0.999976    0.00000291
  680      -16.4197287517      -0.0000000004     0.999976    0.00000290
  681      -16.4197287521      -0.0000000004     0.999976    0.00000290
  682      -16.4197287525      -0.0000000004     0.999976    0.00000289
  683      -16.4197287529      -0.0000000004     0.999976    0.00000288
  684      -16.4197287532      -0.0000000004     0.999976    0.00000287
  685      -16.4197287536      -0.0000000004     0.999976    0.00000286
  686      -16.4197287540      -0.0000000004     0.999976    0.00000286
  687      -16.4197287544      -0.0000000004     0.999976    0.00000285
  688      -16.4197287547      -0.0000000004     0.999976    0.00000284
  689      -16.4197287551      -0.0000000004     0.999976    0.00000283
  690      -16.4197287555      -0.0000000004     0.999976    0.00000282
  691      -16.4197287558      -0.0000000004     0.999976    0.00000281
  692      -16.4197287562      -0.0000000004     0.999976    0.00000281
  693      -16.4197287566      -0.0000000004     0.999976    0.00000280
  694      -16.4197287569      -0.0000000004     0.999976    0.00000279
  695      -16.4197287573      -0.0000000004     0.999976    0.00000278
  696      -16.4197287577      -0.0000000004     0.999976    0.00000278
  697      -16.4197287580      -0.0000000004     0.999976    0.00000277
  698      -16.4197287584      -0.0000000004     0.999976    0.00000276
  699      -16.4197287587      -0.0000000004     0.999976    0.00000275
  700      -16.4197287591      -0.0000000003     0.999976    0.00000274
  701      -16.4197287594      -0.0000000003     0.999976    0.00000274
  702      -16.4197287598      -0.0000000003     0.999976    0.00000273
  703      -16.4197287601      -0.0000000003     0.999976    0.00000272
  704      -16.4197287604      -0.0000000003     0.999976    0.00000271
  705      -16.4197287608      -0.0000000003     0.999976    0.00000271
  706      -16.4197287611      -0.0000000003     0.999976    0.00000270
  707      -16.4197287615      -0.0000000003     0.999976    0.00000269
  708      -16.4197287618      -0.0000000003     0.999976    0.00000268
  709      -16.4197287621      -0.0000000003     0.999976    0.00000268
  710      -16.4197287624      -0.0000000003     0.999976    0.00000267
  711      -16.4197287628      -0.0000000003     0.999976    0.00000266
  712      -16.4197287631      -0.0000000003     0.999976    0.00000265
  713      -16.4197287634      -0.0000000003     0.999976    0.00000265
  714      -16.4197287637      -0.0000000003     0.999976    0.00000264
  715      -16.4197287641      -0.0000000003     0.999976    0.00000263
  716      -16.4197287644      -0.0000000003     0.999976    0.00000263
  717      -16.4197287647      -0.0000000003     0.999976    0.00000262
  718      -16.4197287650      -0.0000000003     0.999976    0.00000261
  719      -16.4197287653      -0.0000000003     0.999976    0.00000260
  720      -16.4197287657      -0.0000000003     0.999976    0.00000260
  721      -16.4197287660      -0.0000000003     0.999976    0.00000259
  722      -16.4197287663      -0.0000000003     0.999976    0.00000258
  723      -16.4197287666      -0.0000000003     0.999976    0.00000258
  724      -16.4197287669      -0.0000000003     0.999976    0.00000257
  725      -16.4197287672      -0.0000000003     0.999976    0.00000256
  726      -16.4197287675      -0.0000000003     0.999976    0.00000255
  727      -16.4197287678      -0.0000000003     0.999976    0.00000255
  728      -16.4197287681      -0.0000000003     0.999976    0.00000254
  729      -16.4197287684      -0.0000000003     0.999976    0.00000253
  730      -16.4197287687      -0.0000000003     0.999976    0.00000253
  731      -16.4197287690      -0.0000000003     0.999976    0.00000252
  732      -16.4197287693      -0.0000000003     0.999976    0.00000251
  733      -16.4197287696      -0.0000000003     0.999976    0.00000251
  734      -16.4197287699      -0.0000000003     0.999976    0.00000250
  735      -16.4197287701      -0.0000000003     0.999976    0.00000249
  736      -16.4197287704      -0.0000000003     0.999976    0.00000249
  737      -16.4197287707      -0.0000000003     0.999976    0.00000248
  738      -16.4197287710      -0.0000000003     0.999976    0.00000247
  739      -16.4197287713      -0.0000000003     0.999976    0.00000247
  740      -16.4197287716      -0.0000000003     0.999976    0.00000246
  741      -16.4197287718      -0.0000000003     0.999976    0.00000245
  742      -16.4197287721      -0.0000000003     0.999976    0.00000245
  743      -16.4197287724      -0.0000000003     0.999976    0.00000244
  744      -16.4197287727      -0.0000000003     0.999976    0.00000243
  745      -16.4197287729      -0.0000000003     0.999976    0.00000243
  746      -16.4197287732      -0.0000000003     0.999976    0.00000242
  747      -16.4197287735      -0.0000000003     0.999976    0.00000241
  748      -16.4197287737      -0.0000000003     0.999976    0.00000241
  749      -16.4197287740      -0.0000000003     0.999976    0.00000240
  750      -16.4197287743      -0.0000000003     0.999976    0.00000240
  751      -16.4197287745      -0.0000000003     0.999976    0.00000239
  752      -16.4197287748      -0.0000000003     0.999976    0.00000238
  753      -16.4197287751      -0.0000000003     0.999976    0.00000238
  754      -16.4197287753      -0.0000000003     0.999976    0.00000237
  755      -16.4197287756      -0.0000000003     0.999976    0.00000236
  756      -16.4197287758      -0.0000000003     0.999976    0.00000236
  757      -16.4197287761      -0.0000000003     0.999976    0.00000235
  758      -16.4197287764      -0.0000000003     0.999976    0.00000235
  759      -16.4197287766      -0.0000000003     0.999976    0.00000234
  760      -16.4197287769      -0.0000000003     0.999976    0.00000233
  761      -16.4197287771      -0.0000000003     0.999976    0.00000233
  762      -16.4197287774      -0.0000000002     0.999976    0.00000232
  763      -16.4197287776      -0.0000000002     0.999976    0.00000231
  764      -16.4197287779      -0.0000000002     0.999976    0.00000231
  765      -16.4197287781      -0.0000000002     0.999976    0.00000230
  766      -16.4197287783      -0.0000000002     0.999976    0.00000230
  767      -16.4197287786      -0.0000000002     0.999976    0.00000229
  768      -16.4197287788      -0.0000000002     0.999976    0.00000228
  769      -16.4197287791      -0.0000000002     0.999976    0.00000228
  770      -16.4197287793      -0.0000000002     0.999976    0.00000227
  771      -16.4197287796      -0.0000000002     0.999976    0.00000227
  772      -16.4197287798      -0.0000000002     0.999976    0.00000226
  773      -16.4197287800      -0.0000000002     0.999976    0.00000226
  774      -16.4197287803      -0.0000000002     0.999976    0.00000225
  775      -16.4197287805      -0.0000000002     0.999976    0.00000224
  776      -16.4197287807      -0.0000000002     0.999976    0.00000224
  777      -16.4197287810      -0.0000000002     0.999976    0.00000223
  778      -16.4197287812      -0.0000000002     0.999976    0.00000223
  779      -16.4197287814      -0.0000000002     0.999976    0.00000222
  780      -16.4197287816      -0.0000000002     0.999976    0.00000222
  781      -16.4197287819      -0.0000000002     0.999976    0.00000221
  782      -16.4197287821      -0.0000000002     0.999976    0.00000220
  783      -16.4197287823      -0.0000000002     0.999976    0.00000220
  784      -16.4197287825      -0.0000000002     0.999976    0.00000219
  785      -16.4197287828      -0.0000000002     0.999976    0.00000219
  786      -16.4197287830      -0.0000000002     0.999976    0.00000218
  787      -16.4197287832      -0.0000000002     0.999976    0.00000218
  788      -16.4197287834      -0.0000000002     0.999976    0.00000217
  789      -16.4197287836      -0.0000000002     0.999976    0.00000217
  790      -16.4197287839      -0.0000000002     0.999976    0.00000216
  791      -16.4197287841      -0.0000000002     0.999976    0.00000215
  792      -16.4197287843      -0.0000000002     0.999976    0.00000215
  793      -16.4197287845      -0.0000000002     0.999976    0.00000214
  794      -16.4197287847      -0.0000000002     0.999976    0.00000214
  795      -16.4197287849      -0.0000000002     0.999976    0.00000213
  796      -16.4197287851      -0.0000000002     0.999976    0.00000213
  797      -16.4197287853      -0.0000000002     0.999976    0.00000212
  798      -16.4197287855      -0.0000000002     0.999976    0.00000212
  799      -16.4197287857      -0.0000000002     0.999976    0.00000211
  800      -16.4197287860      -0.0000000002     0.999976    0.00000211
  801      -16.4197287862      -0.0000000002     0.999976    0.00000210
  802      -16.4197287864      -0.0000000002     0.999976    0.00000210
  803      -16.4197287866      -0.0000000002     0.999976    0.00000209
  804      -16.4197287868      -0.0000000002     0.999976    0.00000209
  805      -16.4197287870      -0.0000000002     0.999976    0.00000208
  806      -16.4197287872      -0.0000000002     0.999976    0.00000207
  807      -16.4197287874      -0.0000000002     0.999976    0.00000207
  808      -16.4197287876      -0.0000000002     0.999976    0.00000206
  809      -16.4197287878      -0.0000000002     0.999976    0.00000206
  810      -16.4197287880      -0.0000000002     0.999976    0.00000205
  811      -16.4197287881      -0.0000000002     0.999976    0.00000205
  812      -16.4197287883      -0.0000000002     0.999976    0.00000204
  813      -16.4197287885      -0.0000000002     0.999976    0.00000204
  814      -16.4197287887      -0.0000000002     0.999976    0.00000203
  815      -16.4197287889      -0.0000000002     0.999976    0.00000203
  816      -16.4197287891      -0.0000000002     0.999976    0.00000202
  817      -16.4197287893      -0.0000000002     0.999976    0.00000202
  818      -16.4197287895      -0.0000000002     0.999976    0.00000201
  819      -16.4197287897      -0.0000000002     0.999976    0.00000201
  820      -16.4197287899      -0.0000000002     0.999976    0.00000200
  821      -16.4197287900      -0.0000000002     0.999976    0.00000200
  822      -16.4197287902      -0.0000000002     0.999976    0.00000199
  823      -16.4197287904      -0.0000000002     0.999976    0.00000199
  824      -16.4197287906      -0.0000000002     0.999976    0.00000198
  825      -16.4197287908      -0.0000000002     0.999976    0.00000198
  826      -16.4197287910      -0.0000000002     0.999976    0.00000197
  827      -16.4197287911      -0.0000000002     0.999976    0.00000197
  828      -16.4197287913      -0.0000000002     0.999976    0.00000197
  829      -16.4197287915      -0.0000000002     0.999976    0.00000196
  830      -16.4197287917      -0.0000000002     0.999976    0.00000196
  831      -16.4197287918      -0.0000000002     0.999976    0.00000195
  832      -16.4197287920      -0.0000000002     0.999976    0.00000195
  833      -16.4197287922      -0.0000000002     0.999976    0.00000194
  834      -16.4197287924      -0.0000000002     0.999976    0.00000194
  835      -16.4197287925      -0.0000000002     0.999976    0.00000193
  836      -16.4197287927      -0.0000000002     0.999976    0.00000193
  837      -16.4197287929      -0.0000000002     0.999976    0.00000192
  838      -16.4197287931      -0.0000000002     0.999976    0.00000192
  839      -16.4197287932      -0.0000000002     0.999976    0.00000191
  840      -16.4197287934      -0.0000000002     0.999976    0.00000191
  841      -16.4197287936      -0.0000000002     0.999976    0.00000190
  842      -16.4197287937      -0.0000000002     0.999976    0.00000190
  843      -16.4197287939      -0.0000000002     0.999976    0.00000190
  844      -16.4197287941      -0.0000000002     0.999976    0.00000189
  845      -16.4197287942      -0.0000000002     0.999976    0.00000189
  846      -16.4197287944      -0.0000000002     0.999976    0.00000188
  847      -16.4197287946      -0.0000000002     0.999976    0.00000188
  848      -16.4197287947      -0.0000000002     0.999976    0.00000187
  849      -16.4197287949      -0.0000000002     0.999976    0.00000187
  850      -16.4197287950      -0.0000000002     0.999976    0.00000186
  851      -16.4197287952      -0.0000000002     0.999976    0.00000186
  852      -16.4197287954      -0.0000000002     0.999976    0.00000186
  853      -16.4197287955      -0.0000000002     0.999976    0.00000185
  854      -16.4197287957      -0.0000000002     0.999976    0.00000185
  855      -16.4197287958      -0.0000000002     0.999976    0.00000184
  856      -16.4197287960      -0.0000000002     0.999976    0.00000184
  857      -16.4197287961      -0.0000000002     0.999976    0.00000183
  858      -16.4197287963      -0.0000000002     0.999976    0.00000183
  859      -16.4197287965      -0.0000000002     0.999976    0.00000182
  860      -16.4197287966      -0.0000000002     0.999976    0.00000182
  861      -16.4197287968      -0.0000000002     0.999976    0.00000182
  862      -16.4197287969      -0.0000000002     0.999976    0.00000181
  863      -16.4197287971      -0.0000000002     0.999976    0.00000181
  864      -16.4197287972      -0.0000000002     0.999976    0.00000180
  865      -16.4197287974      -0.0000000001     0.999976    0.00000180
  866      -16.4197287975      -0.0000000001     0.999976    0.00000179
  867      -16.4197287977      -0.0000000001     0.999976    0.00000179
  868      -16.4197287978      -0.0000000001     0.999976    0.00000179
  869      -16.4197287980      -0.0000000001     0.999976    0.00000178
  870      -16.4197287981      -0.0000000001     0.999976    0.00000178
  871      -16.4197287983      -0.0000000001     0.999976    0.00000177
  872      -16.4197287984      -0.0000000001     0.999976    0.00000177
  873      -16.4197287985      -0.0000000001     0.999976    0.00000177
  874      -16.4197287987      -0.0000000001     0.999976    0.00000176
  875      -16.4197287988      -0.0000000001     0.999976    0.00000176
  876      -16.4197287990      -0.0000000001     0.999976    0.00000175
  877      -16.4197287991      -0.0000000001     0.999976    0.00000175
  878      -16.4197287993      -0.0000000001     0.999976    0.00000175
  879      -16.4197287994      -0.0000000001     0.999976    0.00000174
  880      -16.4197287995      -0.0000000001     0.999976    0.00000174
  881      -16.4197287997      -0.0000000001     0.999976    0.00000173
  882      -16.4197287998      -0.0000000001     0.999976    0.00000173
  883      -16.4197287999      -0.0000000001     0.999976    0.00000173
  884      -16.4197288001      -0.0000000001     0.999976    0.00000172
  885      -16.4197288002      -0.0000000001     0.999976    0.00000172
  886      -16.4197288004      -0.0000000001     0.999976    0.00000171
  887      -16.4197288005      -0.0000000001     0.999976    0.00000171
  888      -16.4197288006      -0.0000000001     0.999976    0.00000171
  889      -16.4197288008      -0.0000000001     0.999976    0.00000170
  890      -16.4197288009      -0.0000000001     0.999976    0.00000170
  891      -16.4197288010      -0.0000000001     0.999976    0.00000169
  892      -16.4197288012      -0.0000000001     0.999976    0.00000169
  893      -16.4197288013      -0.0000000001     0.999976    0.00000169
  894      -16.4197288014      -0.0000000001     0.999976    0.00000168
  895      -16.4197288016      -0.0000000001     0.999976    0.00000168
  896      -16.4197288017      -0.0000000001     0.999976    0.00000167
  897      -16.4197288018      -0.0000000001     0.999976    0.00000167
  898      -16.4197288019      -0.0000000001     0.999976    0.00000167
  899      -16.4197288021      -0.0000000001     0.999976    0.00000166
  900      -16.4197288022      -0.0000000001     0.999976    0.00000166
  901      -16.4197288023      -0.0000000001     0.999976    0.00000166
  902      -16.4197288025      -0.0000000001     0.999976    0.00000165
  903      -16.4197288026      -0.0000000001     0.999976    0.00000165
  904      -16.4197288027      -0.0000000001     0.999976    0.00000164
  905      -16.4197288028      -0.0000000001     0.999976    0.00000164
  906      -16.4197288030      -0.0000000001     0.999976    0.00000164
  907      -16.4197288031      -0.0000000001     0.999976    0.00000163
  908      -16.4197288032      -0.0000000001     0.999976    0.00000163
  909      -16.4197288033      -0.0000000001     0.999976    0.00000163
  910      -16.4197288034      -0.0000000001     0.999976    0.00000162
  911      -16.4197288036      -0.0000000001     0.999976    0.00000162
  912      -16.4197288037      -0.0000000001     0.999976    0.00000161
  913      -16.4197288038      -0.0000000001     0.999976    0.00000161
  914      -16.4197288039      -0.0000000001     0.999976    0.00000161
  915      -16.4197288040      -0.0000000001     0.999976    0.00000160
  916      -16.4197288042      -0.0000000001     0.999976    0.00000160
  917      -16.4197288043      -0.0000000001     0.999976    0.00000160
  918      -16.4197288044      -0.0000000001     0.999976    0.00000159
  919      -16.4197288045      -0.0000000001     0.999976    0.00000159
  920      -16.4197288046      -0.0000000001     0.999976    0.00000159
  921      -16.4197288047      -0.0000000001     0.999976    0.00000158
  922      -16.4197288049      -0.0000000001     0.999976    0.00000158
  923      -16.4197288050      -0.0000000001     0.999976    0.00000158
  924      -16.4197288051      -0.0000000001     0.999976    0.00000157
  925      -16.4197288052      -0.0000000001     0.999976    0.00000157
  926      -16.4197288053      -0.0000000001     0.999976    0.00000157
  927      -16.4197288054      -0.0000000001     0.999976    0.00000156
  928      -16.4197288055      -0.0000000001     0.999976    0.00000156
  929      -16.4197288057      -0.0000000001     0.999976    0.00000155
  930      -16.4197288058      -0.0000000001     0.999976    0.00000155
  931      -16.4197288059      -0.0000000001     0.999976    0.00000155
  932      -16.4197288060      -0.0000000001     0.999976    0.00000154
  933      -16.4197288061      -0.0000000001     0.999976    0.00000154
  934      -16.4197288062      -0.0000000001     0.999976    0.00000154
  935      -16.4197288063      -0.0000000001     0.999976    0.00000153
  936      -16.4197288064      -0.0000000001     0.999976    0.00000153
  937      -16.4197288065      -0.0000000001     0.999976    0.00000153
  938      -16.4197288066      -0.0000000001     0.999976    0.00000152
  939      -16.4197288068      -0.0000000001     0.999976    0.00000152
  940      -16.4197288069      -0.0000000001     0.999976    0.00000152
  941      -16.4197288070      -0.0000000001     0.999976    0.00000151
  942      -16.4197288071      -0.0000000001     0.999976    0.00000151
  943      -16.4197288072      -0.0000000001     0.999976    0.00000151
  944      -16.4197288073      -0.0000000001     0.999976    0.00000150
  945      -16.4197288074      -0.0000000001     0.999976    0.00000150
  946      -16.4197288075      -0.0000000001     0.999976    0.00000150
  947      -16.4197288076      -0.0000000001     0.999976    0.00000149
  948      -16.4197288077      -0.0000000001     0.999976    0.00000149
  949      -16.4197288078      -0.0000000001     0.999976    0.00000149
  950      -16.4197288079      -0.0000000001     0.999976    0.00000148
  951      -16.4197288080      -0.0000000001     0.999976    0.00000148
  952      -16.4197288081      -0.0000000001     0.999976    0.00000148
  953      -16.4197288082      -0.0000000001     0.999976    0.00000147
  954      -16.4197288083      -0.0000000001     0.999976    0.00000147
  955      -16.4197288084      -0.0000000001     0.999976    0.00000147
  956      -16.4197288085      -0.0000000001     0.999976    0.00000147
  957      -16.4197288086      -0.0000000001     0.999976    0.00000146
  958      -16.4197288087      -0.0000000001     0.999976    0.00000146
  959      -16.4197288088      -0.0000000001     0.999976    0.00000146
  960      -16.4197288089      -0.0000000001     0.999976    0.00000145
  961      -16.4197288090      -0.0000000001     0.999976    0.00000145
  962      -16.4197288091      -0.0000000001     0.999976    0.00000145
  963      -16.4197288092      -0.0000000001     0.999976    0.00000144
  964      -16.4197288093      -0.0000000001     0.999976    0.00000144
  965      -16.4197288094      -0.0000000001     0.999976    0.00000144
  966      -16.4197288095      -0.0000000001     0.999976    0.00000143
  967      -16.4197288096      -0.0000000001     0.999976    0.00000143
  968      -16.4197288097      -0.0000000001     0.999976    0.00000143
  969      -16.4197288098      -0.0000000001     0.999976    0.00000142
  970      -16.4197288099      -0.0000000001     0.999976    0.00000142
  971      -16.4197288099      -0.0000000001     0.999976    0.00000142
  972      -16.4197288100      -0.0000000001     0.999976    0.00000142
  973      -16.4197288101      -0.0000000001     0.999976    0.00000141
  974      -16.4197288102      -0.0000000001     0.999976    0.00000141
  975      -16.4197288103      -0.0000000001     0.999976    0.00000141
  976      -16.4197288104      -0.0000000001     0.999976    0.00000140
  977      -16.4197288105      -0.0000000001     0.999976    0.00000140
  978      -16.4197288106      -0.0000000001     0.999976    0.00000140
  979      -16.4197288107      -0.0000000001     0.999976    0.00000139
  980      -16.4197288108      -0.0000000001     0.999976    0.00000139
  981      -16.4197288109      -0.0000000001     0.999976    0.00000139
  982      -16.4197288109      -0.0000000001     0.999976    0.00000139
  983      -16.4197288110      -0.0000000001     0.999976    0.00000138
  984      -16.4197288111      -0.0000000001     0.999976    0.00000138
  985      -16.4197288112      -0.0000000001     0.999976    0.00000138
  986      -16.4197288113      -0.0000000001     0.999976    0.00000137
  987      -16.4197288114      -0.0000000001     0.999976    0.00000137
  988      -16.4197288115      -0.0000000001     0.999976    0.00000137
  989      -16.4197288116      -0.0000000001     0.999976    0.00000137
  990      -16.4197288116      -0.0000000001     0.999976    0.00000136
  991      -16.4197288117      -0.0000000001     0.999976    0.00000136
  992      -16.4197288118      -0.0000000001     0.999976    0.00000136
  993      -16.4197288119      -0.0000000001     0.999976    0.00000135
  994      -16.4197288120      -0.0000000001     0.999976    0.00000135
  995      -16.4197288121      -0.0000000001     0.999976    0.00000135
  996      -16.4197288122      -0.0000000001     0.999976    0.00000135
  997      -16.4197288122      -0.0000000001     0.999976    0.00000134
  998      -16.4197288123      -0.0000000001     0.999976    0.00000134
  999      -16.4197288124      -0.0000000001     0.999976    0.00000134
 1000      -16.4197288125      -0.0000000001     0.999976    0.00000133

Total Energy:                      -16.4197288125 H         -446.8036 eV
Extrapolated to 0:                 -16.3925497665 H         -446.0640 eV

----------------------------------------------------------------------------------
 Solving CP-REKS equation for  1 state vector...
----------------------------------------------------------------------------------
  CG solver: Constructing Y initial guess
  CG solver: Iteration    1    eps =    0.051860657248
  CG solver: Iteration    2    eps =    0.086882090294
  CG solver: Iteration    3    eps =    0.089575017148
  CG solver: Iteration    4    eps =    0.056571650178
  CG solver: Iteration    5    eps =    0.328596669496
  CG solver: Iteration    6    eps =    1.257250444949
  CG solver: Iteration    7    eps =    1.288109723621
  CG solver: Iteration    8    eps =    1.141312175671
  CG solver: Iteration    9    eps =    0.523443129677
  CG solver: Iteration   10    eps =    0.117122891988
  CG solver: Iteration   11    eps =    0.029787277885
  CG solver: Iteration   12    eps =    0.003352041803
  CG solver: Iteration   13    eps =    0.000320488751
  CG solver: Iteration   14    eps =    0.000038829093
  CG solver: Iteration   15    eps =    0.000005001655
  CG solver: Iteration   16    eps =    0.000000306528
  CG solver: Iteration   17    eps =    0.000000047441
  CG solver: Iteration   18    eps =    0.000000001580
  Convergence reached in CG solver after   18 iterations
  CG solver: Calculating converged R, Z, Q2 matrix
----------------------------------------------------------------------------------

----------------------------------------------------------------------------------
 Solving CP-REKS equation for SI between  1 and  2 state vectors...
----------------------------------------------------------------------------------
  CG solver: Constructing Y initial guess
  CG solver: Iteration    1    eps =    0.067719175462
  CG solver: Iteration    2    eps =    0.003233927351
  CG solver: Iteration    3    eps =    0.001437611092
  CG solver: Iteration    4    eps =    0.001855691528
  CG solver: Iteration    5    eps =    0.004260994479
  CG solver: Iteration    6    eps =    0.046900270064
  CG solver: Iteration    7    eps =    0.043454388190
  CG solver: Iteration    8    eps =    0.032655214896
  CG solver: Iteration    9    eps =    0.023411853569
  CG solver: Iteration   10    eps =    0.003715552395
  CG solver: Iteration   11    eps =    0.000567307401
  CG solver: Iteration   12    eps =    0.000081321026
  CG solver: Iteration   13    eps =    0.000010212672
  CG solver: Iteration   14    eps =    0.000000682381
  CG solver: Iteration   15    eps =    0.000000027856
  CG solver: Iteration   16    eps =    0.000000002249
  Convergence reached in CG solver after   16 iterations
  CG solver: Calculating converged R, Z, Q2 matrix
----------------------------------------------------------------------------------

--------------------------------------------------
 Gradient Information
--------------------------------------------------
           1 st state (SSR)
     0.00000000     0.00000000     0.00000000
     0.00000000     0.00000000     0.00000000
     0.00000000     0.00000000     0.00000000
     0.00000000     0.00000000     0.00000000
     0.00000000     0.00000000     0.00000000
     0.00000000     0.00000000     0.00000000
     0.00000000     0.00000000     0.00000000
     0.00000000     0.00000000     0.00000000
     0.00000000     0.00000000     0.00000000
     0.00000000     0.00000000     0.00000000
     0.00000000     0.00000000     0.00000000
     0.00000000     0.00000000     0.00000000
     0.00000000     0.00000000     0.00000000
     0.00000000     0.00000000     0.00000000

           2 st state (SSR)
     0.00000000     0.00000000     0.00000000
     0.00000000     0.00000000     0.00000000
     0.00000000     0.00000000     0.00000000
     0.00000000     0.00000000     0.00000000
     0.00000000     0.00000000     0.00000000
     0.00000000     0.00000000     0.00000000
     0.00000000     0.00000000     0.00000000
     0.00000000     0.00000000     0.00000000
     0.00000000     0.00000000     0.00000000
     0.00000000     0.00000000     0.00000000
     0.00000000     0.00000000     0.00000000
     0.00000000     0.00000000     0.00000000
     0.00000000     0.00000000     0.00000000
     0.00000000     0.00000000     0.00000000
--------------------------------------------------
 Coupling Information
--------------------------------------------------
 between  1 and  2 states
--------------------------------------------------
 g vector - difference gradient
     6.82393756    -6.13103726    -8.95749432
   -11.56635086     1.61402588     9.20682994
    -1.25923896     1.03991410    -0.75112902
     0.46568821    -0.49736168     1.83185369
     1.39868673     3.45439417    -1.44273977
     1.63847801    -1.81965990     0.67496529
     2.58633913     0.17379374     2.06506988
    -0.57492355     0.50484226    -0.62907819
    -0.08203376     1.38472246    -0.46361882
    -1.31771294     0.03450258    -2.32089190
     0.07135223     0.27591518     0.24255460
     1.76711668     0.11064503     0.39284215
    -0.02372594    -0.16704795     0.15794282
     0.07238744     0.02235137    -0.00710637

 h vector - derivative coupling
    -1.22603375     1.07800811     1.56862190
     2.03384800    -0.27817227    -1.63341331
     0.23038558    -0.17140393     0.14589519
    -0.08781591     0.07825715    -0.33232694
    -0.23279342    -0.61547281     0.25415309
    -0.25411020     0.32993479    -0.09417271
    -0.44880743    -0.09507515    -0.36774670
     0.07940310    -0.08524666     0.09922781
     0.00366906    -0.18701236     0.06585895
     0.17599143    -0.02421167     0.44344761
    -0.00756096    -0.05960956    -0.02187394
    -0.25037021     0.00074966    -0.07926918
    -0.00198039     0.03574691    -0.03988544
    -0.01382489    -0.00649221    -0.00851632

 G vector - GDV
     0.00000000     0.00000000     0.00000000
     0.00000000     0.00000000     0.00000000
     0.00000000     0.00000000     0.00000000
     0.00000000     0.00000000     0.00000000
     0.00000000     0.00000000     0.00000000
     0.00000000     0.00000000     0.00000000
     0.00000000     0.00000000     0.00000000
     0.00000000     0.00000000     0.00000000
     0.00000000     0.00000000     0.00000000
     0.00000000     0.00000000     0.00000000
     0.00000000     0.00000000     0.00000000
     0.00000000     0.00000000     0.00000000
     0.00000000     0.00000000     0.00000000
     0.00000000     0.00000000     0.00000000

 H vector - DCV - non-adiabatic coupling
     0.00000000     0.00000000     0.00000000
     0.00000000     0.00000000     0.00000000
     0.00000000     0.00000000     0.00000000
     0.00000000     0.00000000     0.00000000
     0.00000000     0.00000000     0.00000000
     0.00000000     0.00000000     0.00000000
     0.00000000     0.00000000     0.00000000
     0.00000000     0.00000000     0.00000000
     0.00000000     0.00000000     0.00000000
     0.00000000     0.00000000     0.00000000
     0.00000000     0.00000000     0.00000000
     0.00000000     0.00000000     0.00000000
     0.00000000     0.00000000     0.00000000
     0.00000000     0.00000000     0.00000000
--------------------------------------------------

WARNING!
-> SCC is NOT converged, maximal SCC iterations exceeded

--------------------------------------------------------------------------------
DFTB+ running times                          cpu [s]             wall clock [s]
--------------------------------------------------------------------------------
SCC                                    +     1.38  ( 75.8%)      1.39  ( 75.6%)
      Sparse to dense                        0.07  (  4.1%)      0.07  (  4.0%)
      Dense to sparse                        0.26  ( 14.1%)      0.24  ( 13.1%)
      Range separated Hamiltonian            0.12  (  6.8%)      0.14  (  7.6%)
  Density matrix creation                    0.15  (  8.4%)      0.14  (  7.8%)
  Force calculation                          0.44  ( 24.1%)      0.44  ( 24.1%)
--------------------------------------------------------------------------------
Missing                                +     0.44  ( 24.2%)      0.45  ( 24.4%)
Total                                  =     1.82  (100.0%)      1.84  (100.0%)
--------------------------------------------------------------------------------
