|===============================================================================
|
|  DFTB+ release 20.1
|
|  Copyright (C) 2006 - 2020  DFTB+ developers group
|
|===============================================================================
|
|  When publishing results obtained with DFTB+, please cite the following
|  reference:
|
|  * DFTB+, a software package for efficient approximate density functional
|    theory based atomistic simulations, J. Chem. Phys. 152, 124101 (2020).
|    [doi: 10.1063/1.5143190]
|
|  You should also cite additional publications crediting the parametrization
|  data you use. Please consult the documentation of the SK-files for the
|  references.
|
|===============================================================================

Reading input file 'dftb_in.hsd'
Parser version: 8

--------------------------------------------------------------------------------
Reading SK-files:
Done.


Processed input in HSD format written to 'dftb_pin.hsd'

Starting initialization...
--------------------------------------------------------------------------------
OpenMP threads:              1
Chosen random seed:          450176231
Mode:                        Static calculation
Self consistent charges:     Yes
SCC-tolerance:                 0.100000E-05
Max. scc iterations:                   1000
Shell resolved Hubbard:      No
Spin polarisation:           No
Nr. of up electrons:             6.000000
Nr. of down electrons:           6.000000
Periodic boundaries:         No
Electronic solver:           Relatively robust
Maximal SCC-cycles:                    1000
Initial charges:             Set automatically (system chrg:   0.100E+01)
Included shells:             C:  s, p
                             N:  s, p
                             H:  s
Spin coupling constants:     C   1(s)-1(s):  -0.455900E-01
                             C   1(s)-2(p):  -0.293000E-01
                             C   2(p)-1(s):  -0.293000E-01
                             C   2(p)-2(p):  -0.275500E-01
                             N   1(s)-1(s):  -0.468700E-01
                             N   1(s)-2(p):  -0.317000E-01
                             N   2(p)-1(s):  -0.317000E-01
                             N   2(p)-2(p):  -0.307200E-01
                             H   1(s)-1(s):  -0.792500E-01
Range separated hybrid:      Yes
  Screening parameter omega:   0.300000E+00
  Range separated algorithm:   MatrixBased
Extra options:
                             Mulliken analysis
                             Force calculation
Force type                   original
                             Eigenvector printing


REKS Calcuation:             Yes
SSR(2,2) Calcuation:         Yes
Energy Functional:           (PPS+OSS)/2
Number of Core Orbitals:                  5
Number of Active Orbitals:                2
Number of Basis:                         12
Number of States:                         2
State-Averaging Weight:          0.500000
                                 0.500000
State of Interest:                        1
Initial Guess:               Diagonalize H0 matrix
Newton-Raphson for FON opt:  Yes
NR max. Iterations:                      50
Level Shifting:              Yes
Shift Value:                     0.300000
W Scale Factor:              C  =    3.200000
                             N  =    3.200000
                             H  =    3.200000
Transition Dipole:           No
Gradient of Microstate:      No
CP-REKS Solver:              Preconditioned Conjugate-Gradient
CG max. Iterations:                     100
CG Tolerance:                  0.100000E-07
Memory for A and Hxc:        Direct Updating Without Saving
Non-Adiabatic Coupling:      Yes

--------------------------------------------------------------------------------

***  Geometry step: 0

  iSCC       reks energy        Diff energy         x_a       SCC error   
    1       -6.1310112562       0.0000000000     0.987831    1.09656903
    2       -6.1420424388      -0.0110311826     0.999044    0.06606977
    3       -6.1464234444      -0.0043810056     0.999872    0.02845449
    4       -6.1478694186      -0.0014459742     0.999966    0.01526509
    5       -6.1483339029      -0.0004644843     0.999985    0.00895307
    6       -6.1484999777      -0.0001660748     0.999990    0.00542603
    7       -6.1485669398      -0.0000669621     0.999992    0.00352983
    8       -6.1485970089      -0.0000300690     0.999994    0.00244019
    9       -6.1486120069      -0.0000149981     0.999994    0.00177188
   10       -6.1486203200      -0.0000083131     0.999995    0.00134216
   11       -6.1486254132      -0.0000050932     0.999995    0.00105489
   12       -6.1486288153      -0.0000034021     0.999995    0.00085556
   13       -6.1486312463      -0.0000024310     0.999995    0.00071194
   14       -6.1486330695      -0.0000018232     0.999995    0.00060457
   15       -6.1486344822      -0.0000014127     0.999995    0.00052144
   16       -6.1486356002      -0.0000011180     0.999995    0.00045506
   17       -6.1486364970      -0.0000008967     0.999995    0.00040063
   18       -6.1486372222      -0.0000007252     0.999995    0.00035502
   19       -6.1486378118      -0.0000005896     0.999995    0.00031614
   20       -6.1486382926      -0.0000004808     0.999995    0.00028254
   21       -6.1486386855      -0.0000003929     0.999995    0.00025320
   22       -6.1486390069      -0.0000003214     0.999996    0.00022738
   23       -6.1486392699      -0.0000002631     0.999996    0.00020452
   24       -6.1486394853      -0.0000002154     0.999996    0.00018417
   25       -6.1486396617      -0.0000001764     0.999996    0.00016600
   26       -6.1486398062      -0.0000001445     0.999996    0.00014974
   27       -6.1486399245      -0.0000001183     0.999996    0.00013514
   28       -6.1486400214      -0.0000000969     0.999996    0.00012201
   29       -6.1486401007      -0.0000000793     0.999996    0.00011020
   30       -6.1486401657      -0.0000000650     0.999996    0.00009956
   31       -6.1486402189      -0.0000000532     0.999996    0.00008997
   32       -6.1486402624      -0.0000000435     0.999996    0.00008131
   33       -6.1486402980      -0.0000000356     0.999996    0.00007349
   34       -6.1486403272      -0.0000000292     0.999996    0.00006644
   35       -6.1486403510      -0.0000000239     0.999996    0.00006006
   36       -6.1486403706      -0.0000000195     0.999996    0.00005430
   37       -6.1486403865      -0.0000000160     0.999996    0.00004910
   38       -6.1486403996      -0.0000000131     0.999996    0.00004439
   39       -6.1486404103      -0.0000000107     0.999996    0.00004014
   40       -6.1486404191      -0.0000000087     0.999996    0.00003629
   41       -6.1486404262      -0.0000000072     0.999996    0.00003282
   42       -6.1486404321      -0.0000000059     0.999996    0.00002968
   43       -6.1486404369      -0.0000000048     0.999996    0.00002683
   44       -6.1486404408      -0.0000000039     0.999996    0.00002427
   45       -6.1486404440      -0.0000000032     0.999996    0.00002194
   46       -6.1486404466      -0.0000000026     0.999996    0.00001984
   47       -6.1486404487      -0.0000000021     0.999996    0.00001794
   48       -6.1486404505      -0.0000000018     0.999996    0.00001622
   49       -6.1486404519      -0.0000000014     0.999996    0.00001467
   50       -6.1486404531      -0.0000000012     0.999996    0.00001327
   51       -6.1486404541      -0.0000000010     0.999996    0.00001200
   52       -6.1486404548      -0.0000000008     0.999996    0.00001085
   53       -6.1486404555      -0.0000000006     0.999996    0.00000981
   54       -6.1486404560      -0.0000000005     0.999996    0.00000887
   55       -6.1486404564      -0.0000000004     0.999996    0.00000802
   56       -6.1486404568      -0.0000000004     0.999996    0.00000725
   57       -6.1486404571      -0.0000000003     0.999996    0.00000656
   58       -6.1486404573      -0.0000000002     0.999996    0.00000593
   59       -6.1486404575      -0.0000000002     0.999996    0.00000536
   60       -6.1486404577      -0.0000000002     0.999996    0.00000485
   61       -6.1486404578      -0.0000000001     0.999996    0.00000438
   62       -6.1486404579      -0.0000000001     0.999996    0.00000397
   63       -6.1486404580      -0.0000000001     0.999996    0.00000359
   64       -6.1486404580      -0.0000000001     0.999996    0.00000324
   65       -6.1486404581      -0.0000000001     0.999996    0.00000293
   66       -6.1486404581      -0.0000000000     0.999996    0.00000265
   67       -6.1486404582      -0.0000000000     0.999996    0.00000240
   68       -6.1486404582      -0.0000000000     0.999996    0.00000217
   69       -6.1486404582      -0.0000000000     0.999996    0.00000196
   70       -6.1486404583      -0.0000000000     0.999996    0.00000177
   71       -6.1486404583      -0.0000000000     0.999996    0.00000160
   72       -6.1486404583      -0.0000000000     0.999996    0.00000145
   73       -6.1486404583      -0.0000000000     0.999996    0.00000131
   74       -6.1486404583      -0.0000000000     0.999996    0.00000118
   75       -6.1486404583      -0.0000000000     0.999996    0.00000107
   76       -6.1486404583      -0.0000000000     0.999996    0.00000097
  
--------------------------------------------------
 Final SA-REKS(2,2) energy:      -6.14864046
  
 State     Energy      FON(1)    FON(2)   Spin
  PPS   -6.18999300   1.999991  0.000009  0.00
  OSS   -6.10728792   1.000000  1.000000  0.00
 Trip   -6.14857966   1.000000  1.000000  1.00
--------------------------------------------------

 Lagrangian Wab:   0.03177247  0.03177281

--------------------------------------------------
 SSR: 2SI-2SA-REKS(2,2) Hamiltonian matrix
               PPS           OSS
   PPS    -6.18999300    0.04483966
   OSS     0.04483966   -6.10728792
--------------------------------------------------

----------------------------------------------------------------
 SSR: 2SI-2SA-REKS(2,2) states
                    E_n       C_{PPS}    C_{OSS}
 SSR state  1   -6.20963741  -0.915954   0.401283
 SSR state  2   -6.08764351  -0.401283  -0.915954
----------------------------------------------------------------

 unrelaxed SSR FONs for S0:  1.838965  0.161035

Total Energy:                       -6.2096374084 H         -168.9728 eV
Extrapolated to 0:                  -6.2096374084 H         -168.9728 eV

----------------------------------------------------------------------------------
 Solving CP-REKS equation for  1 state vector...
----------------------------------------------------------------------------------
  CG solver: Constructing Y initial guess
  CG solver: Iteration    1    eps =    0.010334497685
  CG solver: Iteration    2    eps =    0.001344500157
  CG solver: Iteration    3    eps =    0.000296986100
  CG solver: Iteration    4    eps =    0.000035174362
  CG solver: Iteration    5    eps =    0.000001938644
  CG solver: Iteration    6    eps =    0.000000186069
  CG solver: Iteration    7    eps =    0.000000006731
  Convergence reached in CG solver after    7 iterations
  CG solver: Calculating converged R, Z, Q2 matrix
----------------------------------------------------------------------------------

----------------------------------------------------------------------------------
 Solving CP-REKS equation for SI between  1 and  2 state vectors...
----------------------------------------------------------------------------------
  CG solver: Constructing Y initial guess
  CG solver: Iteration    1    eps =    0.010206535196
  CG solver: Iteration    2    eps =    0.010569325298
  CG solver: Iteration    3    eps =    0.001084508549
  CG solver: Iteration    4    eps =    0.000029337184
  CG solver: Iteration    5    eps =    0.000006927888
  CG solver: Iteration    6    eps =    0.000000416873
  CG solver: Iteration    7    eps =    0.000000027547
  CG solver: Iteration    8    eps =    0.000000001100
  Convergence reached in CG solver after    8 iterations
  CG solver: Calculating converged R, Z, Q2 matrix
----------------------------------------------------------------------------------

--------------------------------------------------
 Gradient Information
--------------------------------------------------
           1 st state (SSR)
    -0.12345096     0.04845120    -0.18141764
     0.07842749    -0.05438685     0.06983992
     0.02108364     0.00081171     0.02822504
    -0.05454670     0.08473460    -0.03090611
    -0.02303998    -0.00861170     0.00823314
     0.10152651    -0.07099896     0.10602566

           2 st state (SSR)
    -0.09386648     0.08497495    -0.08499915
    -0.01588164    -0.06758035    -0.03913986
     0.00337228    -0.01379099     0.02998630
    -0.04545084     0.06106267    -0.01722972
     0.02678492    -0.00325856     0.01791500
     0.12504176    -0.06140772     0.09346743
--------------------------------------------------
 Coupling Information
--------------------------------------------------
 between  1 and  2 states
--------------------------------------------------
 g vector - difference gradient
     0.00662165    -0.04922914    -0.12297020
    -0.01826308     0.06554345     0.12357530
     0.00748798     0.01342645    -0.00616088
     0.03313914    -0.00023506     0.00432153
    -0.00936871    -0.00833041    -0.00539762
    -0.01961698    -0.02117529     0.00663187

 h vector - derivative coupling
     0.02622909    -0.02055839    -0.04782626
    -0.08098878     0.05147243     0.03984053
    -0.00514104     0.00245001    -0.00448380
     0.03674866    -0.01631765     0.01328768
     0.02524915    -0.00404154     0.00160743
    -0.00209709    -0.01300486    -0.00242558

 G vector - GDV
    -0.01479224    -0.01826188    -0.04820925
     0.04715456     0.00659675     0.05448989
     0.00885568     0.00730135    -0.00088063
    -0.00454793     0.01183597    -0.00683819
    -0.02491245    -0.00267657    -0.00484093
    -0.01175762    -0.00479562     0.00627911

 H vector - DCV - non-adiabatic coupling
     0.18566118    -0.41089293    -1.00677622
    -0.56012080     0.68099551     0.96604412
     0.01655146     0.09452060    -0.06204172
     0.40391007    -0.09209689     0.09988304
     0.08386045    -0.07265722    -0.02359226
    -0.12986236    -0.19986908     0.02648304
--------------------------------------------------


--------------------------------------------------------------------------------
DFTB+ running times                          cpu [s]             wall clock [s]
--------------------------------------------------------------------------------
SCC                                    +     0.03  ( 73.9%)      0.04  ( 71.4%)
Post-SCC processing                    +     0.01  ( 23.1%)      0.01  ( 22.4%)
  Force calculation                          0.01  ( 22.6%)      0.01  ( 20.4%)
--------------------------------------------------------------------------------
Missing                                +     0.00  (  3.0%)      0.00  (  6.1%)
Total                                  =     0.04  (100.0%)      0.05  (100.0%)
--------------------------------------------------------------------------------
