|===============================================================================
|
|  DFTB+ release 20.1
|
|  Copyright (C) 2006 - 2020  DFTB+ developers group
|
|===============================================================================
|
|  When publishing results obtained with DFTB+, please cite the following
|  reference:
|
|  * DFTB+, a software package for efficient approximate density functional
|    theory based atomistic simulations, J. Chem. Phys. 152, 124101 (2020).
|    [doi: 10.1063/1.5143190]
|
|  You should also cite additional publications crediting the parametrization
|  data you use. Please consult the documentation of the SK-files for the
|  references.
|
|===============================================================================

Reading input file 'dftb_in.hsd'
Parser version: 8

--------------------------------------------------------------------------------
Reading SK-files:
Done.


Processed input in HSD format written to 'dftb_pin.hsd'

Starting initialization...
--------------------------------------------------------------------------------
OpenMP threads:              1
Chosen random seed:          511718783
Mode:                        Static calculation
Self consistent charges:     Yes
SCC-tolerance:                 0.100000E-05
Max. scc iterations:                   1000
Shell resolved Hubbard:      No
Spin polarisation:           No
Nr. of up electrons:             6.000000
Nr. of down electrons:           6.000000
Periodic boundaries:         No
Electronic solver:           Relatively robust
Maximal SCC-cycles:                    1000
Initial charges:             Set automatically (system chrg:   0.100E+01)
Included shells:             C:  s, p
                             N:  s, p
                             H:  s
Spin coupling constants:     C   1(s)-1(s):  -0.455900E-01
                             C   1(s)-2(p):  -0.293000E-01
                             C   2(p)-1(s):  -0.293000E-01
                             C   2(p)-2(p):  -0.275500E-01
                             N   1(s)-1(s):  -0.468700E-01
                             N   1(s)-2(p):  -0.317000E-01
                             N   2(p)-1(s):  -0.317000E-01
                             N   2(p)-2(p):  -0.307200E-01
                             H   1(s)-1(s):  -0.792500E-01
Range separated hybrid:      Yes
  Screening parameter omega:   0.300000E+00
  Range separated algorithm:   MatrixBased
Extra options:
                             Mulliken analysis
                             Force calculation
Force type                   original
                             Eigenvector printing


REKS Calcuation:             Yes
SSR(2,2) Calcuation:         Yes
Energy Functional:           (PPS+OSS)/2
Number of Core Orbitals:                  5
Number of Active Orbitals:                2
Number of Basis:                         12
Number of States:                         2
State-Averaging Weight:          0.500000
                                 0.500000
State of Interest:                        1
Initial Guess:               Diagonalize H0 matrix
Newton-Raphson for FON opt:  Yes
NR max. Iterations:                      50
Level Shifting:              Yes
Shift Value:                     0.300000
W Scale Factor:              C  =    3.000000
                             N  =    3.000000
                             H  =    3.000000
Transition Dipole:           No
Gradient of Microstate:      No
CP-REKS Solver:              Preconditioned Conjugate-Gradient
CG max. Iterations:                     100
CG Tolerance:                  0.100000E-07
Memory for A and Hxc:        Direct Updating Without Saving
Non-Adiabatic Coupling:      Yes

--------------------------------------------------------------------------------

***  Geometry step: 0

  iSCC       reks energy        Diff energy         x_a       SCC error   
    1       -6.2645038858       0.0000000000     0.998646    1.18694580
    2       -6.2779827425      -0.0134788567     0.999486    0.10817206
    3       -6.2816832435      -0.0037005011     0.999725    0.05011777
    4       -6.2832309374      -0.0015476939     0.999819    0.02544846
    5       -6.2840090190      -0.0007780815     0.999863    0.01373233
    6       -6.2844713333      -0.0004623144     0.999885    0.00753133
    7       -6.2847828552      -0.0003115219     0.999898    0.00531559
    8       -6.2850087928      -0.0002259375     0.999906    0.00488110
    9       -6.2851787832      -0.0001699904     0.999911    0.00439720
   10       -6.2853087486      -0.0001299655     0.999914    0.00391464
   11       -6.2854086449      -0.0000998962     0.999916    0.00345677
   12       -6.2854854221      -0.0000767773     0.999918    0.00313991
   13       -6.2855442691      -0.0000588469     0.999919    0.00287250
   14       -6.2855891958      -0.0000449267     0.999920    0.00260099
   15       -6.2856233467      -0.0000341509     0.999921    0.00233537
   16       -6.2856491948      -0.0000258481     0.999921    0.00208226
   17       -6.2856686794      -0.0000194846     0.999921    0.00184575
   18       -6.2856833126      -0.0000146332     0.999922    0.00162805
   19       -6.2856942657      -0.0000109532     0.999922    0.00143003
   20       -6.2857024401      -0.0000081744     0.999922    0.00125162
   21       -6.2857085248      -0.0000060847     0.999922    0.00109213
   22       -6.2857130438      -0.0000045190     0.999922    0.00095046
   23       -6.2857163933      -0.0000033495     0.999922    0.00082530
   24       -6.2857188717      -0.0000024784     0.999922    0.00071522
   25       -6.2857207028      -0.0000018311     0.999922    0.00061877
   26       -6.2857220540      -0.0000013511     0.999922    0.00053455
   27       -6.2857230498      -0.0000009958     0.999922    0.00046120
   28       -6.2857237831      -0.0000007333     0.999922    0.00039747
   29       -6.2857243226      -0.0000005395     0.999922    0.00034222
   30       -6.2857247192      -0.0000003966     0.999922    0.00029441
   31       -6.2857250106      -0.0000002914     0.999922    0.00025309
   32       -6.2857252245      -0.0000002140     0.999922    0.00021743
   33       -6.2857253816      -0.0000001571     0.999922    0.00018669
   34       -6.2857254968      -0.0000001152     0.999922    0.00016022
   35       -6.2857255814      -0.0000000845     0.999922    0.00013745
   36       -6.2857256433      -0.0000000620     0.999922    0.00011787
   37       -6.2857256887      -0.0000000454     0.999922    0.00010105
   38       -6.2857257220      -0.0000000333     0.999922    0.00008660
   39       -6.2857257464      -0.0000000244     0.999922    0.00007420
   40       -6.2857257643      -0.0000000179     0.999922    0.00006357
   41       -6.2857257774      -0.0000000131     0.999922    0.00005445
   42       -6.2857257870      -0.0000000096     0.999922    0.00004663
   43       -6.2857257940      -0.0000000070     0.999922    0.00003992
   44       -6.2857257991      -0.0000000051     0.999922    0.00003418
   45       -6.2857258029      -0.0000000038     0.999922    0.00002926
   46       -6.2857258057      -0.0000000028     0.999922    0.00002505
   47       -6.2857258077      -0.0000000020     0.999922    0.00002144
   48       -6.2857258091      -0.0000000015     0.999922    0.00001835
   49       -6.2857258102      -0.0000000011     0.999922    0.00001570
   50       -6.2857258110      -0.0000000008     0.999922    0.00001344
   51       -6.2857258116      -0.0000000006     0.999922    0.00001150
   52       -6.2857258120      -0.0000000004     0.999922    0.00000984
   53       -6.2857258123      -0.0000000003     0.999922    0.00000842
   54       -6.2857258126      -0.0000000002     0.999922    0.00000720
   55       -6.2857258127      -0.0000000002     0.999922    0.00000616
   56       -6.2857258128      -0.0000000001     0.999922    0.00000527
   57       -6.2857258129      -0.0000000001     0.999922    0.00000451
   58       -6.2857258130      -0.0000000001     0.999922    0.00000386
   59       -6.2857258131      -0.0000000000     0.999922    0.00000330
   60       -6.2857258131      -0.0000000000     0.999922    0.00000283
   61       -6.2857258131      -0.0000000000     0.999922    0.00000242
   62       -6.2857258131      -0.0000000000     0.999922    0.00000207
   63       -6.2857258131      -0.0000000000     0.999922    0.00000177
   64       -6.2857258132      -0.0000000000     0.999922    0.00000151
   65       -6.2857258132      -0.0000000000     0.999922    0.00000130
   66       -6.2857258132      -0.0000000000     0.999922    0.00000111
   67       -6.2857258132      -0.0000000000     0.999922    0.00000095
  
--------------------------------------------------
 Final SA-REKS(2,2) energy:      -6.28572581
  
 State     Energy      FON(1)    FON(2)   Spin
  PPS   -6.40831789   1.999844  0.000156  0.00
  OSS   -6.16313374   1.000000  1.000000  0.00
 Trip   -6.24609606   1.000000  1.000000  1.00
--------------------------------------------------

 Lagrangian Wab:   0.00881938  0.00881908

--------------------------------------------------
 SSR: 2SI-2SA-REKS(2,2) Hamiltonian matrix
               PPS           OSS
   PPS    -6.40831789    0.01236196
   OSS     0.01236196   -6.16313374
--------------------------------------------------

----------------------------------------------------------------
 SSR: 2SI-2SA-REKS(2,2) states
                    E_n       C_{PPS}    C_{OSS}
 SSR state  1   -6.40893959  -0.998738   0.050228
 SSR state  2   -6.16251203  -0.050228  -0.998738
----------------------------------------------------------------

 unrelaxed SSR FONs for S0:  1.997322  0.002678

Total Energy:                       -6.4089395914 H         -174.3961 eV
Extrapolated to 0:                  -6.4089395914 H         -174.3961 eV

----------------------------------------------------------------------------------
 Solving CP-REKS equation for  1 state vector...
----------------------------------------------------------------------------------
  CG solver: Constructing Y initial guess
  CG solver: Iteration    1    eps =    0.000199147546
  CG solver: Iteration    2    eps =    0.000073660428
  CG solver: Iteration    3    eps =    0.000033278955
  CG solver: Iteration    4    eps =    0.000001292711
  CG solver: Iteration    5    eps =    0.000000017464
  CG solver: Iteration    6    eps =    0.000000009394
  Convergence reached in CG solver after    6 iterations
  CG solver: Calculating converged R, Z, Q2 matrix
----------------------------------------------------------------------------------

----------------------------------------------------------------------------------
 Solving CP-REKS equation for SI between  1 and  2 state vectors...
----------------------------------------------------------------------------------
  CG solver: Constructing Y initial guess
  CG solver: Iteration    1    eps =    0.004836616931
  CG solver: Iteration    2    eps =    0.007850091045
  CG solver: Iteration    3    eps =    0.000846586040
  CG solver: Iteration    4    eps =    0.000010157707
  CG solver: Iteration    5    eps =    0.000001404674
  CG solver: Iteration    6    eps =    0.000000024214
  CG solver: Iteration    7    eps =    0.000000000723
  Convergence reached in CG solver after    7 iterations
  CG solver: Calculating converged R, Z, Q2 matrix
----------------------------------------------------------------------------------

--------------------------------------------------
 Gradient Information
--------------------------------------------------
           1 st state (SSR)
    -0.00259074     0.00147372    -0.00933447
     0.00446838    -0.00062602     0.01339287
     0.01422794     0.00545318     0.00371058
     0.01464333    -0.00119257    -0.00636109
    -0.01734314     0.00174711    -0.00556497
    -0.01340577    -0.00685542     0.00415707

           2 st state (SSR)
     0.00107102    -0.00361730     0.09914086
    -0.00376266     0.00946636    -0.11046163
    -0.01639811     0.01055601     0.01962660
    -0.01254052    -0.00631863    -0.01554147
     0.01573664     0.00484581    -0.01272496
     0.01589364    -0.01493225     0.01996061
--------------------------------------------------
 Coupling Information
--------------------------------------------------
 between  1 and  2 states
--------------------------------------------------
 g vector - difference gradient
    -0.00181340     0.00286140    -0.05841808
     0.00433045    -0.00537591     0.06536563
     0.01715816    -0.00209815    -0.00763131
     0.01558291     0.00227826     0.00473315
    -0.01868328    -0.00115741     0.00363024
    -0.01657484     0.00349181    -0.00767963

 h vector - derivative coupling
     0.00026541     0.00300461    -0.03872899
     0.00192447    -0.00301603     0.03098356
     0.01752783     0.00462331     0.00364010
     0.01906077    -0.00295294     0.00118683
    -0.02042391     0.00396481     0.00031822
    -0.01835457    -0.00562376     0.00260029

 G vector - GDV
    -0.00183088     0.00254551    -0.05423766
     0.00411552    -0.00504619     0.06192725
     0.01531303    -0.00255141    -0.00795801
     0.01359193     0.00256303     0.00459019
    -0.01653989    -0.00154935     0.00358000
    -0.01464971     0.00403842    -0.00790177

 H vector - DCV - non-adiabatic coupling
     0.00033330     0.01329614    -0.18015284
     0.00953313    -0.01436598     0.15170914
     0.07775451     0.01781243     0.01158998
     0.08330244    -0.01099496     0.00671887
    -0.09006840     0.01553673     0.00276282
    -0.08085498    -0.02128436     0.00737204
--------------------------------------------------


--------------------------------------------------------------------------------
DFTB+ running times                          cpu [s]             wall clock [s]
--------------------------------------------------------------------------------
Global initialisation                  +     0.00  (  2.6%)      0.01  ( 15.6%)
SCC                                    +     0.04  ( 77.3%)      0.04  ( 64.1%)
Post-SCC processing                    +     0.01  ( 18.7%)      0.01  ( 17.2%)
  Force calculation                          0.01  ( 18.4%)      0.01  ( 15.6%)
--------------------------------------------------------------------------------
Missing                                +     0.00  (  1.4%)      0.00  (  3.1%)
Total                                  =     0.05  (100.0%)      0.06  (100.0%)
--------------------------------------------------------------------------------
