     6
  Step:   600            Position(A)                                  Velocity(au)
C        -0.01614885    -0.01529707    -0.11881239    -0.00019076     0.00026579     0.00044667
N        -0.02948505    -0.04236774     1.42800041     0.00030331    -0.00032017    -0.00018780
H        -1.18764780     0.02265619    -0.43254723     0.00297747    -0.00007721     0.00141225
H         1.11405665     0.31816222     1.47490785    -0.00386869     0.00277993    -0.00008011
H        -0.99888836     0.65755602     1.45536241     0.00074937     0.00124482    -0.00280086
H         0.46159370    -0.89709832    -0.03367928    -0.00180001    -0.00266546    -0.00124396
