|===============================================================================
|
|  DFTB+ release 20.1
|
|  Copyright (C) 2006 - 2020  DFTB+ developers group
|
|===============================================================================
|
|  When publishing results obtained with DFTB+, please cite the following
|  reference:
|
|  * DFTB+, a software package for efficient approximate density functional
|    theory based atomistic simulations, J. Chem. Phys. 152, 124101 (2020).
|    [doi: 10.1063/1.5143190]
|
|  You should also cite additional publications crediting the parametrization
|  data you use. Please consult the documentation of the SK-files for the
|  references.
|
|===============================================================================

Reading input file 'dftb_in.hsd'
Parser version: 8

--------------------------------------------------------------------------------
Reading SK-files:
Done.


Processed input in HSD format written to 'dftb_pin.hsd'

Starting initialization...
--------------------------------------------------------------------------------
OpenMP threads:              1
Chosen random seed:          498867619
Mode:                        Static calculation
Self consistent charges:     Yes
SCC-tolerance:                 0.100000E-05
Max. scc iterations:                   1000
Shell resolved Hubbard:      No
Spin polarisation:           No
Nr. of up electrons:            16.000000
Nr. of down electrons:          16.000000
Periodic boundaries:         No
Electronic solver:           Relatively robust
Maximal SCC-cycles:                    1000
Initial charges:             Set automatically (system chrg:   0.100E+01)
Included shells:             C:  s, p
                             H:  s
                             N:  s, p
Spin coupling constants:     C   1(s)-1(s):  -0.455900E-01
                             C   1(s)-2(p):  -0.293000E-01
                             C   2(p)-1(s):  -0.293000E-01
                             C   2(p)-2(p):  -0.275500E-01
                             H   1(s)-1(s):  -0.792500E-01
                             N   1(s)-1(s):  -0.468700E-01
                             N   1(s)-2(p):  -0.317000E-01
                             N   2(p)-1(s):  -0.317000E-01
                             N   2(p)-2(p):  -0.307200E-01
Range separated hybrid:      Yes
  Screening parameter omega:   0.300000E+00
  Range separated algorithm:   MatrixBased
Extra options:
                             Mulliken analysis
                             Force calculation
Force type                   original
                             Eigenvector printing


REKS Calcuation:             Yes
SSR(2,2) Calcuation:         Yes
Energy Functional:           (PPS+OSS)/2
Number of Core Orbitals:                 15
Number of Active Orbitals:                2
Number of Basis:                         32
Number of States:                         2
State-Averaging Weight:          0.500000
                                 0.500000
State of Interest:                        1
Initial Guess:               Diagonalize H0 matrix
Newton-Raphson for FON opt:  Yes
NR max. Iterations:                      50
Level Shifting:              Yes
Shift Value:                     0.300000
W Scale Factor:              C  =    3.200000
                             H  =    3.200000
                             N  =    3.200000
Transition Dipole:           No
Gradient of Microstate:      No
CP-REKS Solver:              Preconditioned Conjugate-Gradient
CG max. Iterations:                     100
CG Tolerance:                  0.100000E-07
Memory for A and Hxc:        Direct Updating Without Saving
Non-Adiabatic Coupling:      Yes

--------------------------------------------------------------------------------

***  Geometry step: 0

  iSCC       reks energy        Diff energy         x_a       SCC error   
    1      -16.3582027223       0.0000000000     0.996419    1.27165027
    2      -16.3831835992      -0.0249808770     0.999538    0.07531827
    3      -16.3885796969      -0.0053960976     0.999871    0.03102924
    4      -16.3903263836      -0.0017466867     0.999938    0.01522909
    5      -16.3910618972      -0.0007355136     0.999961    0.00982955
    6      -16.3914355663      -0.0003736691     0.999971    0.00678915
    7      -16.3916533391      -0.0002177728     0.999976    0.00494303
    8      -16.3917934061      -0.0001400670     0.999980    0.00373517
    9      -16.3918901250      -0.0000967189     0.999982    0.00289933
   10      -16.3919604803      -0.0000703554     0.999984    0.00229659
   11      -16.3920136795      -0.0000531991     0.999985    0.00184818
   12      -16.3920550964      -0.0000414169     0.999986    0.00150638
   13      -16.3920880677      -0.0000329713     0.999987    0.00124074
   14      -16.3921147768      -0.0000267091     0.999987    0.00105305
   15      -16.3921367173      -0.0000219405     0.999988    0.00095049
   16      -16.3921549490      -0.0000182317     0.999988    0.00086270
   17      -16.3921702466      -0.0000152976     0.999989    0.00078666
   18      -16.3921831900      -0.0000129434     0.999989    0.00072012
   19      -16.3921942217      -0.0000110317     0.999990    0.00066138
   20      -16.3922036848      -0.0000094631     0.999990    0.00060915
   21      -16.3922118489      -0.0000081641     0.999990    0.00056243
   22      -16.3922189281      -0.0000070792     0.999991    0.00052043
   23      -16.3922250945      -0.0000061664     0.999991    0.00048251
   24      -16.3922304876      -0.0000053931     0.999991    0.00044814
   25      -16.3922352213      -0.0000047337     0.999991    0.00041690
   26      -16.3922393897      -0.0000041684     0.999991    0.00038843
   27      -16.3922430708      -0.0000036811     0.999992    0.00036393
   28      -16.3922463299      -0.0000032591     0.999992    0.00034459
   29      -16.3922492221      -0.0000028922     0.999992    0.00032908
   30      -16.3922517939      -0.0000025718     0.999992    0.00031408
   31      -16.3922540850      -0.0000022912     0.999992    0.00029964
   32      -16.3922561296      -0.0000020445     0.999992    0.00028578
   33      -16.3922579568      -0.0000018272     0.999992    0.00027252
   34      -16.3922595921      -0.0000016353     0.999992    0.00025985
   35      -16.3922610573      -0.0000014653     0.999993    0.00024777
   36      -16.3922623718      -0.0000013145     0.999993    0.00023627
   37      -16.3922635522      -0.0000011804     0.999993    0.00022533
   38      -16.3922646133      -0.0000010611     0.999993    0.00021492
   39      -16.3922655680      -0.0000009547     0.999993    0.00020504
   40      -16.3922664276      -0.0000008596     0.999993    0.00019566
   41      -16.3922672023      -0.0000007747     0.999993    0.00018675
   42      -16.3922679010      -0.0000006987     0.999993    0.00017829
   43      -16.3922685316      -0.0000006306     0.999993    0.00017026
   44      -16.3922691010      -0.0000005695     0.999993    0.00016263
   45      -16.3922696157      -0.0000005146     0.999993    0.00015539
   46      -16.3922700810      -0.0000004654     0.999993    0.00014852
   47      -16.3922705021      -0.0000004211     0.999993    0.00014199
   48      -16.3922708833      -0.0000003812     0.999993    0.00013579
   49      -16.3922712286      -0.0000003453     0.999994    0.00012990
   50      -16.3922715416      -0.0000003130     0.999994    0.00012429
   51      -16.3922718254      -0.0000002838     0.999994    0.00011896
   52      -16.3922720830      -0.0000002575     0.999994    0.00011389
   53      -16.3922723167      -0.0000002338     0.999994    0.00010907
   54      -16.3922725291      -0.0000002123     0.999994    0.00010448
   55      -16.3922727220      -0.0000001929     0.999994    0.00010010
   56      -16.3922728974      -0.0000001754     0.999994    0.00009594
   57      -16.3922730570      -0.0000001596     0.999994    0.00009197
   58      -16.3922732022      -0.0000001452     0.999994    0.00008818
   59      -16.3922733345      -0.0000001322     0.999994    0.00008457
   60      -16.3922734549      -0.0000001205     0.999994    0.00008113
   61      -16.3922735647      -0.0000001098     0.999994    0.00007784
   62      -16.3922736648      -0.0000001001     0.999994    0.00007471
   63      -16.3922737562      -0.0000000913     0.999994    0.00007171
   64      -16.3922738395      -0.0000000834     0.999994    0.00006885
   65      -16.3922739156      -0.0000000761     0.999994    0.00006611
   66      -16.3922739852      -0.0000000695     0.999994    0.00006350
   67      -16.3922740487      -0.0000000636     0.999994    0.00006100
   68      -16.3922741069      -0.0000000581     0.999994    0.00005860
   69      -16.3922741601      -0.0000000532     0.999994    0.00005632
   70      -16.3922742087      -0.0000000487     0.999994    0.00005413
   71      -16.3922742533      -0.0000000446     0.999994    0.00005203
   72      -16.3922742942      -0.0000000408     0.999994    0.00005002
   73      -16.3922743316      -0.0000000374     0.999994    0.00004810
   74      -16.3922743660      -0.0000000343     0.999994    0.00004626
   75      -16.3922743975      -0.0000000315     0.999994    0.00004450
   76      -16.3922744264      -0.0000000289     0.999994    0.00004280
   77      -16.3922744529      -0.0000000266     0.999994    0.00004118
   78      -16.3922744774      -0.0000000244     0.999994    0.00003963
   79      -16.3922744998      -0.0000000224     0.999994    0.00003814
   80      -16.3922745204      -0.0000000206     0.999994    0.00003671
   81      -16.3922745394      -0.0000000190     0.999994    0.00003534
   82      -16.3922745569      -0.0000000175     0.999994    0.00003402
   83      -16.3922745730      -0.0000000161     0.999994    0.00003276
   84      -16.3922745878      -0.0000000148     0.999994    0.00003154
   85      -16.3922746014      -0.0000000137     0.999994    0.00003038
   86      -16.3922746140      -0.0000000126     0.999994    0.00002926
   87      -16.3922746257      -0.0000000116     0.999994    0.00002819
   88      -16.3922746364      -0.0000000107     0.999994    0.00002715
   89      -16.3922746463      -0.0000000099     0.999994    0.00002616
   90      -16.3922746555      -0.0000000092     0.999994    0.00002521
   91      -16.3922746639      -0.0000000085     0.999994    0.00002429
   92      -16.3922746717      -0.0000000078     0.999994    0.00002341
   93      -16.3922746790      -0.0000000072     0.999994    0.00002257
   94      -16.3922746856      -0.0000000067     0.999994    0.00002175
   95      -16.3922746918      -0.0000000062     0.999994    0.00002097
   96      -16.3922746976      -0.0000000057     0.999994    0.00002022
   97      -16.3922747029      -0.0000000053     0.999994    0.00001950
   98      -16.3922747078      -0.0000000049     0.999994    0.00001880
   99      -16.3922747124      -0.0000000046     0.999994    0.00001813
  100      -16.3922747166      -0.0000000042     0.999994    0.00001749
  101      -16.3922747205      -0.0000000039     0.999994    0.00001687
  102      -16.3922747242      -0.0000000036     0.999994    0.00001627
  103      -16.3922747275      -0.0000000034     0.999994    0.00001570
  104      -16.3922747307      -0.0000000031     0.999994    0.00001514
  105      -16.3922747336      -0.0000000029     0.999994    0.00001461
  106      -16.3922747363      -0.0000000027     0.999994    0.00001410
  107      -16.3922747388      -0.0000000025     0.999994    0.00001360
  108      -16.3922747412      -0.0000000023     0.999994    0.00001313
  109      -16.3922747434      -0.0000000022     0.999994    0.00001267
  110      -16.3922747454      -0.0000000020     0.999994    0.00001223
  111      -16.3922747473      -0.0000000019     0.999994    0.00001180
  112      -16.3922747490      -0.0000000018     0.999994    0.00001140
  113      -16.3922747507      -0.0000000016     0.999994    0.00001100
  114      -16.3922747522      -0.0000000015     0.999994    0.00001062
  115      -16.3922747536      -0.0000000014     0.999994    0.00001025
  116      -16.3922747549      -0.0000000013     0.999994    0.00000990
  117      -16.3922747562      -0.0000000012     0.999994    0.00000956
  118      -16.3922747573      -0.0000000011     0.999994    0.00000923
  119      -16.3922747584      -0.0000000011     0.999994    0.00000892
  120      -16.3922747594      -0.0000000010     0.999994    0.00000861
  121      -16.3922747603      -0.0000000009     0.999994    0.00000832
  122      -16.3922747612      -0.0000000009     0.999994    0.00000803
  123      -16.3922747620      -0.0000000008     0.999994    0.00000776
  124      -16.3922747628      -0.0000000008     0.999994    0.00000750
  125      -16.3922747635      -0.0000000007     0.999994    0.00000724
  126      -16.3922747641      -0.0000000007     0.999994    0.00000700
  127      -16.3922747648      -0.0000000006     0.999994    0.00000676
  128      -16.3922747653      -0.0000000006     0.999994    0.00000653
  129      -16.3922747659      -0.0000000005     0.999994    0.00000631
  130      -16.3922747664      -0.0000000005     0.999994    0.00000610
  131      -16.3922747668      -0.0000000005     0.999994    0.00000590
  132      -16.3922747673      -0.0000000004     0.999994    0.00000570
  133      -16.3922747677      -0.0000000004     0.999994    0.00000551
  134      -16.3922747681      -0.0000000004     0.999994    0.00000532
  135      -16.3922747684      -0.0000000004     0.999994    0.00000514
  136      -16.3922747688      -0.0000000003     0.999994    0.00000497
  137      -16.3922747691      -0.0000000003     0.999994    0.00000481
  138      -16.3922747694      -0.0000000003     0.999994    0.00000465
  139      -16.3922747697      -0.0000000003     0.999994    0.00000449
  140      -16.3922747699      -0.0000000003     0.999994    0.00000434
  141      -16.3922747702      -0.0000000002     0.999994    0.00000420
  142      -16.3922747704      -0.0000000002     0.999994    0.00000406
  143      -16.3922747706      -0.0000000002     0.999994    0.00000392
  144      -16.3922747708      -0.0000000002     0.999994    0.00000379
  145      -16.3922747710      -0.0000000002     0.999994    0.00000367
  146      -16.3922747712      -0.0000000002     0.999994    0.00000355
  147      -16.3922747713      -0.0000000002     0.999994    0.00000343
  148      -16.3922747715      -0.0000000002     0.999994    0.00000332
  149      -16.3922747716      -0.0000000001     0.999994    0.00000321
  150      -16.3922747718      -0.0000000001     0.999994    0.00000310
  151      -16.3922747719      -0.0000000001     0.999994    0.00000300
  152      -16.3922747720      -0.0000000001     0.999994    0.00000290
  153      -16.3922747721      -0.0000000001     0.999994    0.00000281
  154      -16.3922747722      -0.0000000001     0.999994    0.00000272
  155      -16.3922747723      -0.0000000001     0.999994    0.00000263
  156      -16.3922747724      -0.0000000001     0.999994    0.00000254
  157      -16.3922747725      -0.0000000001     0.999994    0.00000246
  158      -16.3922747726      -0.0000000001     0.999994    0.00000238
  159      -16.3922747727      -0.0000000001     0.999994    0.00000230
  160      -16.3922747727      -0.0000000001     0.999994    0.00000223
  161      -16.3922747728      -0.0000000001     0.999994    0.00000215
  162      -16.3922747728      -0.0000000001     0.999994    0.00000208
  163      -16.3922747729      -0.0000000001     0.999994    0.00000202
  164      -16.3922747730      -0.0000000001     0.999994    0.00000195
  165      -16.3922747730      -0.0000000001     0.999994    0.00000189
  166      -16.3922747731      -0.0000000000     0.999994    0.00000183
  167      -16.3922747731      -0.0000000000     0.999994    0.00000177
  168      -16.3922747731      -0.0000000000     0.999994    0.00000171
  169      -16.3922747732      -0.0000000000     0.999994    0.00000166
  170      -16.3922747732      -0.0000000000     0.999994    0.00000160
  171      -16.3922747733      -0.0000000000     0.999994    0.00000155
  172      -16.3922747733      -0.0000000000     0.999994    0.00000150
  173      -16.3922747733      -0.0000000000     0.999994    0.00000145
  174      -16.3922747733      -0.0000000000     0.999994    0.00000141
  175      -16.3922747734      -0.0000000000     0.999994    0.00000136
  176      -16.3922747734      -0.0000000000     0.999994    0.00000132
  177      -16.3922747734      -0.0000000000     0.999994    0.00000127
  178      -16.3922747734      -0.0000000000     0.999994    0.00000123
  179      -16.3922747735      -0.0000000000     0.999994    0.00000119
  180      -16.3922747735      -0.0000000000     0.999994    0.00000116
  181      -16.3922747735      -0.0000000000     0.999994    0.00000112
  182      -16.3922747735      -0.0000000000     0.999994    0.00000108
  183      -16.3922747735      -0.0000000000     0.999994    0.00000105
  184      -16.3922747736      -0.0000000000     0.999994    0.00000101
  185      -16.3922747736      -0.0000000000     0.999994    0.00000098
  
--------------------------------------------------
 Final SA-REKS(2,2) energy:     -16.39227477
  
 State     Energy      FON(1)    FON(2)   Spin
  PPS  -16.46876071   1.999989  0.000011  0.00
  OSS  -16.31578883   1.000000  1.000000  0.00
 Trip  -16.35845442   1.000000  1.000000  1.00
--------------------------------------------------

 Lagrangian Wab:   0.00983381  0.00983338

--------------------------------------------------
 SSR: 2SI-2SA-REKS(2,2) Hamiltonian matrix
               PPS           OSS
   PPS   -16.46876071    0.01387438
   OSS     0.01387438  -16.31578883
--------------------------------------------------

----------------------------------------------------------------
 SSR: 2SI-2SA-REKS(2,2) states
                    E_n       C_{PPS}    C_{OSS}
 SSR state  1  -16.47000892  -0.995978   0.089603
 SSR state  2  -16.31454063  -0.089603  -0.995978
----------------------------------------------------------------

 unrelaxed SSR FONs for S0:  1.991960  0.008040

Total Energy:                      -16.4700089194 H         -448.1717 eV
Extrapolated to 0:                 -16.4700089194 H         -448.1717 eV

----------------------------------------------------------------------------------
 Solving CP-REKS equation for  1 state vector...
----------------------------------------------------------------------------------
  CG solver: Constructing Y initial guess
  CG solver: Iteration    1    eps =    0.000891939494
  CG solver: Iteration    2    eps =    0.000268802876
  CG solver: Iteration    3    eps =    0.000108656639
  CG solver: Iteration    4    eps =    0.000247610071
  CG solver: Iteration    5    eps =    0.000028145068
  CG solver: Iteration    6    eps =    0.000012409435
  CG solver: Iteration    7    eps =    0.000004879022
  CG solver: Iteration    8    eps =    0.000001788410
  CG solver: Iteration    9    eps =    0.000001640924
  CG solver: Iteration   10    eps =    0.000000842222
  CG solver: Iteration   11    eps =    0.000000104074
  CG solver: Iteration   12    eps =    0.000000021497
  CG solver: Iteration   13    eps =    0.000000005899
  Convergence reached in CG solver after   13 iterations
  CG solver: Calculating converged R, Z, Q2 matrix
----------------------------------------------------------------------------------

----------------------------------------------------------------------------------
 Solving CP-REKS equation for SI between  1 and  2 state vectors...
----------------------------------------------------------------------------------
  CG solver: Constructing Y initial guess
  CG solver: Iteration    1    eps =    0.067487271661
  CG solver: Iteration    2    eps =    0.005669049509
  CG solver: Iteration    3    eps =    0.003119282953
  CG solver: Iteration    4    eps =    0.014833767093
  CG solver: Iteration    5    eps =    0.001035604261
  CG solver: Iteration    6    eps =    0.000194784378
  CG solver: Iteration    7    eps =    0.000663492930
  CG solver: Iteration    8    eps =    0.000147164890
  CG solver: Iteration    9    eps =    0.000020079456
  CG solver: Iteration   10    eps =    0.000013128739
  CG solver: Iteration   11    eps =    0.000002904463
  CG solver: Iteration   12    eps =    0.000000305250
  CG solver: Iteration   13    eps =    0.000000029362
  CG solver: Iteration   14    eps =    0.000000002161
  Convergence reached in CG solver after   14 iterations
  CG solver: Calculating converged R, Z, Q2 matrix
----------------------------------------------------------------------------------

--------------------------------------------------
 Gradient Information
--------------------------------------------------
           1 st state (SSR)
     0.04282952     0.04847617     0.00011273
    -0.04137336    -0.10350534    -0.04999087
    -0.01507805    -0.00596030    -0.01339553
     0.02239950     0.00415320     0.02877135
    -0.01749719    -0.00332454     0.04520053
     0.00815781     0.06602663     0.04155481
     0.06633617    -0.01088554    -0.03168863
    -0.00118943     0.02191975    -0.03568726
    -0.02286466     0.03341996    -0.00802647
     0.05258448    -0.01188451     0.03414429
     0.02623787    -0.04817982    -0.01133062
    -0.11923855     0.02970193     0.00670174
    -0.00362290     0.00668631    -0.00418127
     0.00231882    -0.02664391    -0.00218478

           2 st state (SSR)
     0.09180619     0.07554813     0.02046817
    -0.10043290    -0.14925679    -0.06817685
    -0.01468870    -0.00487334    -0.01095265
     0.02543099     0.00397176     0.02753653
    -0.02039998     0.00416465     0.04370655
     0.10768700     0.04441292     0.03719778
    -0.03670491    -0.01213149    -0.04207063
    -0.00217090     0.03075726    -0.02516279
    -0.02570958     0.03639374    -0.00073898
     0.13825209     0.01854675     0.00877125
     0.02840007    -0.04843405    -0.00247493
    -0.19422739     0.02065204     0.01778974
    -0.00142319     0.00978728    -0.00292043
     0.00418120    -0.02953885    -0.00297276
--------------------------------------------------
 Coupling Information
--------------------------------------------------
 between  1 and  2 states
--------------------------------------------------
 g vector - difference gradient
    -0.00941052    -0.00055676     0.00057146
     0.01204108     0.01808269    -0.00152584
     0.00232871    -0.00282109    -0.00163194
    -0.00143992     0.00110004     0.00086627
     0.00469946    -0.00441954     0.00109978
    -0.07698717     0.00788116    -0.00396668
     0.07663766    -0.00391944     0.00694439
     0.00088780    -0.00345942    -0.00525926
     0.00175973    -0.00253015    -0.00459425
    -0.04421506    -0.01353086     0.01902486
    -0.00102652     0.00052439    -0.00426117
     0.03650668     0.00364396    -0.00635450
    -0.00110425    -0.00110320    -0.00137621
    -0.00067767     0.00110822     0.00046309

 h vector - derivative coupling
     0.08532326     0.07276890     0.06017313
    -0.09906737    -0.02848079    -0.05935697
     0.01392828    -0.01250701    -0.00215309
     0.00055438     0.00555599     0.00131635
     0.01777523    -0.00338394     0.00187766
    -0.14559407    -0.01710082    -0.03407288
     0.13382929    -0.02509721     0.00919899
     0.00214479     0.00568610     0.00048983
     0.00173131    -0.00561745    -0.00491209
    -0.00376098     0.01065654     0.03380035
     0.00039814     0.00217861     0.00131720
    -0.00881833    -0.00526375    -0.00396932
     0.00007471     0.00260528    -0.00405465
     0.00148136    -0.00200047     0.00034550

 G vector - GDV
    -0.02448834    -0.01353598    -0.01017772
     0.02952977     0.02287572     0.00909299
    -0.00019467    -0.00054348    -0.00122144
    -0.00151574     0.00009072     0.00061741
     0.00145139    -0.00374459     0.00074699
    -0.04976460     0.01080685     0.00217851
     0.05152054     0.00062298     0.00519100
     0.00049073    -0.00441876    -0.00526224
     0.00142246    -0.00148689    -0.00364375
    -0.04283381    -0.01521563     0.01268652
    -0.00108110     0.00012712    -0.00442785
     0.03749442     0.00452495    -0.00554400
    -0.00109986    -0.00155049    -0.00063042
    -0.00093119     0.00144747     0.00039399

 H vector - DCV - non-adiabatic coupling
     0.52919828     0.45990757     0.38148554
    -0.61316333    -0.15949214    -0.37741582
     0.09082414    -0.08239429    -0.01550023
     0.00185553     0.03642617     0.00932558
     0.11789276    -0.02649043     0.01314610
    -1.00983465    -0.09918136    -0.22019763
     0.93497531    -0.16333731     0.06619193
     0.01459339     0.03201518    -0.00293783
     0.01297755    -0.03845696    -0.03636255
    -0.07456388     0.05191006     0.23576035
     0.00134132     0.01439025     0.00344439
    -0.01389886    -0.02913028    -0.03241669
    -0.00079492     0.01522202    -0.02724141
     0.00859737    -0.01138847     0.00271826
--------------------------------------------------


--------------------------------------------------------------------------------
DFTB+ running times                          cpu [s]             wall clock [s]
--------------------------------------------------------------------------------
SCC                                    +     0.23  ( 41.2%)      0.23  ( 41.1%)
      Sparse to dense                        0.01  (  2.1%)      0.02  (  2.6%)
      Dense to sparse                        0.04  (  7.5%)      0.04  (  6.7%)
      Range separated Hamiltonian            0.02  (  3.7%)      0.03  (  4.6%)
  Density matrix creation                    0.03  (  4.5%)      0.02  (  3.9%)
Post-SCC processing                    +     0.33  ( 58.5%)      0.33  ( 58.2%)
  Force calculation                          0.33  ( 58.5%)      0.33  ( 58.0%)
--------------------------------------------------------------------------------
Missing                                +     0.00  (  0.3%)      0.00  (  0.7%)
Total                                  =     0.56  (100.0%)      0.57  (100.0%)
--------------------------------------------------------------------------------
