     6
  Step:   600            Position(A)                                  Velocity(au)
C        -0.03694635    -0.02652925     0.02487149    -0.00004032    -0.00000399    -0.00098319
N        -0.05054475    -0.03160648     1.22857020     0.00066252    -0.00016175    -0.00010617
H         0.29292498    -0.94148347    -0.42812789     0.00211869    -0.00208453     0.00073874
H         0.41457153    -0.79437691     1.86771760    -0.00590673    -0.00033308     0.00705432
H        -0.38964825     0.84854467     2.20123639     0.00069762     0.00097000     0.00087180
H        -0.38847454     0.97247387    -0.11825852    -0.00563590     0.00374284     0.00452615
