|===============================================================================
|
|  DFTB+ release 20.1
|
|  Copyright (C) 2006 - 2020  DFTB+ developers group
|
|===============================================================================
|
|  When publishing results obtained with DFTB+, please cite the following
|  reference:
|
|  * DFTB+, a software package for efficient approximate density functional
|    theory based atomistic simulations, J. Chem. Phys. 152, 124101 (2020).
|    [doi: 10.1063/1.5143190]
|
|  You should also cite additional publications crediting the parametrization
|  data you use. Please consult the documentation of the SK-files for the
|  references.
|
|===============================================================================

Reading input file 'dftb_in.hsd'
Parser version: 8

--------------------------------------------------------------------------------
Reading SK-files:
Done.


Processed input in HSD format written to 'dftb_pin.hsd'

Starting initialization...
--------------------------------------------------------------------------------
OpenMP threads:              1
Chosen random seed:          452511818
Mode:                        Static calculation
Self consistent charges:     Yes
SCC-tolerance:                 0.100000E-05
Max. scc iterations:                   1000
Shell resolved Hubbard:      No
Spin polarisation:           No
Nr. of up electrons:             6.000000
Nr. of down electrons:           6.000000
Periodic boundaries:         No
Electronic solver:           Relatively robust
Maximal SCC-cycles:                    1000
Initial charges:             Set automatically (system chrg:   0.100E+01)
Included shells:             C:  s, p
                             N:  s, p
                             H:  s
Spin coupling constants:     C   1(s)-1(s):  -0.455900E-01
                             C   1(s)-2(p):  -0.293000E-01
                             C   2(p)-1(s):  -0.293000E-01
                             C   2(p)-2(p):  -0.275500E-01
                             N   1(s)-1(s):  -0.468700E-01
                             N   1(s)-2(p):  -0.317000E-01
                             N   2(p)-1(s):  -0.317000E-01
                             N   2(p)-2(p):  -0.307200E-01
                             H   1(s)-1(s):  -0.792500E-01
Range separated hybrid:      Yes
  Screening parameter omega:   0.300000E+00
  Range separated algorithm:   MatrixBased
Extra options:
                             Mulliken analysis
                             Force calculation
Force type                   original
                             Eigenvector printing


REKS Calcuation:             Yes
SSR(2,2) Calcuation:         Yes
Energy Functional:           (PPS+OSS)/2
Number of Core Orbitals:                  5
Number of Active Orbitals:                2
Number of Basis:                         12
Number of States:                         2
State-Averaging Weight:          0.500000
                                 0.500000
State of Interest:                        1
Initial Guess:               Diagonalize H0 matrix
Newton-Raphson for FON opt:  Yes
NR max. Iterations:                      50
Level Shifting:              Yes
Shift Value:                     0.300000
W Scale Factor:              C  =    3.200000
                             N  =    3.200000
                             H  =    3.200000
Transition Dipole:           No
Gradient of Microstate:      No
CP-REKS Solver:              Preconditioned Conjugate-Gradient
CG max. Iterations:                     100
CG Tolerance:                  0.100000E-07
Memory for A and Hxc:        Direct Updating Without Saving
Non-Adiabatic Coupling:      Yes

--------------------------------------------------------------------------------

***  Geometry step: 0

  iSCC       reks energy        Diff energy         x_a       SCC error   
    1       -6.1924438747       0.0000000000     1.000000    0.93685277
    2       -6.1988871759      -0.0064433012     1.000000    0.05560521
    3       -6.2002371117      -0.0013499358     1.000000    0.02226782
    4       -6.2006263262      -0.0003892145     1.000000    0.01245782
    5       -6.2007559244      -0.0001295982     1.000000    0.00725887
    6       -6.2008033809      -0.0000474565     1.000000    0.00434703
    7       -6.2008220304      -0.0000186496     1.000000    0.00265824
    8       -6.2008297709      -0.0000077405     1.000000    0.00165261
    9       -6.2008331249      -0.0000033539     1.000000    0.00104141
   10       -6.2008346293      -0.0000015044     1.000000    0.00066371
   11       -6.2008353236      -0.0000006943     1.000000    0.00042706
   12       -6.2008356518      -0.0000003282     1.000000    0.00027705
   13       -6.2008358102      -0.0000001584     1.000000    0.00018101
   14       -6.2008358879      -0.0000000778     1.000000    0.00011900
   15       -6.2008359267      -0.0000000388     1.000000    0.00007867
   16       -6.2008359463      -0.0000000196     1.000000    0.00005467
   17       -6.2008359563      -0.0000000100     1.000000    0.00003906
   18       -6.2008359614      -0.0000000052     1.000000    0.00002798
   19       -6.2008359641      -0.0000000027     1.000000    0.00002008
   20       -6.2008359655      -0.0000000014     1.000000    0.00001443
   21       -6.2008359662      -0.0000000007     1.000000    0.00001065
   22       -6.2008359666      -0.0000000004     1.000000    0.00000795
   23       -6.2008359668      -0.0000000002     1.000000    0.00000593
   24       -6.2008359669      -0.0000000001     1.000000    0.00000442
   25       -6.2008359670      -0.0000000001     1.000000    0.00000329
   26       -6.2008359670      -0.0000000000     1.000000    0.00000245
   27       -6.2008359670      -0.0000000000     1.000000    0.00000182
   28       -6.2008359671      -0.0000000000     1.000000    0.00000135
   29       -6.2008359671      -0.0000000000     1.000000    0.00000100
   30       -6.2008359671      -0.0000000000     1.000000    0.00000074
  
--------------------------------------------------
 Final SA-REKS(2,2) energy:      -6.20083597
  
 State     Energy      FON(1)    FON(2)   Spin
  PPS   -6.17829338   2.000000  0.000000  0.00
  OSS   -6.22337856   1.000000  1.000000  0.00
 Trip   -6.22734584   1.000000  1.000000  1.00
--------------------------------------------------

 Lagrangian Wab:   0.00578349  0.00578349

--------------------------------------------------
 SSR: 2SI-2SA-REKS(2,2) Hamiltonian matrix
               PPS           OSS
   PPS    -6.17829338    0.00817908
   OSS     0.00817908   -6.22337856
--------------------------------------------------

----------------------------------------------------------------
 SSR: 2SI-2SA-REKS(2,2) states
                    E_n       C_{PPS}    C_{OSS}
 SSR state  1   -6.22481649  -0.173151   0.984895
 SSR state  2   -6.17685544  -0.984895  -0.173151
----------------------------------------------------------------

 unrelaxed SSR FONs for S0:  1.029981  0.970019

Total Energy:                       -6.2248164935 H         -169.3859 eV
Extrapolated to 0:                  -6.2248164935 H         -169.3859 eV

----------------------------------------------------------------------------------
 Solving CP-REKS equation for  1 state vector...
----------------------------------------------------------------------------------
  CG solver: Constructing Y initial guess
  CG solver: Iteration    1    eps =    0.000080833379
  CG solver: Iteration    2    eps =    0.000003792289
  CG solver: Iteration    3    eps =    0.000000687642
  CG solver: Iteration    4    eps =    0.000000010454
  CG solver: Iteration    5    eps =    0.000000000383
  Convergence reached in CG solver after    5 iterations
  CG solver: Calculating converged R, Z, Q2 matrix
----------------------------------------------------------------------------------

----------------------------------------------------------------------------------
 Solving CP-REKS equation for SI between  1 and  2 state vectors...
----------------------------------------------------------------------------------
  CG solver: Constructing Y initial guess
  CG solver: Iteration    1    eps =    0.000254581951
  CG solver: Iteration    2    eps =    0.000085386053
  CG solver: Iteration    3    eps =    0.000001787104
  CG solver: Iteration    4    eps =    0.000000067100
  CG solver: Iteration    5    eps =    0.000000004865
  Convergence reached in CG solver after    5 iterations
  CG solver: Calculating converged R, Z, Q2 matrix
----------------------------------------------------------------------------------

--------------------------------------------------
 Gradient Information
--------------------------------------------------
           1 st state (SSR)
    -0.11224285    -0.02506848    -0.10502587
     0.02791617    -0.02126637     0.06561729
     0.02995424     0.00321734     0.01188630
    -0.00419356     0.07177996     0.01471144
    -0.00419531    -0.04297865     0.00265019
     0.06276132     0.01431620     0.01016066

           2 st state (SSR)
    -0.10258351    -0.03919087    -0.15589116
     0.01076690    -0.01522556     0.08408447
     0.02917416     0.00244920     0.02125753
     0.00988467     0.07697121     0.02352207
    -0.00451601    -0.04939068     0.00961887
     0.05727379     0.02438671     0.01740822
--------------------------------------------------
 Coupling Information
--------------------------------------------------
 between  1 and  2 states
--------------------------------------------------
 g vector - difference gradient
     0.00418943    -0.00953017    -0.03063436
    -0.00793570     0.00493109     0.01308318
    -0.00063920     0.00450422     0.00526639
     0.00229134     0.00293315     0.00489966
     0.00408879    -0.00375541     0.00340731
    -0.00199465     0.00091713     0.00397782

 h vector - derivative coupling
     0.00261368     0.00556341     0.00986538
    -0.00326848    -0.00473508    -0.00898663
     0.00061816    -0.01354028    -0.00077693
     0.01432300    -0.00047392    -0.00058799
    -0.01173934     0.00095055     0.00082487
    -0.00254702     0.01223533    -0.00033870

 G vector - GDV
    -0.00482967     0.00706120     0.02543264
     0.00857464    -0.00302041    -0.00923359
     0.00039004     0.00038407    -0.00468561
    -0.00703912    -0.00259563    -0.00440531
     0.00016035     0.00320602    -0.00348434
     0.00274376    -0.00503526    -0.00362378

 H vector - DCV - non-adiabatic coupling
    -0.02143526    -0.17681600    -0.41121559
     0.00762804     0.12787469     0.26917816
    -0.01666158     0.29742123     0.05267942
    -0.26443636     0.03014776     0.04636816
     0.25916841    -0.04533706     0.00806333
     0.03573676    -0.23329062     0.03492651
--------------------------------------------------


--------------------------------------------------------------------------------
DFTB+ running times                          cpu [s]             wall clock [s]
--------------------------------------------------------------------------------
SCC                                    +     0.01  ( 56.1%)      0.01  ( 48.0%)
--------------------------------------------------------------------------------
Missing                                +     0.01  ( 43.9%)      0.01  ( 52.0%)
Total                                  =     0.02  (100.0%)      0.03  (100.0%)
--------------------------------------------------------------------------------
