 Fermi distribution function

Calculation with static geometry


********************************************************************************
 iSCC Total electronic   Diff electronic      SCC error    
   14   -0.52521050E+01   -0.66044947E-11    0.54624252E-08
********************************************************************************

 Total charge:     1.00000000

 Atomic gross charges (e)
 Atom           Charge
    1       0.30637801
    2      -0.18693529
    3       0.18264834
    4       0.25308920
    5       0.25888537
    6       0.18593437

Nr. of electrons (up):     12.00000000
Atom populations (up)
 Atom       Population
    1       3.69362199
    2       5.18693529
    3       0.81735166
    4       0.74691080
    5       0.74111463
    6       0.81406563

l-shell populations (up)
 Atom Sh.   l       Population
    1   1   0       1.42294831
    1   2   1       2.27067368
    2   1   0       1.54393359
    2   2   1       3.64300170
    3   1   0       0.81735166
    4   1   0       0.74691080
    5   1   0       0.74111463
    6   1   0       0.81406563

Orbital populations (up)
 Atom Sh.   l   m       Population  Label
    1   1   0   0       1.42294831  s
    1   2   1  -1       0.38065869  p_y
    1   2   1   0       0.87673335  p_z
    1   2   1   1       1.01328164  p_x
    2   1   0   0       1.54393359  s
    2   2   1  -1       1.37236320  p_y
    2   2   1   0       1.10492349  p_z
    2   2   1   1       1.16571501  p_x
    3   1   0   0       0.81735166  s
    4   1   0   0       0.74691080  s
    5   1   0   0       0.74111463  s
    6   1   0   0       0.81406563  s

Fermi level:                        -0.5244326383 H          -14.2705 eV
Band energy:                        -8.6461348828 H         -235.2733 eV
TS:                                  0.0000000000 H            0.0000 eV
Band free energy (E-TS):            -8.6461348828 H         -235.2733 eV
Extrapolated E(0K):                 -8.6461348828 H         -235.2733 eV
Input / Output electrons (q):     12.0000000000     12.0000000000

Energy H0:                          -5.3896777936 H         -146.6606 eV
Energy SCC:                          0.1375727522 H            3.7435 eV
Total Electronic energy:            -5.2521050414 H         -142.9170 eV
Repulsive energy:                    0.1346416258 H            3.6638 eV
Total energy:                       -5.1174634156 H         -139.2533 eV
Extrapolated to 0:                  -5.1174634156 H         -139.2533 eV
Total Mermin free energy:           -5.1174634156 H         -139.2533 eV
Force related energy:               -5.1174634156 H         -139.2533 eV

SCC converged

Excitation Energy:                   0.0963706588 H            2.6224 eV

Total Forces
    1     -0.008133548496     -0.000064487645      0.012852218865
    2      0.001239462806     -0.012054148822     -0.018590348511
    3      0.005765511052     -0.003113818435     -0.001959383641
    4      0.004212445804      0.007356814523      0.008069029599
    5     -0.001652650021      0.002087304347      0.001887183070
    6     -0.001431221145      0.005788336032     -0.002258699382

Maximal derivative component:        0.185903E-01 au


