 Fermi distribution function

Calculation with static geometry


********************************************************************************
 iSCC Total electronic   Diff electronic      SCC error    
   10   -0.54344772E+01   -0.32418512E-12    0.15759860E-07
********************************************************************************

 Total charge:     1.00000000

 Atomic gross charges (e)
 Atom           Charge
    1       0.14272749
    2      -0.02844851
    3       0.14653120
    4       0.27357980
    5       0.27564814
    6       0.18996187

Nr. of electrons (up):     12.00000000
Atom populations (up)
 Atom       Population
    1       3.85727251
    2       5.02844851
    3       0.85346880
    4       0.72642020
    5       0.72435186
    6       0.81003813

l-shell populations (up)
 Atom Sh.   l       Population
    1   1   0       1.29646106
    1   2   1       2.56081144
    2   1   0       1.41192992
    2   2   1       3.61651859
    3   1   0       0.85346880
    4   1   0       0.72642020
    5   1   0       0.72435186
    6   1   0       0.81003813

Orbital populations (up)
 Atom Sh.   l   m       Population  Label
    1   1   0   0       1.29646106  s
    1   2   1  -1       0.61279010  p_y
    1   2   1   0       0.88663183  p_z
    1   2   1   1       1.06138951  p_x
    2   1   0   0       1.41192992  s
    2   2   1  -1       1.29642918  p_y
    2   2   1   0       1.11147053  p_z
    2   2   1   1       1.20861888  p_x
    3   1   0   0       0.85346880  s
    4   1   0   0       0.72642020  s
    5   1   0   0       0.72435186  s
    6   1   0   0       0.81003813  s

Fermi level:                        -0.4874943788 H          -13.2654 eV
Band energy:                        -8.9792370006 H         -244.3375 eV
TS:                                  0.0000000000 H            0.0000 eV
Band free energy (E-TS):            -8.9792370006 H         -244.3375 eV
Extrapolated E(0K):                 -8.9792370006 H         -244.3375 eV
Input / Output electrons (q):     12.0000000000     12.0000000000

Energy H0:                          -5.5687814225 H         -151.5343 eV
Energy SCC:                          0.1343042688 H            3.6546 eV
Total Electronic energy:            -5.4344771537 H         -147.8796 eV
Repulsive energy:                    0.2096689026 H            5.7054 eV
Total energy:                       -5.2248082511 H         -142.1743 eV
Extrapolated to 0:                  -5.2248082511 H         -142.1743 eV
Total Mermin free energy:           -5.2248082511 H         -142.1743 eV
Force related energy:               -5.2248082511 H         -142.1743 eV

SCC converged

Excitation Energy:                   0.1407626944 H            3.8303 eV

Total Forces
    1     -0.012067810130     -0.000261094946     -0.030641088814
    2     -0.003395599829     -0.002364638569      0.015016325406
    3      0.002703269677      0.007749531970      0.003639725265
    4     -0.005064037802     -0.006638836877      0.003428818212
    5      0.010469185815      0.005808957062      0.004298708370
    6      0.007354992269     -0.004293918640      0.004257511561

Maximal derivative component:        0.306411E-01 au


