|===============================================================================
|
|  DFTB+ release 20.1
|
|  Copyright (C) 2006 - 2020  DFTB+ developers group
|
|===============================================================================
|
|  When publishing results obtained with DFTB+, please cite the following
|  reference:
|
|  * DFTB+, a software package for efficient approximate density functional
|    theory based atomistic simulations, J. Chem. Phys. 152, 124101 (2020).
|    [doi: 10.1063/1.5143190]
|
|  You should also cite additional publications crediting the parametrization
|  data you use. Please consult the documentation of the SK-files for the
|  references.
|
|===============================================================================

Reading input file 'dftb_in.hsd'
Parser version: 8

--------------------------------------------------------------------------------
Reading SK-files:
Done.


Processed input in HSD format written to 'dftb_pin.hsd'

Starting initialization...
--------------------------------------------------------------------------------
OpenMP threads:              1
Chosen random seed:          511513660
Mode:                        Static calculation
Self consistent charges:     Yes
SCC-tolerance:                 0.100000E-05
Max. scc iterations:                   1000
Shell resolved Hubbard:      No
Spin polarisation:           No
Nr. of up electrons:             6.000000
Nr. of down electrons:           6.000000
Periodic boundaries:         No
Electronic solver:           Relatively robust
Maximal SCC-cycles:                    1000
Initial charges:             Set automatically (system chrg:   0.100E+01)
Included shells:             C:  s, p
                             N:  s, p
                             H:  s
Spin coupling constants:     C   1(s)-1(s):  -0.455900E-01
                             C   1(s)-2(p):  -0.293000E-01
                             C   2(p)-1(s):  -0.293000E-01
                             C   2(p)-2(p):  -0.275500E-01
                             N   1(s)-1(s):  -0.468700E-01
                             N   1(s)-2(p):  -0.317000E-01
                             N   2(p)-1(s):  -0.317000E-01
                             N   2(p)-2(p):  -0.307200E-01
                             H   1(s)-1(s):  -0.792500E-01
Range separated hybrid:      Yes
  Screening parameter omega:   0.300000E+00
  Range separated algorithm:   MatrixBased
Extra options:
                             Mulliken analysis
                             Force calculation
Force type                   original
                             Eigenvector printing


REKS Calcuation:             Yes
SSR(2,2) Calcuation:         Yes
Energy Functional:           (PPS+OSS)/2
Number of Core Orbitals:                  5
Number of Active Orbitals:                2
Number of Basis:                         12
Number of States:                         2
State-Averaging Weight:          0.500000
                                 0.500000
State of Interest:                        1
Initial Guess:               Diagonalize H0 matrix
Newton-Raphson for FON opt:  Yes
NR max. Iterations:                      50
Level Shifting:              Yes
Shift Value:                     0.300000
W Scale Factor:              C  =    3.000000
                             N  =    3.000000
                             H  =    3.000000
Transition Dipole:           No
Gradient of Microstate:      No
CP-REKS Solver:              Preconditioned Conjugate-Gradient
CG max. Iterations:                     100
CG Tolerance:                  0.100000E-07
Memory for A and Hxc:        Direct Updating Without Saving
Non-Adiabatic Coupling:      Yes

--------------------------------------------------------------------------------

***  Geometry step: 0

  iSCC       reks energy        Diff energy         x_a       SCC error   
    1       -6.2629972857       0.0000000000     0.998717    1.18237729
    2       -6.2767281127      -0.0137308269     0.999519    0.11078667
    3       -6.2806526273      -0.0039245146     0.999744    0.05202270
    4       -6.2823942717      -0.0017416444     0.999834    0.02662815
    5       -6.2833373512      -0.0009430795     0.999876    0.01451437
    6       -6.2839355073      -0.0005981561     0.999898    0.00804386
    7       -6.2843560497      -0.0004205424     0.999910    0.00628163
    8       -6.2846673859      -0.0003113362     0.999918    0.00569321
    9       -6.2849026126      -0.0002352267     0.999923    0.00505194
   10       -6.2850811424      -0.0001785297     0.999927    0.00442276
   11       -6.2852162623      -0.0001351200     0.999930    0.00383605
   12       -6.2853179296      -0.0001016672     0.999931    0.00330483
   13       -6.2853939057      -0.0000759761     0.999933    0.00287330
   14       -6.2854503000      -0.0000563944     0.999934    0.00257386
   15       -6.2854919001      -0.0000416001     0.999935    0.00228525
   16       -6.2855224189      -0.0000305188     0.999935    0.00201418
   17       -6.2855447025      -0.0000222836     0.999935    0.00176442
   18       -6.2855609078      -0.0000162054     0.999936    0.00153770
   19       -6.2855726531      -0.0000117453     0.999936    0.00133427
   20       -6.2855811418      -0.0000084887     0.999936    0.00115344
   21       -6.2855872623      -0.0000061205     0.999936    0.00099395
   22       -6.2855916666      -0.0000044043     0.999936    0.00085415
   23       -6.2855948307      -0.0000031641     0.999936    0.00073228
   24       -6.2855971006      -0.0000022699     0.999936    0.00062650
   25       -6.2855987272      -0.0000016265     0.999936    0.00053504
   26       -6.2855998916      -0.0000011644     0.999936    0.00045622
   27       -6.2856007244      -0.0000008328     0.999936    0.00038848
   28       -6.2856013196      -0.0000005953     0.999936    0.00033041
   29       -6.2856017448      -0.0000004252     0.999936    0.00028073
   30       -6.2856020484      -0.0000003036     0.999936    0.00023831
   31       -6.2856022650      -0.0000002166     0.999936    0.00020213
   32       -6.2856024196      -0.0000001545     0.999936    0.00017133
   33       -6.2856025298      -0.0000001102     0.999936    0.00014514
   34       -6.2856026083      -0.0000000786     0.999936    0.00012288
   35       -6.2856026643      -0.0000000560     0.999936    0.00010399
   36       -6.2856027042      -0.0000000399     0.999936    0.00008797
   37       -6.2856027327      -0.0000000284     0.999936    0.00007439
   38       -6.2856027529      -0.0000000203     0.999936    0.00006289
   39       -6.2856027673      -0.0000000144     0.999936    0.00005315
   40       -6.2856027776      -0.0000000103     0.999936    0.00004491
   41       -6.2856027849      -0.0000000073     0.999936    0.00003794
   42       -6.2856027901      -0.0000000052     0.999936    0.00003205
   43       -6.2856027939      -0.0000000037     0.999936    0.00002707
   44       -6.2856027965      -0.0000000026     0.999936    0.00002286
   45       -6.2856027984      -0.0000000019     0.999936    0.00001930
   46       -6.2856027997      -0.0000000013     0.999936    0.00001629
   47       -6.2856028007      -0.0000000010     0.999936    0.00001375
   48       -6.2856028013      -0.0000000007     0.999936    0.00001161
   49       -6.2856028018      -0.0000000005     0.999936    0.00000980
   50       -6.2856028022      -0.0000000003     0.999936    0.00000827
   51       -6.2856028024      -0.0000000002     0.999936    0.00000698
   52       -6.2856028026      -0.0000000002     0.999936    0.00000589
   53       -6.2856028027      -0.0000000001     0.999936    0.00000497
   54       -6.2856028028      -0.0000000001     0.999936    0.00000419
   55       -6.2856028029      -0.0000000001     0.999936    0.00000354
   56       -6.2856028029      -0.0000000000     0.999936    0.00000299
   57       -6.2856028029      -0.0000000000     0.999936    0.00000252
   58       -6.2856028030      -0.0000000000     0.999936    0.00000213
   59       -6.2856028030      -0.0000000000     0.999936    0.00000179
   60       -6.2856028030      -0.0000000000     0.999936    0.00000151
   61       -6.2856028030      -0.0000000000     0.999936    0.00000128
   62       -6.2856028030      -0.0000000000     0.999936    0.00000108
   63       -6.2856028030      -0.0000000000     0.999936    0.00000091
  
--------------------------------------------------
 Final SA-REKS(2,2) energy:      -6.28560280
  
 State     Energy      FON(1)    FON(2)   Spin
  PPS   -6.40986648   1.999873  0.000127  0.00
  OSS   -6.16133913   1.000000  1.000000  0.00
 Trip   -6.24346431   1.000000  1.000000  1.00
--------------------------------------------------

 Lagrangian Wab:  -0.00713753 -0.00713726

--------------------------------------------------
 SSR: 2SI-2SA-REKS(2,2) Hamiltonian matrix
               PPS           OSS
   PPS    -6.40986648   -0.01001314
   OSS    -0.01001314   -6.16133913
--------------------------------------------------

----------------------------------------------------------------
 SSR: 2SI-2SA-REKS(2,2) states
                    E_n       C_{PPS}    C_{OSS}
 SSR state  1   -6.41026926  -0.999192  -0.040192
 SSR state  2   -6.16093635   0.040192  -0.999192
----------------------------------------------------------------

 unrelaxed SSR FONs for S0:  1.998257  0.001743

Total Energy:                       -6.4102692563 H         -174.4323 eV
Extrapolated to 0:                  -6.4102692563 H         -174.4323 eV

----------------------------------------------------------------------------------
 Solving CP-REKS equation for  1 state vector...
----------------------------------------------------------------------------------
  CG solver: Constructing Y initial guess
  CG solver: Iteration    1    eps =    0.000127431260
  CG solver: Iteration    2    eps =    0.000081483062
  CG solver: Iteration    3    eps =    0.000011601311
  CG solver: Iteration    4    eps =    0.000001101092
  CG solver: Iteration    5    eps =    0.000000014557
  CG solver: Iteration    6    eps =    0.000000005687
  Convergence reached in CG solver after    6 iterations
  CG solver: Calculating converged R, Z, Q2 matrix
----------------------------------------------------------------------------------

----------------------------------------------------------------------------------
 Solving CP-REKS equation for SI between  1 and  2 state vectors...
----------------------------------------------------------------------------------
  CG solver: Constructing Y initial guess
  CG solver: Iteration    1    eps =    0.003390184129
  CG solver: Iteration    2    eps =    0.005282534639
  CG solver: Iteration    3    eps =    0.000646220963
  CG solver: Iteration    4    eps =    0.000007469783
  CG solver: Iteration    5    eps =    0.000001050033
  CG solver: Iteration    6    eps =    0.000000020249
  CG solver: Iteration    7    eps =    0.000000000735
  Convergence reached in CG solver after    7 iterations
  CG solver: Calculating converged R, Z, Q2 matrix
----------------------------------------------------------------------------------

--------------------------------------------------
 Gradient Information
--------------------------------------------------
           1 st state (SSR)
    -0.00101354    -0.00013239    -0.01472893
     0.00104386    -0.00522835     0.01434118
     0.01283968    -0.00238665     0.00614094
     0.01366831    -0.00322366    -0.00100145
    -0.01456999     0.00614356    -0.00784235
    -0.01196832     0.00482748     0.00309062

           2 st state (SSR)
     0.00083264    -0.00207814     0.09063178
    -0.00160311     0.00630201    -0.10630196
    -0.01361872    -0.01194905     0.02132053
    -0.01122770     0.00238720    -0.00907937
     0.01099034    -0.00344457    -0.01558763
     0.01462655     0.00878255     0.01901666
--------------------------------------------------
 Coupling Information
--------------------------------------------------
 between  1 and  2 states
--------------------------------------------------
 g vector - difference gradient
    -0.00093590     0.00122522    -0.05500675
     0.00132350    -0.00593423     0.06221170
     0.01445365     0.00437670    -0.00752125
     0.01375504    -0.00272459     0.00409357
    -0.01414729     0.00471498     0.00396644
    -0.01444899    -0.00165809    -0.00774371

 h vector - derivative coupling
     0.00012183    -0.00309251     0.02675168
     0.00005299     0.00186596    -0.02103021
    -0.01466328     0.00521218    -0.00115602
    -0.01571966    -0.00111608    -0.00051524
     0.01645209     0.00117426    -0.00100824
     0.01375603    -0.00404381    -0.00304197

 G vector - GDV
    -0.00092309     0.00097288    -0.05268035
     0.00132348    -0.00576518     0.06032157
     0.01322920     0.00478120    -0.00758980
     0.01244800    -0.00280543     0.00403896
    -0.01278016     0.00479407     0.00387264
    -0.01329743    -0.00197753    -0.00796302

 H vector - DCV - non-adiabatic coupling
     0.00078855    -0.01275777     0.12466613
    -0.00021451     0.00937129    -0.10411412
    -0.06327612     0.01942705    -0.00219860
    -0.06727418    -0.00358409    -0.00337848
     0.07032861     0.00317552    -0.00530844
     0.05964765    -0.01563200    -0.00966649
--------------------------------------------------


--------------------------------------------------------------------------------
DFTB+ running times                          cpu [s]             wall clock [s]
--------------------------------------------------------------------------------
SCC                                    +     0.03  ( 70.9%)      0.03  ( 66.7%)
Post-SCC processing                    +     0.01  ( 25.8%)      0.01  ( 23.8%)
--------------------------------------------------------------------------------
Missing                                +     0.00  (  3.2%)      0.00  (  9.5%)
Total                                  =     0.04  (100.0%)      0.04  (100.0%)
--------------------------------------------------------------------------------
