 Fermi distribution function

Calculation with static geometry


********************************************************************************
 iSCC Total electronic   Diff electronic      SCC error    
   11   -0.54036925E+01   -0.44000359E-11    0.23779694E-07
********************************************************************************

 Total charge:     1.00000000

 Atomic gross charges (e)
 Atom           Charge
    1       0.32097301
    2      -0.21666271
    3       0.13197546
    4       0.30423655
    5       0.30270267
    6       0.15677501

Nr. of electrons (up):     12.00000000
Atom populations (up)
 Atom       Population
    1       3.67902699
    2       5.21666271
    3       0.86802454
    4       0.69576345
    5       0.69729733
    6       0.84322499

l-shell populations (up)
 Atom Sh.   l       Population
    1   1   0       1.28712791
    1   2   1       2.39189907
    2   1   0       1.39547727
    2   2   1       3.82118543
    3   1   0       0.86802454
    4   1   0       0.69576345
    5   1   0       0.69729733
    6   1   0       0.84322499

Orbital populations (up)
 Atom Sh.   l   m       Population  Label
    1   1   0   0       1.28712791  s
    1   2   1  -1       0.55960245  p_y
    1   2   1   0       0.89981325  p_z
    1   2   1   1       0.93248338  p_x
    2   1   0   0       1.39547727  s
    2   2   1  -1       1.36463053  p_y
    2   2   1   0       1.07073641  p_z
    2   2   1   1       1.38581850  p_x
    3   1   0   0       0.86802454  s
    4   1   0   0       0.69576345  s
    5   1   0   0       0.69729733  s
    6   1   0   0       0.84322499  s

Fermi level:                        -0.4789353940 H          -13.0325 eV
Band energy:                        -8.8624504244 H         -241.1595 eV
TS:                                  0.0000000000 H            0.0000 eV
Band free energy (E-TS):            -8.8624504244 H         -241.1595 eV
Extrapolated E(0K):                 -8.8624504244 H         -241.1595 eV
Input / Output electrons (q):     12.0000000000     12.0000000000

Energy H0:                          -5.5359374525 H         -150.6405 eV
Energy SCC:                          0.1322449710 H            3.5986 eV
Total Electronic energy:            -5.4036924815 H         -147.0420 eV
Repulsive energy:                    0.2144452246 H            5.8354 eV
Total energy:                       -5.1892472569 H         -141.2066 eV
Extrapolated to 0:                  -5.1892472569 H         -141.2066 eV
Total Mermin free energy:           -5.1892472569 H         -141.2066 eV
Force related energy:               -5.1892472569 H         -141.2066 eV

SCC converged

Excitation Energy:                   0.0777990460 H            2.1170 eV

Total Forces
    1     -0.008383098932      0.013237289400     -0.024714729653
    2      0.002060255270     -0.005970585534      0.026730702844
    3     -0.003274030137     -0.018573285678      0.000204568679
    4     -0.013634345747      0.011534501462     -0.001054235475
    5      0.014004421410     -0.009919402758     -0.003488435571
    6      0.009226798137      0.009691483108      0.002322129175

Maximal derivative component:        0.267307E-01 au


