|===============================================================================
|
|  DFTB+ release 20.1
|
|  Copyright (C) 2006 - 2020  DFTB+ developers group
|
|===============================================================================
|
|  When publishing results obtained with DFTB+, please cite the following
|  reference:
|
|  * DFTB+, a software package for efficient approximate density functional
|    theory based atomistic simulations, J. Chem. Phys. 152, 124101 (2020).
|    [doi: 10.1063/1.5143190]
|
|  You should also cite additional publications crediting the parametrization
|  data you use. Please consult the documentation of the SK-files for the
|  references.
|
|===============================================================================

Reading input file 'dftb_in.hsd'
Parser version: 8

--------------------------------------------------------------------------------
Reading SK-files:
Done.


Processed input in HSD format written to 'dftb_pin.hsd'

Starting initialization...
--------------------------------------------------------------------------------
WARNING!
-> Excited state forces are not implemented yet for fractional occupations, kT=  0.3158E-02K
OpenMP threads:              1
Chosen random seed:          433431825
Mode:                        Static calculation
Self consistent charges:     Yes
SCC-tolerance:                 0.100000E-05
Max. scc iterations:                    100
Shell resolved Hubbard:      No
Spin polarisation:           No
Nr. of up electrons:             6.000000
Nr. of down electrons:           6.000000
Periodic boundaries:         No
Electronic solver:           Relatively robust
Mixer:                       Broyden mixer
Mixing parameter:                  0.200000
Maximal SCC-cycles:                     100
Nr. of chrg. vec. in memory:              0
Electronic temperature:        0.100000E-07 H      0.272114E-06 eV
Initial charges:             Set automatically (system chrg:   0.100E+01)
Included shells:             C:  s, p
                             N:  s, p
                             H:  s
Extra options:
                             Mulliken analysis
                             Force calculation
Force type                   original
                             Eigenvector printing

--------------------------------------------------------------------------------

***  Geometry step: 0

 iSCC Total electronic   Diff electronic      SCC error    
    1   -0.53923352E+01    0.00000000E+00    0.90327231E+00
    2   -0.53984760E+01   -0.61408656E-02    0.62845983E+00
    3   -0.54031600E+01   -0.46839215E-02    0.96757671E-01
    4   -0.54036344E+01   -0.47444162E-03    0.36033931E-01
    5   -0.54036797E+01   -0.45297835E-04    0.21830716E-01
    6   -0.54036836E+01   -0.39124838E-05    0.15873929E-01
    7   -0.54036925E+01   -0.88740701E-05    0.16632845E-03
    8   -0.54036925E+01    0.21951854E-08    0.30071166E-03
    9   -0.54036925E+01   -0.34373517E-08    0.54242207E-05
   10   -0.54036925E+01    0.31405989E-11    0.10902874E-04
   11   -0.54036925E+01   -0.44000359E-11    0.23779694E-07
>> Charges saved for restart in charges.bin

Total Energy:                       -5.1114482109 H         -139.0896 eV
Extrapolated to 0:                  -5.1892472569 H         -141.2066 eV
Total Mermin free energy:           -5.1114482109 H         -139.0896 eV
Force related energy:               -5.1892472569 H         -141.2066 eV

--------------------------------------------------------------------------------
DFTB+ running times                          cpu [s]             wall clock [s]
--------------------------------------------------------------------------------
SCC                                    +     0.01  ( 63.5%)      0.04  ( 67.2%)
Post-SCC processing                    +     0.00  ( 27.8%)      0.01  ( 24.1%)
--------------------------------------------------------------------------------
Missing                                +     0.00  (  8.7%)      0.00  (  8.6%)
Total                                  =     0.02  (100.0%)      0.06  (100.0%)
--------------------------------------------------------------------------------
