|===============================================================================
|
|  DFTB+ release 20.1
|
|  Copyright (C) 2006 - 2020  DFTB+ developers group
|
|===============================================================================
|
|  When publishing results obtained with DFTB+, please cite the following
|  reference:
|
|  * DFTB+, a software package for efficient approximate density functional
|    theory based atomistic simulations, J. Chem. Phys. 152, 124101 (2020).
|    [doi: 10.1063/1.5143190]
|
|  You should also cite additional publications crediting the parametrization
|  data you use. Please consult the documentation of the SK-files for the
|  references.
|
|===============================================================================

Reading input file 'dftb_in.hsd'
Parser version: 8

--------------------------------------------------------------------------------
Reading SK-files:
Done.


Processed input in HSD format written to 'dftb_pin.hsd'

Starting initialization...
--------------------------------------------------------------------------------
OpenMP threads:              1
Chosen random seed:          452307730
Mode:                        Static calculation
Self consistent charges:     Yes
SCC-tolerance:                 0.100000E-05
Max. scc iterations:                   1000
Shell resolved Hubbard:      No
Spin polarisation:           No
Nr. of up electrons:             6.000000
Nr. of down electrons:           6.000000
Periodic boundaries:         No
Electronic solver:           Relatively robust
Maximal SCC-cycles:                    1000
Initial charges:             Set automatically (system chrg:   0.100E+01)
Included shells:             C:  s, p
                             N:  s, p
                             H:  s
Spin coupling constants:     C   1(s)-1(s):  -0.455900E-01
                             C   1(s)-2(p):  -0.293000E-01
                             C   2(p)-1(s):  -0.293000E-01
                             C   2(p)-2(p):  -0.275500E-01
                             N   1(s)-1(s):  -0.468700E-01
                             N   1(s)-2(p):  -0.317000E-01
                             N   2(p)-1(s):  -0.317000E-01
                             N   2(p)-2(p):  -0.307200E-01
                             H   1(s)-1(s):  -0.792500E-01
Range separated hybrid:      Yes
  Screening parameter omega:   0.300000E+00
  Range separated algorithm:   MatrixBased
Extra options:
                             Mulliken analysis
                             Force calculation
Force type                   original
                             Eigenvector printing


REKS Calcuation:             Yes
SSR(2,2) Calcuation:         Yes
Energy Functional:           (PPS+OSS)/2
Number of Core Orbitals:                  5
Number of Active Orbitals:                2
Number of Basis:                         12
Number of States:                         2
State-Averaging Weight:          0.500000
                                 0.500000
State of Interest:                        1
Initial Guess:               Diagonalize H0 matrix
Newton-Raphson for FON opt:  Yes
NR max. Iterations:                      50
Level Shifting:              Yes
Shift Value:                     0.300000
W Scale Factor:              C  =    3.200000
                             N  =    3.200000
                             H  =    3.200000
Transition Dipole:           No
Gradient of Microstate:      No
CP-REKS Solver:              Preconditioned Conjugate-Gradient
CG max. Iterations:                     100
CG Tolerance:                  0.100000E-07
Memory for A and Hxc:        Direct Updating Without Saving
Non-Adiabatic Coupling:      Yes

--------------------------------------------------------------------------------

***  Geometry step: 0

  iSCC       reks energy        Diff energy         x_a       SCC error   
    1       -6.1095639072       0.0000000000     0.964256    1.21264495
    2       -6.1579992615      -0.0484353543     0.999986    0.15726070
    3       -6.1695293227      -0.0115300612     1.000000    0.07359184
    4       -6.1719346471      -0.0024053244     1.000000    0.03022490
    5       -6.1729339092      -0.0009992621     1.000000    0.02726006
    6       -6.1734077352      -0.0004738260     1.000000    0.01338423
    7       -6.1736618613      -0.0002541261     1.000000    0.01733662
    8       -6.1738002167      -0.0001383554     1.000000    0.00840361
    9       -6.1738853302      -0.0000851135     1.000000    0.01310207
   10       -6.1739333016      -0.0000479714     1.000000    0.00692891
   11       -6.1739666854      -0.0000333838     1.000000    0.01094054
   12       -6.1739846133      -0.0000179279     1.000000    0.00691191
   13       -6.1739993462      -0.0000147329     1.000000    0.00975863
   14       -6.1740058465      -0.0000065003     1.000000    0.00732002
   15       -6.1740130795      -0.0000072329     1.000000    0.00911220
   16       -6.1740147862      -0.0000017067     1.000000    0.00762998
   17       -6.1740187754      -0.0000039892     1.000000    0.00877932
   18       -6.1740183014       0.0000004740     1.000000    0.00788336
   19       -6.1740208226      -0.0000025212     1.000000    0.00863691
   20       -6.1740192684       0.0000015543     1.000000    0.00810523
   21       -6.1740211132      -0.0000018448     1.000000    0.00861313
   22       -6.1740189626       0.0000021505     1.000000    0.00831036
   23       -6.1740205040      -0.0000015413     1.000000    0.00866477
   24       -6.1740179761       0.0000025279     1.000000    0.00850726
   25       -6.1740193996      -0.0000014236     1.000000    0.00876530
   26       -6.1740165945       0.0000028052     1.000000    0.00870076
   27       -6.1740179989      -0.0000014044     1.000000    0.00889811
   28       -6.1740149616       0.0000030373     1.000000    0.00889356
   29       -6.1740164033      -0.0000014417     1.000000    0.00905266
   30       -6.1740131529       0.0000032504     1.000000    0.00908712
   31       -6.1740146672      -0.0000015143     1.000000    0.00922217
   32       -6.1740112095       0.0000034577     1.000000    0.00928223
   33       -6.1740128207      -0.0000016112     1.000000    0.00940223
   34       -6.1740091549       0.0000036658     1.000000    0.00947924
   35       -6.1740108815      -0.0000017265     1.000000    0.00958993
   36       -6.1740070032       0.0000038783     1.000000    0.00967830
   37       -6.1740088602      -0.0000018570     1.000000    0.00978332
   38       -6.1740047630       0.0000040972     1.000000    0.00987942
   39       -6.1740067638      -0.0000020008     1.000000    0.00998107
   40       -6.1740024398       0.0000043240     1.000000    0.01008254
   41       -6.1740045967      -0.0000021569     1.000000    0.01018227
   42       -6.1740000374       0.0000045593     1.000000    0.01028755
   43       -6.1740023622      -0.0000023248     1.000000    0.01038627
   44       -6.1739975585       0.0000048037     1.000000    0.01049432
   45       -6.1740000627      -0.0000025042     1.000000    0.01059258
   46       -6.1739950052       0.0000050575     1.000000    0.01070270
   47       -6.1739977003      -0.0000026951     1.000000    0.01080082
   48       -6.1739923793       0.0000053211     1.000000    0.01091254
   49       -6.1739952768      -0.0000028975     1.000000    0.01101069
   50       -6.1739896823       0.0000055945     1.000000    0.01112367
   51       -6.1739927939      -0.0000031116     1.000000    0.01122193
   52       -6.1739869159       0.0000058779     1.000000    0.01133592
   53       -6.1739902533      -0.0000033374     1.000000    0.01143431
   54       -6.1739840819       0.0000061714     1.000000    0.01154911
   55       -6.1739876571      -0.0000035751     1.000000    0.01164761
   56       -6.1739811822       0.0000064749     1.000000    0.01176306
   57       -6.1739850070      -0.0000038249     1.000000    0.01186162
   58       -6.1739782186       0.0000067884     1.000000    0.01197759
   59       -6.1739823054      -0.0000040868     1.000000    0.01207614
   60       -6.1739751936       0.0000071118     1.000000    0.01219250
   61       -6.1739795546      -0.0000043610     1.000000    0.01229097
   62       -6.1739721096       0.0000074450     1.000000    0.01240759
   63       -6.1739767570      -0.0000046474     1.000000    0.01250591
   64       -6.1739689693       0.0000077878     1.000000    0.01262268
   65       -6.1739739155      -0.0000049462     1.000000    0.01272074
   66       -6.1739657756       0.0000081399     1.000000    0.01283756
   67       -6.1739710330      -0.0000052573     1.000000    0.01293528
   68       -6.1739625319       0.0000085011     1.000000    0.01305202
   69       -6.1739681125      -0.0000055806     1.000000    0.01314930
   70       -6.1739592414       0.0000088711     1.000000    0.01326586
   71       -6.1739651575      -0.0000059160     1.000000    0.01336261
   72       -6.1739559080       0.0000092495     1.000000    0.01347887
   73       -6.1739621714      -0.0000062633     1.000000    0.01357500
   74       -6.1739525355       0.0000096359     1.000000    0.01369084
   75       -6.1739591578      -0.0000066223     1.000000    0.01378627
   76       -6.1739491279       0.0000100299     1.000000    0.01390158
   77       -6.1739561206      -0.0000069927     1.000000    0.01399619
   78       -6.1739456896       0.0000104310     1.000000    0.01411086
   79       -6.1739530636      -0.0000073740     1.000000    0.01420459
   80       -6.1739422250       0.0000108386     1.000000    0.01431850
   81       -6.1739499910      -0.0000077660     1.000000    0.01441124
   82       -6.1739387387       0.0000112523     1.000000    0.01452428
   83       -6.1739469069      -0.0000081681     1.000000    0.01461596
   84       -6.1739352355       0.0000116714     1.000000    0.01472802
   85       -6.1739438154      -0.0000085799     1.000000    0.01481855
   86       -6.1739317201       0.0000120953     1.000000    0.01492953
   87       -6.1739407208      -0.0000090008     1.000000    0.01501883
   88       -6.1739281974       0.0000125234     1.000000    0.01512861
   89       -6.1739376274      -0.0000094301     1.000000    0.01521661
   90       -6.1739246724       0.0000129550     1.000000    0.01532509
   91       -6.1739345395      -0.0000098671     1.000000    0.01541172
   92       -6.1739211501       0.0000133895     1.000000    0.01551881
   93       -6.1739314614      -0.0000103113     1.000000    0.01560399
   94       -6.1739176353       0.0000138261     1.000000    0.01570959
   95       -6.1739283971      -0.0000107618     1.000000    0.01579326
   96       -6.1739141331       0.0000142641     1.000000    0.01589729
   97       -6.1739253510      -0.0000112179     1.000000    0.01597940
   98       -6.1739106482       0.0000147028     1.000000    0.01608176
   99       -6.1739223269      -0.0000116788     1.000000    0.01616224
  100       -6.1739071854       0.0000151416     1.000000    0.01626286
  101       -6.1739193290      -0.0000121436     1.000000    0.01634168
  102       -6.1739037494       0.0000155796     1.000000    0.01644047
  103       -6.1739163609      -0.0000126116     1.000000    0.01651758
  104       -6.1739003446       0.0000160163     1.000000    0.01661449
  105       -6.1739134264      -0.0000130818     1.000000    0.01668984
  106       -6.1738969755       0.0000164509     1.000000    0.01678480
  107       -6.1739105289      -0.0000135534     1.000000    0.01685837
  108       -6.1738936461       0.0000168828     1.000000    0.01695131
  109       -6.1739076717      -0.0000140256     1.000000    0.01702307
  110       -6.1738903605       0.0000173113     1.000000    0.01711396
  111       -6.1739048580      -0.0000144976     1.000000    0.01718387
  112       -6.1738871223       0.0000177358     1.000000    0.01727266
  113       -6.1739020907      -0.0000149684     1.000000    0.01734072
  114       -6.1738839350       0.0000181557     1.000000    0.01742736
  115       -6.1738993723      -0.0000154373     1.000000    0.01749355
  116       -6.1738808020       0.0000185704     1.000000    0.01757802
  117       -6.1738967055      -0.0000159035     1.000000    0.01764233
  118       -6.1738777261       0.0000189794     1.000000    0.01772460
  119       -6.1738940924      -0.0000163663     1.000000    0.01778703
  120       -6.1738747102       0.0000193822     1.000000    0.01786708
  121       -6.1738915350      -0.0000168248     1.000000    0.01792763
  122       -6.1738717567       0.0000197783     1.000000    0.01800545
  123       -6.1738890352      -0.0000172785     1.000000    0.01806413
  124       -6.1738688678       0.0000201674     1.000000    0.01813970
  125       -6.1738865944      -0.0000177266     1.000000    0.01819651
  126       -6.1738660454       0.0000205490     1.000000    0.01826984
  127       -6.1738842139      -0.0000181685     1.000000    0.01832480
  128       -6.1738632911       0.0000209227     1.000000    0.01839589
  129       -6.1738818948      -0.0000186036     1.000000    0.01844902
  130       -6.1738606064       0.0000212883     1.000000    0.01851788
  131       -6.1738796379      -0.0000190315     1.000000    0.01856919
  132       -6.1738579924       0.0000216455     1.000000    0.01863584
  133       -6.1738774440      -0.0000194516     1.000000    0.01868536
  134       -6.1738554499       0.0000219941     1.000000    0.01874980
  135       -6.1738753134      -0.0000198635     1.000000    0.01879756
  136       -6.1738529796       0.0000223338     1.000000    0.01885983
  137       -6.1738732463      -0.0000202668     1.000000    0.01890584
  138       -6.1738505818       0.0000226645     1.000000    0.01896596
  139       -6.1738712429      -0.0000206611     1.000000    0.01901028
  140       -6.1738482567       0.0000229862     1.000000    0.01906828
  141       -6.1738693029      -0.0000210462     1.000000    0.01911092
  142       -6.1738460043       0.0000232986     1.000000    0.01916684
  143       -6.1738674261      -0.0000214218     1.000000    0.01920785
  144       -6.1738438244       0.0000236017     1.000000    0.01926171
  145       -6.1738656120      -0.0000217876     1.000000    0.01930112
  146       -6.1738417164       0.0000238956     1.000000    0.01935297
  147       -6.1738638600      -0.0000221436     1.000000    0.01939083
  148       -6.1738396799       0.0000241801     1.000000    0.01944071
  149       -6.1738621695      -0.0000224896     1.000000    0.01947704
  150       -6.1738377140       0.0000244555     1.000000    0.01952500
  151       -6.1738605395      -0.0000228254     1.000000    0.01955985
  152       -6.1738358179       0.0000247216     1.000000    0.01960593
  153       -6.1738589690      -0.0000231511     1.000000    0.01963935
  154       -6.1738339905       0.0000249786     1.000000    0.01968358
  155       -6.1738574571      -0.0000234667     1.000000    0.01971561
  156       -6.1738322306       0.0000252266     1.000000    0.01975806
  157       -6.1738560027      -0.0000237721     1.000000    0.01978873
  158       -6.1738305370       0.0000254656     1.000000    0.01982945
  159       -6.1738546044      -0.0000240673     1.000000    0.01985881
  160       -6.1738289084       0.0000256959     1.000000    0.01989784
  161       -6.1738532610      -0.0000243526     1.000000    0.01992593
  162       -6.1738273433       0.0000259176     1.000000    0.01996332
  163       -6.1738519712      -0.0000246278     1.000000    0.01999019
  164       -6.1738258403       0.0000261309     1.000000    0.02002599
  165       -6.1738507336      -0.0000248933     1.000000    0.02005167
  166       -6.1738243977       0.0000263359     1.000000    0.02008594
  167       -6.1738495468      -0.0000251491     1.000000    0.02011048
  168       -6.1738230140       0.0000265328     1.000000    0.02014326
  169       -6.1738484093      -0.0000253953     1.000000    0.02016671
  170       -6.1738216875       0.0000267218     1.000000    0.02019805
  171       -6.1738473198      -0.0000256323     1.000000    0.02022043
  172       -6.1738204166       0.0000269031     1.000000    0.02025039
  173       -6.1738462766      -0.0000258600     1.000000    0.02027175
  174       -6.1738191996       0.0000270770     1.000000    0.02030037
  175       -6.1738452785      -0.0000260788     1.000000    0.02032076
  176       -6.1738180349       0.0000272436     1.000000    0.02034809
  177       -6.1738443237      -0.0000262889     1.000000    0.02036753
  178       -6.1738169206       0.0000274031     1.000000    0.02039362
  179       -6.1738434110      -0.0000264904     1.000000    0.02041216
  180       -6.1738158552       0.0000275559     1.000000    0.02043706
  181       -6.1738425388      -0.0000266837     1.000000    0.02045472
  182       -6.1738148369       0.0000277020     1.000000    0.02047848
  183       -6.1738417057      -0.0000268689     1.000000    0.02049531
  184       -6.1738138640       0.0000278417     1.000000    0.02051797
  185       -6.1738409103      -0.0000270462     1.000000    0.02053400
  186       -6.1738129350       0.0000279752     1.000000    0.02055560
  187       -6.1738401510      -0.0000272160     1.000000    0.02057087
  188       -6.1738120482       0.0000281028     1.000000    0.02059145
  189       -6.1738394267      -0.0000273784     1.000000    0.02060599
  190       -6.1738112020       0.0000282247     1.000000    0.02062560
  191       -6.1738387358      -0.0000275338     1.000000    0.02063944
  192       -6.1738103948       0.0000283410     1.000000    0.02065812
  193       -6.1738380771      -0.0000276823     1.000000    0.02067129
  194       -6.1738096251       0.0000284520     1.000000    0.02068907
  195       -6.1738374492      -0.0000278241     1.000000    0.02070160
  196       -6.1738088914       0.0000285579     1.000000    0.02071853
  197       -6.1738368510      -0.0000279596     1.000000    0.02073045
  198       -6.1738081922       0.0000286588     1.000000    0.02074657
  199       -6.1738362811      -0.0000280890     1.000000    0.02075790
  200       -6.1738075260       0.0000287551     1.000000    0.02077324
  201       -6.1738357385      -0.0000282124     1.000000    0.02078401
  202       -6.1738068916       0.0000288468     1.000000    0.02079860
  203       -6.1738352218      -0.0000283302     1.000000    0.02080884
  204       -6.1738062876       0.0000289342     1.000000    0.02082272
  205       -6.1738347300      -0.0000284424     1.000000    0.02083246
  206       -6.1738057126       0.0000290174     1.000000    0.02084565
  207       -6.1738342620      -0.0000285495     1.000000    0.02085491
  208       -6.1738051653       0.0000290967     1.000000    0.02086745
  209       -6.1738338168      -0.0000286515     1.000000    0.02087624
  210       -6.1738046447       0.0000291721     1.000000    0.02088817
  211       -6.1738333933      -0.0000287486     1.000000    0.02089652
  212       -6.1738041494       0.0000292439     1.000000    0.02090785
  213       -6.1738329906      -0.0000288412     1.000000    0.02091579
  214       -6.1738036784       0.0000293122     1.000000    0.02092656
  215       -6.1738326077      -0.0000289293     1.000000    0.02093409
  216       -6.1738032305       0.0000293772     1.000000    0.02094433
  217       -6.1738322437      -0.0000290132     1.000000    0.02095148
  218       -6.1738028047       0.0000294390     1.000000    0.02096120
  219       -6.1738318978      -0.0000290930     1.000000    0.02096800
  220       -6.1738024000       0.0000294978     1.000000    0.02097723
  221       -6.1738315690      -0.0000291690     1.000000    0.02098368
  222       -6.1738020154       0.0000295536     1.000000    0.02099245
  223       -6.1738312566      -0.0000292413     1.000000    0.02099857
  224       -6.1738016499       0.0000296067     1.000000    0.02100690
  225       -6.1738309599      -0.0000293100     1.000000    0.02101271
  226       -6.1738013027       0.0000296572     1.000000    0.02102062
  227       -6.1738306780      -0.0000293753     1.000000    0.02102614
  228       -6.1738009729       0.0000297051     1.000000    0.02103364
  229       -6.1738304103      -0.0000294374     1.000000    0.02103888
  230       -6.1738006597       0.0000297507     1.000000    0.02104600
  231       -6.1738301562      -0.0000294965     1.000000    0.02105097
  232       -6.1738003622       0.0000297939     1.000000    0.02105773
  233       -6.1738299148      -0.0000295526     1.000000    0.02106244
  234       -6.1738000798       0.0000298350     1.000000    0.02106886
  235       -6.1738296857      -0.0000296059     1.000000    0.02107333
  236       -6.1737998116       0.0000298741     1.000000    0.02107942
  237       -6.1738294682      -0.0000296565     1.000000    0.02108367
  238       -6.1737995571       0.0000299111     1.000000    0.02108945
  239       -6.1738292617      -0.0000297047     1.000000    0.02109347
  240       -6.1737993154       0.0000299463     1.000000    0.02109895
  241       -6.1738290658      -0.0000297504     1.000000    0.02110277
  242       -6.1737990861       0.0000299797     1.000000    0.02110797
  243       -6.1738288798      -0.0000297937     1.000000    0.02111159
  244       -6.1737988685       0.0000300114     1.000000    0.02111653
  245       -6.1738287034      -0.0000298350     1.000000    0.02111996
  246       -6.1737986619       0.0000300415     1.000000    0.02112464
  247       -6.1738285360      -0.0000298741     1.000000    0.02112790
  248       -6.1737984660       0.0000300700     1.000000    0.02113234
  249       -6.1738283772      -0.0000299112     1.000000    0.02113543
  250       -6.1737982801       0.0000300971     1.000000    0.02113964
  251       -6.1738282265      -0.0000299464     1.000000    0.02114257
  252       -6.1737981037       0.0000301228     1.000000    0.02114656
  253       -6.1738280836      -0.0000299799     1.000000    0.02114934
  254       -6.1737979364       0.0000301472     1.000000    0.02115313
  255       -6.1738279481      -0.0000300116     1.000000    0.02115576
  256       -6.1737977777       0.0000301703     1.000000    0.02115935
  257       -6.1738278195      -0.0000300418     1.000000    0.02116185
  258       -6.1737976272       0.0000301923     1.000000    0.02116525
  259       -6.1738276976      -0.0000300704     1.000000    0.02116762
  260       -6.1737974845       0.0000302131     1.000000    0.02117085
  261       -6.1738275819      -0.0000300975     1.000000    0.02117309
  262       -6.1737973491       0.0000302329     1.000000    0.02117615
  263       -6.1738274723      -0.0000301232     1.000000    0.02117828
  264       -6.1737972207       0.0000302516     1.000000    0.02118118
  265       -6.1738273683      -0.0000301476     1.000000    0.02118320
  266       -6.1737970989       0.0000302693     1.000000    0.02118595
  267       -6.1738272697      -0.0000301707     1.000000    0.02118786
  268       -6.1737969835       0.0000302862     1.000000    0.02119047
  269       -6.1738271762      -0.0000301927     1.000000    0.02119228
  270       -6.1737968741       0.0000303021     1.000000    0.02119476
  271       -6.1738270876      -0.0000302135     1.000000    0.02119647
  272       -6.1737967703       0.0000303173     1.000000    0.02119882
  273       -6.1738270036      -0.0000302333     1.000000    0.02120044
  274       -6.1737966719       0.0000303316     1.000000    0.02120267
  275       -6.1738269239      -0.0000302520     1.000000    0.02120421
  276       -6.1737965786       0.0000303453     1.000000    0.02120632
  277       -6.1738268484      -0.0000302697     1.000000    0.02120778
  278       -6.1737964902       0.0000303582     1.000000    0.02120978
  279       -6.1738267768      -0.0000302866     1.000000    0.02121116
  280       -6.1737964064       0.0000303704     1.000000    0.02121305
  281       -6.1738267090      -0.0000303025     1.000000    0.02121437
  282       -6.1737963270       0.0000303820     1.000000    0.02121616
  283       -6.1738266446      -0.0000303177     1.000000    0.02121740
  284       -6.1737962516       0.0000303930     1.000000    0.02121910
  285       -6.1738265837      -0.0000303320     1.000000    0.02122028
  286       -6.1737961803       0.0000304034     1.000000    0.02122190
  287       -6.1738265259      -0.0000303456     1.000000    0.02122301
  288       -6.1737961126       0.0000304133     1.000000    0.02122454
  289       -6.1738264711      -0.0000303585     1.000000    0.02122560
  290       -6.1737960485       0.0000304227     1.000000    0.02122705
  291       -6.1738264192      -0.0000303708     1.000000    0.02122805
  292       -6.1737959877       0.0000304315     1.000000    0.02122942
  293       -6.1738263700      -0.0000303823     1.000000    0.02123037
  294       -6.1737959301       0.0000304399     1.000000    0.02123167
  295       -6.1738263234      -0.0000303933     1.000000    0.02123257
  296       -6.1737958755       0.0000304479     1.000000    0.02123381
  297       -6.1738262792      -0.0000304037     1.000000    0.02123466
  298       -6.1737958237       0.0000304555     1.000000    0.02123583
  299       -6.1738262373      -0.0000304136     1.000000    0.02123664
  300       -6.1737957747       0.0000304626     1.000000    0.02123774
  301       -6.1738261977      -0.0000304230     1.000000    0.02123851
  302       -6.1737957282       0.0000304694     1.000000    0.02123956
  303       -6.1738261601      -0.0000304318     1.000000    0.02124028
  304       -6.1737956842       0.0000304759     1.000000    0.02124128
  305       -6.1738261244      -0.0000304402     1.000000    0.02124197
  306       -6.1737956425       0.0000304820     1.000000    0.02124291
  307       -6.1738260907      -0.0000304482     1.000000    0.02124356
  308       -6.1737956029       0.0000304877     1.000000    0.02124445
  309       -6.1738260587      -0.0000304557     1.000000    0.02124507
  310       -6.1737955655       0.0000304932     1.000000    0.02124591
  311       -6.1738260283      -0.0000304629     1.000000    0.02124650
  312       -6.1737955300       0.0000304984     1.000000    0.02124730
  313       -6.1738259996      -0.0000304697     1.000000    0.02124785
  314       -6.1737954963       0.0000305033     1.000000    0.02124861
  315       -6.1738259724      -0.0000304761     1.000000    0.02124914
  316       -6.1737954644       0.0000305080     1.000000    0.02124986
  317       -6.1738259466      -0.0000304822     1.000000    0.02125036
  318       -6.1737954342       0.0000305124     1.000000    0.02125104
  319       -6.1738259222      -0.0000304879     1.000000    0.02125151
  320       -6.1737954056       0.0000305166     1.000000    0.02125215
  321       -6.1738258990      -0.0000304934     1.000000    0.02125260
  322       -6.1737953785       0.0000305205     1.000000    0.02125321
  323       -6.1738258771      -0.0000304986     1.000000    0.02125364
  324       -6.1737953528       0.0000305243     1.000000    0.02125421
  325       -6.1738258563      -0.0000305035     1.000000    0.02125462
  326       -6.1737953284       0.0000305278     1.000000    0.02125517
  327       -6.1738258366      -0.0000305081     1.000000    0.02125555
  328       -6.1737953054       0.0000305312     1.000000    0.02125607
  329       -6.1738258179      -0.0000305125     1.000000    0.02125643
  330       -6.1737952835       0.0000305344     1.000000    0.02125692
  331       -6.1738258002      -0.0000305167     1.000000    0.02125726
  332       -6.1737952628       0.0000305374     1.000000    0.02125773
  333       -6.1738257835      -0.0000305207     1.000000    0.02125805
  334       -6.1737952432       0.0000305403     1.000000    0.02125849
  335       -6.1738257676      -0.0000305244     1.000000    0.02125880
  336       -6.1737952246       0.0000305430     1.000000    0.02125922
  337       -6.1738257526      -0.0000305280     1.000000    0.02125951
  338       -6.1737952070       0.0000305456     1.000000    0.02125990
  339       -6.1738257383      -0.0000305313     1.000000    0.02126018
  340       -6.1737951903       0.0000305480     1.000000    0.02126056
  341       -6.1738257248      -0.0000305345     1.000000    0.02126082
  342       -6.1737951745       0.0000305503     1.000000    0.02126117
  343       -6.1738257120      -0.0000305375     1.000000    0.02126142
  344       -6.1737951595       0.0000305525     1.000000    0.02126176
  345       -6.1738256999      -0.0000305404     1.000000    0.02126199
  346       -6.1737951453       0.0000305546     1.000000    0.02126231
  347       -6.1738256884      -0.0000305431     1.000000    0.02126253
  348       -6.1737951319       0.0000305566     1.000000    0.02126283
  349       -6.1738256775      -0.0000305457     1.000000    0.02126304
  350       -6.1737951191       0.0000305584     1.000000    0.02126333
  351       -6.1738256672      -0.0000305481     1.000000    0.02126353
  352       -6.1737951071       0.0000305602     1.000000    0.02126380
  353       -6.1738256575      -0.0000305504     1.000000    0.02126399
  354       -6.1737950956       0.0000305619     1.000000    0.02126425
  355       -6.1738256482      -0.0000305526     1.000000    0.02126443
  356       -6.1737950848       0.0000305634     1.000000    0.02126467
  357       -6.1738256395      -0.0000305547     1.000000    0.02126484
  358       -6.1737950745       0.0000305649     1.000000    0.02126507
  359       -6.1738256312      -0.0000305566     1.000000    0.02126523
  360       -6.1737950648       0.0000305664     1.000000    0.02126545
  361       -6.1738256233      -0.0000305585     1.000000    0.02126560
  362       -6.1737950556       0.0000305677     1.000000    0.02126581
  363       -6.1738256158      -0.0000305602     1.000000    0.02126595
  364       -6.1737950469       0.0000305690     1.000000    0.02126615
  365       -6.1738256088      -0.0000305619     1.000000    0.02126629
  366       -6.1737950386       0.0000305702     1.000000    0.02126647
  367       -6.1738256021      -0.0000305635     1.000000    0.02126660
  368       -6.1737950308       0.0000305713     1.000000    0.02126678
  369       -6.1738255958      -0.0000305650     1.000000    0.02126690
  370       -6.1737950233       0.0000305724     1.000000    0.02126707
  371       -6.1738255898      -0.0000305664     1.000000    0.02126718
  372       -6.1737950163       0.0000305734     1.000000    0.02126734
  373       -6.1738255841      -0.0000305678     1.000000    0.02126745
  374       -6.1737950097       0.0000305744     1.000000    0.02126760
  375       -6.1738255787      -0.0000305690     1.000000    0.02126771
  376       -6.1737950034       0.0000305753     1.000000    0.02126785
  377       -6.1738255736      -0.0000305702     1.000000    0.02126795
  378       -6.1737949974       0.0000305762     1.000000    0.02126808
  379       -6.1738255687      -0.0000305714     1.000000    0.02126817
  380       -6.1737949917       0.0000305770     1.000000    0.02126830
  381       -6.1738255642      -0.0000305725     1.000000    0.02126839
  382       -6.1737949863       0.0000305778     1.000000    0.02126851
  383       -6.1738255598      -0.0000305735     1.000000    0.02126859
  384       -6.1737949813       0.0000305786     1.000000    0.02126871
  385       -6.1738255557      -0.0000305745     1.000000    0.02126879
  386       -6.1737949765       0.0000305793     1.000000    0.02126890
  387       -6.1738255518      -0.0000305754     1.000000    0.02126897
  388       -6.1737949719       0.0000305799     1.000000    0.02126907
  389       -6.1738255481      -0.0000305762     1.000000    0.02126915
  390       -6.1737949676       0.0000305806     1.000000    0.02126924
  391       -6.1738255446      -0.0000305771     1.000000    0.02126931
  392       -6.1737949635       0.0000305812     1.000000    0.02126940
  393       -6.1738255413      -0.0000305779     1.000000    0.02126947
  394       -6.1737949596       0.0000305817     1.000000    0.02126955
  395       -6.1738255382      -0.0000305786     1.000000    0.02126961
  396       -6.1737949559       0.0000305823     1.000000    0.02126970
  397       -6.1738255352      -0.0000305793     1.000000    0.02126975
  398       -6.1737949525       0.0000305828     1.000000    0.02126983
  399       -6.1738255324      -0.0000305800     1.000000    0.02126989
  400       -6.1737949492       0.0000305833     1.000000    0.02126996
  401       -6.1738255297      -0.0000305806     1.000000    0.02127001
  402       -6.1737949460       0.0000305837     1.000000    0.02127008
  403       -6.1738255272      -0.0000305812     1.000000    0.02127013
  404       -6.1737949431       0.0000305841     1.000000    0.02127020
  405       -6.1738255248      -0.0000305818     1.000000    0.02127024
  406       -6.1737949403       0.0000305846     1.000000    0.02127031
  407       -6.1738255226      -0.0000305823     1.000000    0.02127035
  408       -6.1737949376       0.0000305849     1.000000    0.02127041
  409       -6.1738255204      -0.0000305828     1.000000    0.02127045
  410       -6.1737949351       0.0000305853     1.000000    0.02127051
  411       -6.1738255184      -0.0000305833     1.000000    0.02127055
  412       -6.1737949327       0.0000305857     1.000000    0.02127060
  413       -6.1738255164      -0.0000305837     1.000000    0.02127064
  414       -6.1737949305       0.0000305860     1.000000    0.02127069
  415       -6.1738255146      -0.0000305842     1.000000    0.02127072
  416       -6.1737949283       0.0000305863     1.000000    0.02127077
  417       -6.1738255129      -0.0000305846     1.000000    0.02127081
  418       -6.1737949263       0.0000305866     1.000000    0.02127085
  419       -6.1738255113      -0.0000305850     1.000000    0.02127088
  420       -6.1737949244       0.0000305869     1.000000    0.02127093
  421       -6.1738255097      -0.0000305853     1.000000    0.02127096
  422       -6.1737949226       0.0000305871     1.000000    0.02127100
  423       -6.1738255082      -0.0000305857     1.000000    0.02127103
  424       -6.1737949208       0.0000305874     1.000000    0.02127106
  425       -6.1738255068      -0.0000305860     1.000000    0.02127109
  426       -6.1737949192       0.0000305876     1.000000    0.02127113
  427       -6.1738255055      -0.0000305863     1.000000    0.02127115
  428       -6.1737949177       0.0000305879     1.000000    0.02127119
  429       -6.1738255043      -0.0000305866     1.000000    0.02127121
  430       -6.1737949162       0.0000305881     1.000000    0.02127125
  431       -6.1738255031      -0.0000305869     1.000000    0.02127127
  432       -6.1737949148       0.0000305883     1.000000    0.02127130
  433       -6.1738255020      -0.0000305872     1.000000    0.02127132
  434       -6.1737949135       0.0000305885     1.000000    0.02127135
  435       -6.1738255009      -0.0000305874     1.000000    0.02127137
  436       -6.1737949123       0.0000305886     1.000000    0.02127140
  437       -6.1738254999      -0.0000305876     1.000000    0.02127142
  438       -6.1737949111       0.0000305888     1.000000    0.02127145
  439       -6.1738254989      -0.0000305879     1.000000    0.02127146
  440       -6.1737949100       0.0000305890     1.000000    0.02127149
  441       -6.1738254980      -0.0000305881     1.000000    0.02127151
  442       -6.1737949089       0.0000305891     1.000000    0.02127153
  443       -6.1738254972      -0.0000305883     1.000000    0.02127155
  444       -6.1737949079       0.0000305893     1.000000    0.02127157
  445       -6.1738254964      -0.0000305885     1.000000    0.02127159
  446       -6.1737949069       0.0000305894     1.000000    0.02127161
  447       -6.1738254956      -0.0000305887     1.000000    0.02127162
  448       -6.1737949060       0.0000305896     1.000000    0.02127164
  449       -6.1738254949      -0.0000305888     1.000000    0.02127166
  450       -6.1737949052       0.0000305897     1.000000    0.02127167
  451       -6.1738254942      -0.0000305890     1.000000    0.02127169
  452       -6.1737949044       0.0000305898     1.000000    0.02127171
  453       -6.1738254935      -0.0000305891     1.000000    0.02127172
  454       -6.1737949036       0.0000305899     1.000000    0.02127174
  455       -6.1738254929      -0.0000305893     1.000000    0.02127175
  456       -6.1737949029       0.0000305900     1.000000    0.02127176
  457       -6.1738254923      -0.0000305894     1.000000    0.02127178
  458       -6.1737949022       0.0000305901     1.000000    0.02127179
  459       -6.1738254918      -0.0000305896     1.000000    0.02127180
  460       -6.1737949016       0.0000305902     1.000000    0.02127182
  461       -6.1738254912      -0.0000305897     1.000000    0.02127183
  462       -6.1737949009       0.0000305903     1.000000    0.02127184
  463       -6.1738254907      -0.0000305898     1.000000    0.02127185
  464       -6.1737949004       0.0000305904     1.000000    0.02127186
  465       -6.1738254903      -0.0000305899     1.000000    0.02127187
  466       -6.1737948998       0.0000305905     1.000000    0.02127188
  467       -6.1738254898      -0.0000305900     1.000000    0.02127189
  468       -6.1737948993       0.0000305905     1.000000    0.02127191
  469       -6.1738254894      -0.0000305901     1.000000    0.02127191
  470       -6.1737948988       0.0000305906     1.000000    0.02127192
  471       -6.1738254890      -0.0000305902     1.000000    0.02127193
  472       -6.1737948983       0.0000305907     1.000000    0.02127194
  473       -6.1738254886      -0.0000305903     1.000000    0.02127195
  474       -6.1737948979       0.0000305908     1.000000    0.02127196
  475       -6.1738254883      -0.0000305904     1.000000    0.02127197
  476       -6.1737948975       0.0000305908     1.000000    0.02127198
  477       -6.1738254879      -0.0000305905     1.000000    0.02127198
  478       -6.1737948971       0.0000305909     1.000000    0.02127199
  479       -6.1738254876      -0.0000305905     1.000000    0.02127200
  480       -6.1737948967       0.0000305909     1.000000    0.02127201
  481       -6.1738254873      -0.0000305906     1.000000    0.02127201
  482       -6.1737948963       0.0000305910     1.000000    0.02127202
  483       -6.1738254870      -0.0000305907     1.000000    0.02127203
  484       -6.1737948960       0.0000305910     1.000000    0.02127203
  485       -6.1738254867      -0.0000305908     1.000000    0.02127204
  486       -6.1737948957       0.0000305911     1.000000    0.02127205
  487       -6.1738254865      -0.0000305908     1.000000    0.02127205
  488       -6.1737948954       0.0000305911     1.000000    0.02127206
  489       -6.1738254862      -0.0000305909     1.000000    0.02127206
  490       -6.1737948951       0.0000305912     1.000000    0.02127207
  491       -6.1738254860      -0.0000305909     1.000000    0.02127207
  492       -6.1737948948       0.0000305912     1.000000    0.02127208
  493       -6.1738254858      -0.0000305910     1.000000    0.02127208
  494       -6.1737948945       0.0000305912     1.000000    0.02127209
  495       -6.1738254856      -0.0000305910     1.000000    0.02127209
  496       -6.1737948943       0.0000305913     1.000000    0.02127210
  497       -6.1738254854      -0.0000305911     1.000000    0.02127210
  498       -6.1737948941       0.0000305913     1.000000    0.02127211
  499       -6.1738254852      -0.0000305911     1.000000    0.02127211
  500       -6.1737948938       0.0000305913     1.000000    0.02127212
  501       -6.1738254850      -0.0000305912     1.000000    0.02127212
  502       -6.1737948936       0.0000305914     1.000000    0.02127213
  503       -6.1738254848      -0.0000305912     1.000000    0.02127213
  504       -6.1737948934       0.0000305914     1.000000    0.02127213
  505       -6.1738254847      -0.0000305912     1.000000    0.02127214
  506       -6.1737948932       0.0000305914     1.000000    0.02127214
  507       -6.1738254845      -0.0000305913     1.000000    0.02127214
  508       -6.1737948931       0.0000305915     1.000000    0.02127215
  509       -6.1738254844      -0.0000305913     1.000000    0.02127215
  510       -6.1737948929       0.0000305915     1.000000    0.02127215
  511       -6.1738254842      -0.0000305913     1.000000    0.02127216
  512       -6.1737948927       0.0000305915     1.000000    0.02127216
  513       -6.1738254841      -0.0000305914     1.000000    0.02127216
  514       -6.1737948926       0.0000305915     1.000000    0.02127217
  515       -6.1738254840      -0.0000305914     1.000000    0.02127217
  516       -6.1737948924       0.0000305915     1.000000    0.02127217
  517       -6.1738254839      -0.0000305914     1.000000    0.02127217
  518       -6.1737948923       0.0000305916     1.000000    0.02127218
  519       -6.1738254838      -0.0000305915     1.000000    0.02127218
  520       -6.1737948922       0.0000305916     1.000000    0.02127218
  521       -6.1738254837      -0.0000305915     1.000000    0.02127218
  522       -6.1737948921       0.0000305916     1.000000    0.02127219
  523       -6.1738254836      -0.0000305915     1.000000    0.02127219
  524       -6.1737948919       0.0000305916     1.000000    0.02127219
  525       -6.1738254835      -0.0000305915     1.000000    0.02127219
  526       -6.1737948918       0.0000305916     1.000000    0.02127220
  527       -6.1738254834      -0.0000305915     1.000000    0.02127220
  528       -6.1737948917       0.0000305916     1.000000    0.02127220
  529       -6.1738254833      -0.0000305916     1.000000    0.02127220
  530       -6.1737948916       0.0000305917     1.000000    0.02127220
  531       -6.1738254832      -0.0000305916     1.000000    0.02127221
  532       -6.1737948915       0.0000305917     1.000000    0.02127221
  533       -6.1738254831      -0.0000305916     1.000000    0.02127221
  534       -6.1737948915       0.0000305917     1.000000    0.02127221
  535       -6.1738254831      -0.0000305916     1.000000    0.02127221
  536       -6.1737948914       0.0000305917     1.000000    0.02127221
  537       -6.1738254830      -0.0000305916     1.000000    0.02127222
  538       -6.1737948913       0.0000305917     1.000000    0.02127222
  539       -6.1738254829      -0.0000305916     1.000000    0.02127222
  540       -6.1737948912       0.0000305917     1.000000    0.02127222
  541       -6.1738254829      -0.0000305917     1.000000    0.02127222
  542       -6.1737948911       0.0000305917     1.000000    0.02127222
  543       -6.1738254828      -0.0000305917     1.000000    0.02127222
  544       -6.1737948911       0.0000305917     1.000000    0.02127223
  545       -6.1738254828      -0.0000305917     1.000000    0.02127223
  546       -6.1737948910       0.0000305918     1.000000    0.02127223
  547       -6.1738254827      -0.0000305917     1.000000    0.02127223
  548       -6.1737948910       0.0000305918     1.000000    0.02127223
  549       -6.1738254827      -0.0000305917     1.000000    0.02127223
  550       -6.1737948909       0.0000305918     1.000000    0.02127223
  551       -6.1738254826      -0.0000305917     1.000000    0.02127223
  552       -6.1737948908       0.0000305918     1.000000    0.02127223
  553       -6.1738254826      -0.0000305917     1.000000    0.02127224
  554       -6.1737948908       0.0000305918     1.000000    0.02127224
  555       -6.1738254825      -0.0000305917     1.000000    0.02127224
  556       -6.1737948907       0.0000305918     1.000000    0.02127224
  557       -6.1738254825      -0.0000305918     1.000000    0.02127224
  558       -6.1737948907       0.0000305918     1.000000    0.02127224
  559       -6.1738254825      -0.0000305918     1.000000    0.02127224
  560       -6.1737948907       0.0000305918     1.000000    0.02127224
  561       -6.1738254824      -0.0000305918     1.000000    0.02127224
  562       -6.1737948906       0.0000305918     1.000000    0.02127224
  563       -6.1738254824      -0.0000305918     1.000000    0.02127224
  564       -6.1737948906       0.0000305918     1.000000    0.02127224
  565       -6.1738254824      -0.0000305918     1.000000    0.02127225
  566       -6.1737948905       0.0000305918     1.000000    0.02127225
  567       -6.1738254823      -0.0000305918     1.000000    0.02127225
  568       -6.1737948905       0.0000305918     1.000000    0.02127225
  569       -6.1738254823      -0.0000305918     1.000000    0.02127225
  570       -6.1737948905       0.0000305918     1.000000    0.02127225
  571       -6.1738254823      -0.0000305918     1.000000    0.02127225
  572       -6.1737948904       0.0000305918     1.000000    0.02127225
  573       -6.1738254822      -0.0000305918     1.000000    0.02127225
  574       -6.1737948904       0.0000305918     1.000000    0.02127225
  575       -6.1738254822      -0.0000305918     1.000000    0.02127225
  576       -6.1737948904       0.0000305918     1.000000    0.02127225
  577       -6.1738254822      -0.0000305918     1.000000    0.02127225
  578       -6.1737948904       0.0000305918     1.000000    0.02127225
  579       -6.1738254822      -0.0000305918     1.000000    0.02127225
  580       -6.1737948903       0.0000305919     1.000000    0.02127225
  581       -6.1738254822      -0.0000305918     1.000000    0.02127225
  582       -6.1737948903       0.0000305919     1.000000    0.02127226
  583       -6.1738254821      -0.0000305918     1.000000    0.02127226
  584       -6.1737948903       0.0000305919     1.000000    0.02127226
  585       -6.1738254821      -0.0000305918     1.000000    0.02127226
  586       -6.1737948903       0.0000305919     1.000000    0.02127226
  587       -6.1738254821      -0.0000305918     1.000000    0.02127226
  588       -6.1737948902       0.0000305919     1.000000    0.02127226
  589       -6.1738254821      -0.0000305919     1.000000    0.02127226
  590       -6.1737948902       0.0000305919     1.000000    0.02127226
  591       -6.1738254821      -0.0000305919     1.000000    0.02127226
  592       -6.1737948902       0.0000305919     1.000000    0.02127226
  593       -6.1738254821      -0.0000305919     1.000000    0.02127226
  594       -6.1737948902       0.0000305919     1.000000    0.02127226
  595       -6.1738254820      -0.0000305919     1.000000    0.02127226
  596       -6.1737948902       0.0000305919     1.000000    0.02127226
  597       -6.1738254820      -0.0000305919     1.000000    0.02127226
  598       -6.1737948902       0.0000305919     1.000000    0.02127226
  599       -6.1738254820      -0.0000305919     1.000000    0.02127226
  600       -6.1737948901       0.0000305919     1.000000    0.02127226
  601       -6.1738254820      -0.0000305919     1.000000    0.02127226
  602       -6.1737948901       0.0000305919     1.000000    0.02127226
  603       -6.1738254820      -0.0000305919     1.000000    0.02127226
  604       -6.1737948901       0.0000305919     1.000000    0.02127226
  605       -6.1738254820      -0.0000305919     1.000000    0.02127226
  606       -6.1737948901       0.0000305919     1.000000    0.02127226
  607       -6.1738254820      -0.0000305919     1.000000    0.02127226
  608       -6.1737948901       0.0000305919     1.000000    0.02127226
  609       -6.1738254820      -0.0000305919     1.000000    0.02127226
  610       -6.1737948901       0.0000305919     1.000000    0.02127226
  611       -6.1738254820      -0.0000305919     1.000000    0.02127226
  612       -6.1737948901       0.0000305919     1.000000    0.02127226
  613       -6.1738254819      -0.0000305919     1.000000    0.02127226
  614       -6.1737948901       0.0000305919     1.000000    0.02127227
  615       -6.1738254819      -0.0000305919     1.000000    0.02127227
  616       -6.1737948900       0.0000305919     1.000000    0.02127227
  617       -6.1738254819      -0.0000305919     1.000000    0.02127227
  618       -6.1737948900       0.0000305919     1.000000    0.02127227
  619       -6.1738254819      -0.0000305919     1.000000    0.02127227
  620       -6.1737948900       0.0000305919     1.000000    0.02127227
  621       -6.1738254819      -0.0000305919     1.000000    0.02127227
  622       -6.1737948900       0.0000305919     1.000000    0.02127227
  623       -6.1738254819      -0.0000305919     1.000000    0.02127227
  624       -6.1737948900       0.0000305919     1.000000    0.02127227
  625       -6.1738254819      -0.0000305919     1.000000    0.02127227
  626       -6.1737948900       0.0000305919     1.000000    0.02127227
  627       -6.1738254819      -0.0000305919     1.000000    0.02127227
  628       -6.1737948900       0.0000305919     1.000000    0.02127227
  629       -6.1738254819      -0.0000305919     1.000000    0.02127227
  630       -6.1737948900       0.0000305919     1.000000    0.02127227
  631       -6.1738254819      -0.0000305919     1.000000    0.02127227
  632       -6.1737948900       0.0000305919     1.000000    0.02127227
  633       -6.1738254819      -0.0000305919     1.000000    0.02127227
  634       -6.1737948900       0.0000305919     1.000000    0.02127227
  635       -6.1738254819      -0.0000305919     1.000000    0.02127227
  636       -6.1737948900       0.0000305919     1.000000    0.02127227
  637       -6.1738254819      -0.0000305919     1.000000    0.02127227
  638       -6.1737948900       0.0000305919     1.000000    0.02127227
  639       -6.1738254819      -0.0000305919     1.000000    0.02127227
  640       -6.1737948900       0.0000305919     1.000000    0.02127227
  641       -6.1738254819      -0.0000305919     1.000000    0.02127227
  642       -6.1737948900       0.0000305919     1.000000    0.02127227
  643       -6.1738254819      -0.0000305919     1.000000    0.02127227
  644       -6.1737948900       0.0000305919     1.000000    0.02127227
  645       -6.1738254819      -0.0000305919     1.000000    0.02127227
  646       -6.1737948899       0.0000305919     1.000000    0.02127227
  647       -6.1738254819      -0.0000305919     1.000000    0.02127227
  648       -6.1737948899       0.0000305919     1.000000    0.02127227
  649       -6.1738254819      -0.0000305919     1.000000    0.02127227
  650       -6.1737948899       0.0000305919     1.000000    0.02127227
  651       -6.1738254818      -0.0000305919     1.000000    0.02127227
  652       -6.1737948899       0.0000305919     1.000000    0.02127227
  653       -6.1738254818      -0.0000305919     1.000000    0.02127227
  654       -6.1737948899       0.0000305919     1.000000    0.02127227
  655       -6.1738254818      -0.0000305919     1.000000    0.02127227
  656       -6.1737948899       0.0000305919     1.000000    0.02127227
  657       -6.1738254818      -0.0000305919     1.000000    0.02127227
  658       -6.1737948899       0.0000305919     1.000000    0.02127227
  659       -6.1738254818      -0.0000305919     1.000000    0.02127227
  660       -6.1737948899       0.0000305919     1.000000    0.02127227
  661       -6.1738254818      -0.0000305919     1.000000    0.02127227
  662       -6.1737948899       0.0000305919     1.000000    0.02127227
  663       -6.1738254818      -0.0000305919     1.000000    0.02127227
  664       -6.1737948899       0.0000305919     1.000000    0.02127227
  665       -6.1738254818      -0.0000305919     1.000000    0.02127227
  666       -6.1737948899       0.0000305919     1.000000    0.02127227
  667       -6.1738254818      -0.0000305919     1.000000    0.02127227
  668       -6.1737948899       0.0000305919     1.000000    0.02127227
  669       -6.1738254818      -0.0000305919     1.000000    0.02127227
  670       -6.1737948899       0.0000305919     1.000000    0.02127227
  671       -6.1738254818      -0.0000305919     1.000000    0.02127227
  672       -6.1737948899       0.0000305919     1.000000    0.02127227
  673       -6.1738254818      -0.0000305919     1.000000    0.02127227
  674       -6.1737948899       0.0000305919     1.000000    0.02127227
  675       -6.1738254818      -0.0000305919     1.000000    0.02127227
  676       -6.1737948899       0.0000305919     1.000000    0.02127227
  677       -6.1738254818      -0.0000305919     1.000000    0.02127227
  678       -6.1737948899       0.0000305919     1.000000    0.02127227
  679       -6.1738254818      -0.0000305919     1.000000    0.02127227
  680       -6.1737948899       0.0000305919     1.000000    0.02127227
  681       -6.1738254818      -0.0000305919     1.000000    0.02127227
  682       -6.1737948899       0.0000305919     1.000000    0.02127227
  683       -6.1738254818      -0.0000305919     1.000000    0.02127227
  684       -6.1737948899       0.0000305919     1.000000    0.02127227
  685       -6.1738254818      -0.0000305919     1.000000    0.02127227
  686       -6.1737948899       0.0000305919     1.000000    0.02127227
  687       -6.1738254818      -0.0000305919     1.000000    0.02127227
  688       -6.1737948899       0.0000305919     1.000000    0.02127227
  689       -6.1738254818      -0.0000305919     1.000000    0.02127227
  690       -6.1737948899       0.0000305919     1.000000    0.02127227
  691       -6.1738254818      -0.0000305919     1.000000    0.02127227
  692       -6.1737948899       0.0000305919     1.000000    0.02127227
  693       -6.1738254818      -0.0000305919     1.000000    0.02127227
  694       -6.1737948899       0.0000305919     1.000000    0.02127227
  695       -6.1738254818      -0.0000305919     1.000000    0.02127227
  696       -6.1737948899       0.0000305919     1.000000    0.02127227
  697       -6.1738254818      -0.0000305919     1.000000    0.02127227
  698       -6.1737948899       0.0000305919     1.000000    0.02127227
  699       -6.1738254818      -0.0000305919     1.000000    0.02127227
  700       -6.1737948899       0.0000305919     1.000000    0.02127227
  701       -6.1738254818      -0.0000305919     1.000000    0.02127227
  702       -6.1737948899       0.0000305919     1.000000    0.02127227
  703       -6.1738254818      -0.0000305919     1.000000    0.02127227
  704       -6.1737948899       0.0000305919     1.000000    0.02127227
  705       -6.1738254818      -0.0000305919     1.000000    0.02127227
  706       -6.1737948899       0.0000305919     1.000000    0.02127227
  707       -6.1738254818      -0.0000305919     1.000000    0.02127227
  708       -6.1737948899       0.0000305919     1.000000    0.02127227
  709       -6.1738254818      -0.0000305919     1.000000    0.02127227
  710       -6.1737948899       0.0000305919     1.000000    0.02127227
  711       -6.1738254818      -0.0000305919     1.000000    0.02127227
  712       -6.1737948899       0.0000305919     1.000000    0.02127227
  713       -6.1738254818      -0.0000305919     1.000000    0.02127227
  714       -6.1737948899       0.0000305919     1.000000    0.02127227
  715       -6.1738254818      -0.0000305919     1.000000    0.02127227
  716       -6.1737948899       0.0000305919     1.000000    0.02127227
  717       -6.1738254818      -0.0000305919     1.000000    0.02127227
  718       -6.1737948899       0.0000305919     1.000000    0.02127227
  719       -6.1738254818      -0.0000305919     1.000000    0.02127227
  720       -6.1737948899       0.0000305919     1.000000    0.02127227
  721       -6.1738254818      -0.0000305919     1.000000    0.02127227
  722       -6.1737948899       0.0000305919     1.000000    0.02127227
  723       -6.1738254818      -0.0000305919     1.000000    0.02127227
  724       -6.1737948899       0.0000305919     1.000000    0.02127227
  725       -6.1738254818      -0.0000305919     1.000000    0.02127227
  726       -6.1737948899       0.0000305919     1.000000    0.02127227
  727       -6.1738254818      -0.0000305919     1.000000    0.02127227
  728       -6.1737948899       0.0000305919     1.000000    0.02127227
  729       -6.1738254818      -0.0000305919     1.000000    0.02127227
  730       -6.1737948899       0.0000305919     1.000000    0.02127227
  731       -6.1738254818      -0.0000305919     1.000000    0.02127227
  732       -6.1737948899       0.0000305919     1.000000    0.02127227
  733       -6.1738254818      -0.0000305919     1.000000    0.02127227
  734       -6.1737948899       0.0000305919     1.000000    0.02127227
  735       -6.1738254818      -0.0000305919     1.000000    0.02127227
  736       -6.1737948899       0.0000305919     1.000000    0.02127227
  737       -6.1738254818      -0.0000305919     1.000000    0.02127227
  738       -6.1737948899       0.0000305919     1.000000    0.02127227
  739       -6.1738254818      -0.0000305919     1.000000    0.02127227
  740       -6.1737948899       0.0000305919     1.000000    0.02127227
  741       -6.1738254818      -0.0000305919     1.000000    0.02127227
  742       -6.1737948899       0.0000305919     1.000000    0.02127227
  743       -6.1738254818      -0.0000305919     1.000000    0.02127227
  744       -6.1737948899       0.0000305919     1.000000    0.02127227
  745       -6.1738254818      -0.0000305919     1.000000    0.02127227
  746       -6.1737948899       0.0000305919     1.000000    0.02127227
  747       -6.1738254818      -0.0000305919     1.000000    0.02127227
  748       -6.1737948899       0.0000305919     1.000000    0.02127227
  749       -6.1738254818      -0.0000305919     1.000000    0.02127227
  750       -6.1737948899       0.0000305919     1.000000    0.02127227
  751       -6.1738254818      -0.0000305919     1.000000    0.02127227
  752       -6.1737948899       0.0000305919     1.000000    0.02127227
  753       -6.1738254818      -0.0000305919     1.000000    0.02127227
  754       -6.1737948899       0.0000305919     1.000000    0.02127227
  755       -6.1738254818      -0.0000305919     1.000000    0.02127227
  756       -6.1737948899       0.0000305919     1.000000    0.02127227
  757       -6.1738254818      -0.0000305919     1.000000    0.02127227
  758       -6.1737948899       0.0000305919     1.000000    0.02127227
  759       -6.1738254818      -0.0000305919     1.000000    0.02127227
  760       -6.1737948899       0.0000305919     1.000000    0.02127227
  761       -6.1738254818      -0.0000305919     1.000000    0.02127227
  762       -6.1737948899       0.0000305919     1.000000    0.02127227
  763       -6.1738254818      -0.0000305919     1.000000    0.02127227
  764       -6.1737948899       0.0000305919     1.000000    0.02127227
  765       -6.1738254818      -0.0000305919     1.000000    0.02127227
  766       -6.1737948899       0.0000305919     1.000000    0.02127227
  767       -6.1738254818      -0.0000305919     1.000000    0.02127227
  768       -6.1737948899       0.0000305919     1.000000    0.02127227
  769       -6.1738254818      -0.0000305919     1.000000    0.02127227
  770       -6.1737948899       0.0000305919     1.000000    0.02127227
  771       -6.1738254818      -0.0000305919     1.000000    0.02127227
  772       -6.1737948899       0.0000305919     1.000000    0.02127227
  773       -6.1738254818      -0.0000305919     1.000000    0.02127227
  774       -6.1737948899       0.0000305919     1.000000    0.02127227
  775       -6.1738254818      -0.0000305919     1.000000    0.02127227
  776       -6.1737948899       0.0000305919     1.000000    0.02127227
  777       -6.1738254818      -0.0000305919     1.000000    0.02127227
  778       -6.1737948899       0.0000305919     1.000000    0.02127227
  779       -6.1738254818      -0.0000305919     1.000000    0.02127227
  780       -6.1737948899       0.0000305919     1.000000    0.02127227
  781       -6.1738254818      -0.0000305919     1.000000    0.02127227
  782       -6.1737948899       0.0000305919     1.000000    0.02127227
  783       -6.1738254818      -0.0000305919     1.000000    0.02127227
  784       -6.1737948899       0.0000305919     1.000000    0.02127227
  785       -6.1738254818      -0.0000305919     1.000000    0.02127227
  786       -6.1737948899       0.0000305919     1.000000    0.02127227
  787       -6.1738254818      -0.0000305919     1.000000    0.02127227
  788       -6.1737948899       0.0000305919     1.000000    0.02127227
  789       -6.1738254818      -0.0000305919     1.000000    0.02127227
  790       -6.1737948899       0.0000305919     1.000000    0.02127227
  791       -6.1738254818      -0.0000305919     1.000000    0.02127227
  792       -6.1737948899       0.0000305919     1.000000    0.02127227
  793       -6.1738254818      -0.0000305919     1.000000    0.02127227
  794       -6.1737948899       0.0000305919     1.000000    0.02127227
  795       -6.1738254818      -0.0000305919     1.000000    0.02127227
  796       -6.1737948899       0.0000305919     1.000000    0.02127227
  797       -6.1738254818      -0.0000305919     1.000000    0.02127227
  798       -6.1737948899       0.0000305919     1.000000    0.02127227
  799       -6.1738254818      -0.0000305919     1.000000    0.02127227
  800       -6.1737948899       0.0000305919     1.000000    0.02127227
  801       -6.1738254818      -0.0000305919     1.000000    0.02127227
  802       -6.1737948899       0.0000305919     1.000000    0.02127227
  803       -6.1738254818      -0.0000305919     1.000000    0.02127227
  804       -6.1737948899       0.0000305919     1.000000    0.02127227
  805       -6.1738254818      -0.0000305919     1.000000    0.02127227
  806       -6.1737948899       0.0000305919     1.000000    0.02127227
  807       -6.1738254818      -0.0000305919     1.000000    0.02127227
  808       -6.1737948899       0.0000305919     1.000000    0.02127227
  809       -6.1738254818      -0.0000305919     1.000000    0.02127227
  810       -6.1737948899       0.0000305919     1.000000    0.02127227
  811       -6.1738254818      -0.0000305919     1.000000    0.02127227
  812       -6.1737948899       0.0000305919     1.000000    0.02127227
  813       -6.1738254818      -0.0000305919     1.000000    0.02127227
  814       -6.1737948899       0.0000305919     1.000000    0.02127227
  815       -6.1738254818      -0.0000305919     1.000000    0.02127227
  816       -6.1737948899       0.0000305919     1.000000    0.02127227
  817       -6.1738254818      -0.0000305919     1.000000    0.02127227
  818       -6.1737948899       0.0000305919     1.000000    0.02127227
  819       -6.1738254818      -0.0000305919     1.000000    0.02127227
  820       -6.1737948899       0.0000305919     1.000000    0.02127227
  821       -6.1738254818      -0.0000305919     1.000000    0.02127227
  822       -6.1737948899       0.0000305919     1.000000    0.02127227
  823       -6.1738254818      -0.0000305919     1.000000    0.02127227
  824       -6.1737948899       0.0000305919     1.000000    0.02127227
  825       -6.1738254818      -0.0000305919     1.000000    0.02127227
  826       -6.1737948899       0.0000305919     1.000000    0.02127227
  827       -6.1738254818      -0.0000305919     1.000000    0.02127227
  828       -6.1737948899       0.0000305919     1.000000    0.02127227
  829       -6.1738254818      -0.0000305919     1.000000    0.02127227
  830       -6.1737948899       0.0000305919     1.000000    0.02127227
  831       -6.1738254818      -0.0000305919     1.000000    0.02127227
  832       -6.1737948899       0.0000305919     1.000000    0.02127227
  833       -6.1738254818      -0.0000305919     1.000000    0.02127227
  834       -6.1737948899       0.0000305919     1.000000    0.02127227
  835       -6.1738254818      -0.0000305919     1.000000    0.02127227
  836       -6.1737948899       0.0000305919     1.000000    0.02127227
  837       -6.1738254818      -0.0000305919     1.000000    0.02127227
  838       -6.1737948899       0.0000305919     1.000000    0.02127227
  839       -6.1738254818      -0.0000305919     1.000000    0.02127227
  840       -6.1737948899       0.0000305919     1.000000    0.02127227
  841       -6.1738254818      -0.0000305919     1.000000    0.02127227
  842       -6.1737948899       0.0000305919     1.000000    0.02127227
  843       -6.1738254818      -0.0000305919     1.000000    0.02127227
  844       -6.1737948899       0.0000305919     1.000000    0.02127227
  845       -6.1738254818      -0.0000305919     1.000000    0.02127227
  846       -6.1737948899       0.0000305919     1.000000    0.02127227
  847       -6.1738254818      -0.0000305919     1.000000    0.02127227
  848       -6.1737948899       0.0000305919     1.000000    0.02127227
  849       -6.1738254818      -0.0000305919     1.000000    0.02127227
  850       -6.1737948899       0.0000305919     1.000000    0.02127227
  851       -6.1738254818      -0.0000305919     1.000000    0.02127227
  852       -6.1737948899       0.0000305919     1.000000    0.02127227
  853       -6.1738254818      -0.0000305919     1.000000    0.02127227
  854       -6.1737948899       0.0000305919     1.000000    0.02127227
  855       -6.1738254818      -0.0000305919     1.000000    0.02127227
  856       -6.1737948899       0.0000305919     1.000000    0.02127227
  857       -6.1738254818      -0.0000305919     1.000000    0.02127227
  858       -6.1737948899       0.0000305919     1.000000    0.02127227
  859       -6.1738254818      -0.0000305919     1.000000    0.02127227
  860       -6.1737948899       0.0000305919     1.000000    0.02127227
  861       -6.1738254818      -0.0000305919     1.000000    0.02127227
  862       -6.1737948899       0.0000305919     1.000000    0.02127227
  863       -6.1738254818      -0.0000305919     1.000000    0.02127227
  864       -6.1737948899       0.0000305919     1.000000    0.02127227
  865       -6.1738254818      -0.0000305919     1.000000    0.02127227
  866       -6.1737948899       0.0000305919     1.000000    0.02127227
  867       -6.1738254818      -0.0000305919     1.000000    0.02127227
  868       -6.1737948899       0.0000305919     1.000000    0.02127227
  869       -6.1738254818      -0.0000305919     1.000000    0.02127227
  870       -6.1737948899       0.0000305919     1.000000    0.02127227
  871       -6.1738254818      -0.0000305919     1.000000    0.02127227
  872       -6.1737948899       0.0000305919     1.000000    0.02127227
  873       -6.1738254818      -0.0000305919     1.000000    0.02127227
  874       -6.1737948899       0.0000305919     1.000000    0.02127227
  875       -6.1738254818      -0.0000305919     1.000000    0.02127227
  876       -6.1737948899       0.0000305919     1.000000    0.02127227
  877       -6.1738254818      -0.0000305919     1.000000    0.02127227
  878       -6.1737948899       0.0000305919     1.000000    0.02127227
  879       -6.1738254818      -0.0000305919     1.000000    0.02127227
  880       -6.1737948899       0.0000305919     1.000000    0.02127227
  881       -6.1738254818      -0.0000305919     1.000000    0.02127227
  882       -6.1737948899       0.0000305919     1.000000    0.02127227
  883       -6.1738254818      -0.0000305919     1.000000    0.02127227
  884       -6.1737948899       0.0000305919     1.000000    0.02127227
  885       -6.1738254818      -0.0000305919     1.000000    0.02127227
  886       -6.1737948899       0.0000305919     1.000000    0.02127227
  887       -6.1738254818      -0.0000305919     1.000000    0.02127227
  888       -6.1737948899       0.0000305919     1.000000    0.02127227
  889       -6.1738254818      -0.0000305919     1.000000    0.02127227
  890       -6.1737948899       0.0000305919     1.000000    0.02127227
  891       -6.1738254818      -0.0000305919     1.000000    0.02127227
  892       -6.1737948899       0.0000305919     1.000000    0.02127227
  893       -6.1738254818      -0.0000305919     1.000000    0.02127227
  894       -6.1737948899       0.0000305919     1.000000    0.02127227
  895       -6.1738254818      -0.0000305919     1.000000    0.02127227
  896       -6.1737948899       0.0000305919     1.000000    0.02127227
  897       -6.1738254818      -0.0000305919     1.000000    0.02127227
  898       -6.1737948899       0.0000305919     1.000000    0.02127227
  899       -6.1738254818      -0.0000305919     1.000000    0.02127227
  900       -6.1737948899       0.0000305919     1.000000    0.02127227
  901       -6.1738254818      -0.0000305919     1.000000    0.02127227
  902       -6.1737948899       0.0000305919     1.000000    0.02127227
  903       -6.1738254818      -0.0000305919     1.000000    0.02127227
  904       -6.1737948899       0.0000305919     1.000000    0.02127227
  905       -6.1738254818      -0.0000305919     1.000000    0.02127227
  906       -6.1737948899       0.0000305919     1.000000    0.02127227
  907       -6.1738254818      -0.0000305919     1.000000    0.02127227
  908       -6.1737948899       0.0000305919     1.000000    0.02127227
  909       -6.1738254818      -0.0000305919     1.000000    0.02127227
  910       -6.1737948899       0.0000305919     1.000000    0.02127227
  911       -6.1738254818      -0.0000305919     1.000000    0.02127227
  912       -6.1737948899       0.0000305919     1.000000    0.02127227
  913       -6.1738254818      -0.0000305919     1.000000    0.02127227
  914       -6.1737948899       0.0000305919     1.000000    0.02127227
  915       -6.1738254818      -0.0000305919     1.000000    0.02127227
  916       -6.1737948899       0.0000305919     1.000000    0.02127227
  917       -6.1738254818      -0.0000305919     1.000000    0.02127227
  918       -6.1737948899       0.0000305919     1.000000    0.02127227
  919       -6.1738254818      -0.0000305919     1.000000    0.02127227
  920       -6.1737948899       0.0000305919     1.000000    0.02127227
  921       -6.1738254818      -0.0000305919     1.000000    0.02127227
  922       -6.1737948899       0.0000305919     1.000000    0.02127227
  923       -6.1738254818      -0.0000305919     1.000000    0.02127227
  924       -6.1737948899       0.0000305919     1.000000    0.02127227
  925       -6.1738254818      -0.0000305919     1.000000    0.02127227
  926       -6.1737948899       0.0000305919     1.000000    0.02127227
  927       -6.1738254818      -0.0000305919     1.000000    0.02127227
  928       -6.1737948899       0.0000305919     1.000000    0.02127227
  929       -6.1738254818      -0.0000305919     1.000000    0.02127227
  930       -6.1737948899       0.0000305919     1.000000    0.02127227
  931       -6.1738254818      -0.0000305919     1.000000    0.02127227
  932       -6.1737948899       0.0000305919     1.000000    0.02127227
  933       -6.1738254818      -0.0000305919     1.000000    0.02127227
  934       -6.1737948899       0.0000305919     1.000000    0.02127227
  935       -6.1738254818      -0.0000305919     1.000000    0.02127227
  936       -6.1737948899       0.0000305919     1.000000    0.02127227
  937       -6.1738254818      -0.0000305919     1.000000    0.02127227
  938       -6.1737948899       0.0000305919     1.000000    0.02127227
  939       -6.1738254818      -0.0000305919     1.000000    0.02127227
  940       -6.1737948899       0.0000305919     1.000000    0.02127227
  941       -6.1738254818      -0.0000305919     1.000000    0.02127227
  942       -6.1737948899       0.0000305919     1.000000    0.02127227
  943       -6.1738254818      -0.0000305919     1.000000    0.02127227
  944       -6.1737948899       0.0000305919     1.000000    0.02127227
  945       -6.1738254818      -0.0000305919     1.000000    0.02127227
  946       -6.1737948899       0.0000305919     1.000000    0.02127227
  947       -6.1738254818      -0.0000305919     1.000000    0.02127227
  948       -6.1737948899       0.0000305919     1.000000    0.02127227
  949       -6.1738254818      -0.0000305919     1.000000    0.02127227
  950       -6.1737948899       0.0000305919     1.000000    0.02127227
  951       -6.1738254818      -0.0000305919     1.000000    0.02127227
  952       -6.1737948899       0.0000305919     1.000000    0.02127227
  953       -6.1738254818      -0.0000305919     1.000000    0.02127227
  954       -6.1737948899       0.0000305919     1.000000    0.02127227
  955       -6.1738254818      -0.0000305919     1.000000    0.02127227
  956       -6.1737948899       0.0000305919     1.000000    0.02127227
  957       -6.1738254818      -0.0000305919     1.000000    0.02127227
  958       -6.1737948899       0.0000305919     1.000000    0.02127227
  959       -6.1738254818      -0.0000305919     1.000000    0.02127227
  960       -6.1737948899       0.0000305919     1.000000    0.02127227
  961       -6.1738254818      -0.0000305919     1.000000    0.02127227
  962       -6.1737948899       0.0000305919     1.000000    0.02127227
  963       -6.1738254818      -0.0000305919     1.000000    0.02127227
  964       -6.1737948899       0.0000305919     1.000000    0.02127227
  965       -6.1738254818      -0.0000305919     1.000000    0.02127227
  966       -6.1737948899       0.0000305919     1.000000    0.02127227
  967       -6.1738254818      -0.0000305919     1.000000    0.02127227
  968       -6.1737948899       0.0000305919     1.000000    0.02127227
  969       -6.1738254818      -0.0000305919     1.000000    0.02127227
  970       -6.1737948899       0.0000305919     1.000000    0.02127227
  971       -6.1738254818      -0.0000305919     1.000000    0.02127227
  972       -6.1737948899       0.0000305919     1.000000    0.02127227
  973       -6.1738254818      -0.0000305919     1.000000    0.02127227
  974       -6.1737948899       0.0000305919     1.000000    0.02127227
  975       -6.1738254818      -0.0000305919     1.000000    0.02127227
  976       -6.1737948899       0.0000305919     1.000000    0.02127227
  977       -6.1738254818      -0.0000305919     1.000000    0.02127227
  978       -6.1737948899       0.0000305919     1.000000    0.02127227
  979       -6.1738254818      -0.0000305919     1.000000    0.02127227
  980       -6.1737948899       0.0000305919     1.000000    0.02127227
  981       -6.1738254818      -0.0000305919     1.000000    0.02127227
  982       -6.1737948899       0.0000305919     1.000000    0.02127227
  983       -6.1738254818      -0.0000305919     1.000000    0.02127227
  984       -6.1737948899       0.0000305919     1.000000    0.02127227
  985       -6.1738254818      -0.0000305919     1.000000    0.02127227
  986       -6.1737948899       0.0000305919     1.000000    0.02127227
  987       -6.1738254818      -0.0000305919     1.000000    0.02127227
  988       -6.1737948899       0.0000305919     1.000000    0.02127227
  989       -6.1738254818      -0.0000305919     1.000000    0.02127227
  990       -6.1737948899       0.0000305919     1.000000    0.02127227
  991       -6.1738254818      -0.0000305919     1.000000    0.02127227
  992       -6.1737948899       0.0000305919     1.000000    0.02127227
  993       -6.1738254818      -0.0000305919     1.000000    0.02127227
  994       -6.1737948899       0.0000305919     1.000000    0.02127227
  995       -6.1738254818      -0.0000305919     1.000000    0.02127227
  996       -6.1737948899       0.0000305919     1.000000    0.02127227
  997       -6.1738254818      -0.0000305919     1.000000    0.02127227
  998       -6.1737948899       0.0000305919     1.000000    0.02127227
  999       -6.1738254818      -0.0000305919     1.000000    0.02127227
 1000       -6.1737948899       0.0000305919     1.000000    0.02127227

Total Energy:                       -6.1737948899 H         -167.9975 eV
Extrapolated to 0:                  -6.1963837223 H         -168.6122 eV

----------------------------------------------------------------------------------
 Solving CP-REKS equation for  1 state vector...
----------------------------------------------------------------------------------
  CG solver: Constructing Y initial guess
  CG solver: Iteration    1    eps =    0.016240413390
  CG solver: Iteration    2    eps =    0.005521079798
  CG solver: Iteration    3    eps =    0.002234004621
  CG solver: Iteration    4    eps =    0.000328440519
  CG solver: Iteration    5    eps =    0.000065779012
  CG solver: Iteration    6    eps =    0.000015333201
  CG solver: Iteration    7    eps =    0.000000647594
  CG solver: Iteration    8    eps =    0.000000043767
  CG solver: Iteration    9    eps =    0.000000003481
  Convergence reached in CG solver after    9 iterations
  CG solver: Calculating converged R, Z, Q2 matrix
----------------------------------------------------------------------------------

----------------------------------------------------------------------------------
 Solving CP-REKS equation for SI between  1 and  2 state vectors...
----------------------------------------------------------------------------------
  CG solver: Constructing Y initial guess
  CG solver: Iteration    1    eps =    0.015150272119
  CG solver: Iteration    2    eps =    0.008211937840
  CG solver: Iteration    3    eps =    0.000130564341
  CG solver: Iteration    4    eps =    0.000008709642
  CG solver: Iteration    5    eps =    0.000001334938
  CG solver: Iteration    6    eps =    0.000000511839
  CG solver: Iteration    7    eps =    0.000000044546
  CG solver: Iteration    8    eps =    0.000000015395
  CG solver: Iteration    9    eps =    0.000000001188
  Convergence reached in CG solver after    9 iterations
  CG solver: Calculating converged R, Z, Q2 matrix
----------------------------------------------------------------------------------

--------------------------------------------------
 Gradient Information
--------------------------------------------------
           1 st state (SSR)
     0.00000000     0.00000000     0.00000000
     0.00000000     0.00000000     0.00000000
     0.00000000     0.00000000     0.00000000
     0.00000000     0.00000000     0.00000000
     0.00000000     0.00000000     0.00000000
     0.00000000     0.00000000     0.00000000

           2 st state (SSR)
     0.00000000     0.00000000     0.00000000
     0.00000000     0.00000000     0.00000000
     0.00000000     0.00000000     0.00000000
     0.00000000     0.00000000     0.00000000
     0.00000000     0.00000000     0.00000000
     0.00000000     0.00000000     0.00000000
--------------------------------------------------
 Coupling Information
--------------------------------------------------
 between  1 and  2 states
--------------------------------------------------
 g vector - difference gradient
     0.49158931     0.40623014     0.33222979
    -0.31634066     0.03043544     0.17519949
     0.14486664    -0.23702035    -0.39986221
    -0.14146700    -0.04746648    -0.01271816
    -0.13834853     0.04257526    -0.16979007
    -0.04029976    -0.19475401     0.07494116

 h vector - derivative coupling
    -0.02204425     0.00417460    -0.00928591
     0.03369055     0.00552305    -0.01330419
     0.00073886    -0.00574122     0.00696458
    -0.00165492     0.00432398    -0.00089844
    -0.01143574    -0.00567523     0.00744275
     0.00070550    -0.00260518     0.00908121

 G vector - GDV
     0.00000000     0.00000000     0.00000000
     0.00000000     0.00000000     0.00000000
     0.00000000     0.00000000     0.00000000
     0.00000000     0.00000000     0.00000000
     0.00000000     0.00000000     0.00000000
     0.00000000     0.00000000     0.00000000

 H vector - DCV - non-adiabatic coupling
     0.00000000     0.00000000     0.00000000
     0.00000000     0.00000000     0.00000000
     0.00000000     0.00000000     0.00000000
     0.00000000     0.00000000     0.00000000
     0.00000000     0.00000000     0.00000000
     0.00000000     0.00000000     0.00000000
--------------------------------------------------

WARNING!
-> SCC is NOT converged, maximal SCC iterations exceeded

--------------------------------------------------------------------------------
DFTB+ running times                          cpu [s]             wall clock [s]
--------------------------------------------------------------------------------
SCC                                    +     0.40  ( 97.0%)      0.41  ( 96.2%)
      Sparse to dense                        0.02  (  4.9%)      0.03  (  6.6%)
      Dense to sparse                        0.07  ( 16.3%)      0.06  ( 13.5%)
      Range separated Hamiltonian            0.03  (  6.7%)      0.02  (  4.3%)
  Density matrix creation                    0.05  ( 12.6%)      0.05  ( 12.1%)
  Force calculation                          0.01  (  2.7%)      0.01  (  2.8%)
--------------------------------------------------------------------------------
Missing                                +     0.01  (  3.0%)      0.02  (  3.8%)
Total                                  =     0.42  (100.0%)      0.42  (100.0%)
--------------------------------------------------------------------------------
