 Fermi distribution function

Calculation with static geometry


********************************************************************************
 iSCC Total electronic   Diff electronic      SCC error    
   13   -0.53152077E+01   -0.45776716E-11    0.67453493E-07
********************************************************************************

 Total charge:     1.00000000

 Atomic gross charges (e)
 Atom           Charge
    1       0.31760212
    2      -0.20637558
    3       0.17307891
    4       0.28586264
    5       0.26301950
    6       0.16681241

Nr. of electrons (up):     12.00000000
Atom populations (up)
 Atom       Population
    1       3.68239788
    2       5.20637558
    3       0.82692109
    4       0.71413736
    5       0.73698050
    6       0.83318759

l-shell populations (up)
 Atom Sh.   l       Population
    1   1   0       1.36221774
    1   2   1       2.32018014
    2   1   0       1.48087287
    2   2   1       3.72550271
    3   1   0       0.82692109
    4   1   0       0.71413736
    5   1   0       0.73698050
    6   1   0       0.83318759

Orbital populations (up)
 Atom Sh.   l   m       Population  Label
    1   1   0   0       1.36221774  s
    1   2   1  -1       0.49223504  p_y
    1   2   1   0       0.87414376  p_z
    1   2   1   1       0.95380134  p_x
    2   1   0   0       1.48087287  s
    2   2   1  -1       1.35959632  p_y
    2   2   1   0       1.08405827  p_z
    2   2   1   1       1.28184812  p_x
    3   1   0   0       0.82692109  s
    4   1   0   0       0.71413736  s
    5   1   0   0       0.73698050  s
    6   1   0   0       0.83318759  s

Fermi level:                        -0.5061073737 H          -13.7719 eV
Band energy:                        -8.7429120719 H         -237.9067 eV
TS:                                  0.0000000000 H            0.0000 eV
Band free energy (E-TS):            -8.7429120719 H         -237.9067 eV
Extrapolated E(0K):                 -8.7429120719 H         -237.9067 eV
Input / Output electrons (q):     12.0000000000     12.0000000000

Energy H0:                          -5.4509327076 H         -148.3274 eV
Energy SCC:                          0.1357249935 H            3.6933 eV
Total Electronic energy:            -5.3152077141 H         -144.6342 eV
Repulsive energy:                    0.1526937597 H            4.1550 eV
Total energy:                       -5.1625139544 H         -140.4792 eV
Extrapolated to 0:                  -5.1625139544 H         -140.4792 eV
Total Mermin free energy:           -5.1625139544 H         -140.4792 eV
Force related energy:               -5.1625139544 H         -140.4792 eV

SCC converged

Excitation Energy:                   0.0948632394 H            2.5814 eV

Total Forces
    1     -0.002908936716     -0.000957633149      0.074665068023
    2      0.004316277098      0.010849751466     -0.076075964945
    3     -0.004439594055     -0.015887221483      0.001865078727
    4     -0.008659842584      0.010227559695      0.002477414447
    5      0.006934174079     -0.015409959527     -0.003291784915
    6      0.004757922179      0.011177502998      0.000360188663

Maximal derivative component:        0.760760E-01 au


