|===============================================================================
|
|  DFTB+ release 20.1
|
|  Copyright (C) 2006 - 2020  DFTB+ developers group
|
|===============================================================================
|
|  When publishing results obtained with DFTB+, please cite the following
|  reference:
|
|  * DFTB+, a software package for efficient approximate density functional
|    theory based atomistic simulations, J. Chem. Phys. 152, 124101 (2020).
|    [doi: 10.1063/1.5143190]
|
|  You should also cite additional publications crediting the parametrization
|  data you use. Please consult the documentation of the SK-files for the
|  references.
|
|===============================================================================

Reading input file 'dftb_in.hsd'
Parser version: 8

--------------------------------------------------------------------------------
Reading SK-files:
Done.


Processed input in HSD format written to 'dftb_pin.hsd'

Starting initialization...
--------------------------------------------------------------------------------
WARNING!
-> Excited state forces are not implemented yet for fractional occupations, kT=  0.3158E-02K
OpenMP threads:              1
Chosen random seed:          433436049
Mode:                        Static calculation
Self consistent charges:     Yes
SCC-tolerance:                 0.100000E-05
Max. scc iterations:                    100
Shell resolved Hubbard:      No
Spin polarisation:           No
Nr. of up electrons:             6.000000
Nr. of down electrons:           6.000000
Periodic boundaries:         No
Electronic solver:           Relatively robust
Mixer:                       Broyden mixer
Mixing parameter:                  0.200000
Maximal SCC-cycles:                     100
Nr. of chrg. vec. in memory:              0
Electronic temperature:        0.100000E-07 H      0.272114E-06 eV
Initial charges:             Set automatically (system chrg:   0.100E+01)
Included shells:             C:  s, p
                             N:  s, p
                             H:  s
Extra options:
                             Mulliken analysis
                             Force calculation
Force type                   original
                             Eigenvector printing

--------------------------------------------------------------------------------

***  Geometry step: 0

 iSCC Total electronic   Diff electronic      SCC error    
    1   -0.52887122E+01    0.00000000E+00    0.10267779E+01
    2   -0.53047483E+01   -0.16036122E-01    0.66765102E+00
    3   -0.53126081E+01   -0.78597247E-02    0.22365475E+00
    4   -0.51701720E+01    0.14243603E+00    0.12686013E+01
    5   -0.53150751E+01   -0.14490307E+00    0.39456353E-01
    6   -0.53151935E+01   -0.11842970E-03    0.16972355E-01
    7   -0.53151938E+01   -0.30317381E-06    0.15016467E-01
    8   -0.53152051E+01   -0.11273671E-04    0.60504244E-02
    9   -0.53152063E+01   -0.11886886E-05    0.44450394E-02
   10   -0.53152076E+01   -0.13413144E-05    0.10069436E-02
   11   -0.53152077E+01   -0.55231292E-07    0.50029357E-03
   12   -0.53152077E+01   -0.18106534E-07    0.79458901E-05
   13   -0.53152077E+01   -0.45776716E-11    0.67453493E-07
>> Charges saved for restart in charges.bin

Total Energy:                       -5.0676507150 H         -137.8978 eV
Extrapolated to 0:                  -5.1625139544 H         -140.4792 eV
Total Mermin free energy:           -5.0676507150 H         -137.8978 eV
Force related energy:               -5.1625139544 H         -140.4792 eV

--------------------------------------------------------------------------------
DFTB+ running times                          cpu [s]             wall clock [s]
--------------------------------------------------------------------------------
Global initialisation                  +     0.00  (  2.2%)      0.01  (  9.2%)
SCC                                    +     0.02  ( 64.9%)      0.08  ( 68.8%)
Post-SCC processing                    +     0.01  ( 30.2%)      0.02  ( 20.2%)
--------------------------------------------------------------------------------
Missing                                +     0.00  (  2.7%)      0.00  (  1.8%)
Total                                  =     0.04  (100.0%)      0.11  (100.0%)
--------------------------------------------------------------------------------
