|===============================================================================
|
|  DFTB+ release 20.1
|
|  Copyright (C) 2006 - 2020  DFTB+ developers group
|
|===============================================================================
|
|  When publishing results obtained with DFTB+, please cite the following
|  reference:
|
|  * DFTB+, a software package for efficient approximate density functional
|    theory based atomistic simulations, J. Chem. Phys. 152, 124101 (2020).
|    [doi: 10.1063/1.5143190]
|
|  You should also cite additional publications crediting the parametrization
|  data you use. Please consult the documentation of the SK-files for the
|  references.
|
|===============================================================================

Reading input file 'dftb_in.hsd'
Parser version: 8

--------------------------------------------------------------------------------
Reading SK-files:
Done.


Processed input in HSD format written to 'dftb_pin.hsd'

Starting initialization...
--------------------------------------------------------------------------------
OpenMP threads:              1
Chosen random seed:          510963925
Mode:                        Static calculation
Self consistent charges:     Yes
SCC-tolerance:                 0.100000E-05
Max. scc iterations:                   1000
Shell resolved Hubbard:      No
Spin polarisation:           No
Nr. of up electrons:             6.000000
Nr. of down electrons:           6.000000
Periodic boundaries:         No
Electronic solver:           Relatively robust
Maximal SCC-cycles:                    1000
Initial charges:             Set automatically (system chrg:   0.100E+01)
Included shells:             C:  s, p
                             N:  s, p
                             H:  s
Spin coupling constants:     C   1(s)-1(s):  -0.455900E-01
                             C   1(s)-2(p):  -0.293000E-01
                             C   2(p)-1(s):  -0.293000E-01
                             C   2(p)-2(p):  -0.275500E-01
                             N   1(s)-1(s):  -0.468700E-01
                             N   1(s)-2(p):  -0.317000E-01
                             N   2(p)-1(s):  -0.317000E-01
                             N   2(p)-2(p):  -0.307200E-01
                             H   1(s)-1(s):  -0.792500E-01
Range separated hybrid:      Yes
  Screening parameter omega:   0.300000E+00
  Range separated algorithm:   MatrixBased
Extra options:
                             Mulliken analysis
                             Force calculation
Force type                   original
                             Eigenvector printing


REKS Calcuation:             Yes
SSR(2,2) Calcuation:         Yes
Energy Functional:           (PPS+OSS)/2
Number of Core Orbitals:                  5
Number of Active Orbitals:                2
Number of Basis:                         12
Number of States:                         2
State-Averaging Weight:          0.500000
                                 0.500000
State of Interest:                        1
Initial Guess:               Diagonalize H0 matrix
Newton-Raphson for FON opt:  Yes
NR max. Iterations:                      50
Level Shifting:              Yes
Shift Value:                     0.300000
W Scale Factor:              C  =    3.000000
                             N  =    3.000000
                             H  =    3.000000
Transition Dipole:           No
Gradient of Microstate:      No
CP-REKS Solver:              Preconditioned Conjugate-Gradient
CG max. Iterations:                     100
CG Tolerance:                  0.100000E-07
Memory for A and Hxc:        Direct Updating Without Saving
Non-Adiabatic Coupling:      Yes

--------------------------------------------------------------------------------

***  Geometry step: 0

  iSCC       reks energy        Diff energy         x_a       SCC error   
    1       -6.2630936380       0.0000000000     0.999622    1.19036597
    2       -6.2746074144      -0.0115137764     0.999832    0.08620340
    3       -6.2785195492      -0.0039121348     0.999903    0.03583671
    4       -6.2805650254      -0.0020454762     0.999935    0.01734152
    5       -6.2817324583      -0.0011674329     0.999950    0.00872328
    6       -6.2824120071      -0.0006795488     0.999958    0.00770213
    7       -6.2828065580      -0.0003945509     0.999963    0.00642615
    8       -6.2830337403      -0.0002271823     0.999966    0.00516365
    9       -6.2831635845      -0.0001298442     0.999967    0.00404706
   10       -6.2832374729      -0.0000738884     0.999968    0.00311906
   11       -6.2832794782      -0.0000420052     0.999969    0.00237669
   12       -6.2833034068      -0.0000239287     0.999969    0.00179733
   13       -6.2833170996      -0.0000136928     0.999969    0.00135254
   14       -6.2833249852      -0.0000078856     0.999970    0.00101481
   15       -6.2833295614      -0.0000045761     0.999970    0.00076025
   16       -6.2833322394      -0.0000026781     0.999970    0.00056929
   17       -6.2833338204      -0.0000015810     0.999970    0.00042646
   18       -6.2833347619      -0.0000009414     0.999970    0.00034294
   19       -6.2833353271      -0.0000005652     0.999970    0.00027890
   20       -6.2833356691      -0.0000003420     0.999970    0.00022628
   21       -6.2833358775      -0.0000002084     0.999970    0.00018361
   22       -6.2833360052      -0.0000001277     0.999970    0.00015017
   23       -6.2833360839      -0.0000000787     0.999970    0.00012238
   24       -6.2833361327      -0.0000000487     0.999970    0.00009943
   25       -6.2833361630      -0.0000000303     0.999970    0.00008058
   26       -6.2833361819      -0.0000000189     0.999970    0.00006515
   27       -6.2833361937      -0.0000000118     0.999970    0.00005258
   28       -6.2833362011      -0.0000000074     0.999970    0.00004236
   29       -6.2833362058      -0.0000000047     0.999970    0.00003408
   30       -6.2833362087      -0.0000000029     0.999970    0.00002738
   31       -6.2833362106      -0.0000000018     0.999970    0.00002198
   32       -6.2833362117      -0.0000000012     0.999970    0.00001762
   33       -6.2833362124      -0.0000000007     0.999970    0.00001412
   34       -6.2833362129      -0.0000000005     0.999970    0.00001130
   35       -6.2833362132      -0.0000000003     0.999970    0.00000904
   36       -6.2833362134      -0.0000000002     0.999970    0.00000723
   37       -6.2833362135      -0.0000000001     0.999970    0.00000578
   38       -6.2833362136      -0.0000000001     0.999970    0.00000462
   39       -6.2833362136      -0.0000000000     0.999970    0.00000369
   40       -6.2833362137      -0.0000000000     0.999970    0.00000294
   41       -6.2833362137      -0.0000000000     0.999970    0.00000235
   42       -6.2833362137      -0.0000000000     0.999970    0.00000187
   43       -6.2833362137      -0.0000000000     0.999970    0.00000149
   44       -6.2833362137      -0.0000000000     0.999970    0.00000119
   45       -6.2833362137      -0.0000000000     0.999970    0.00000095
  
--------------------------------------------------
 Final SA-REKS(2,2) energy:      -6.28333621
  
 State     Energy      FON(1)    FON(2)   Spin
  PPS   -6.41195812   1.999939  0.000061  0.00
  OSS   -6.15471431   1.000000  1.000000  0.00
 Trip   -6.23286748   1.000000  1.000000  1.00
--------------------------------------------------

 Lagrangian Wab:  -0.00296776 -0.00296765

--------------------------------------------------
 SSR: 2SI-2SA-REKS(2,2) Hamiltonian matrix
               PPS           OSS
   PPS    -6.41195812   -0.00417386
   OSS    -0.00417386   -6.15471431
--------------------------------------------------

----------------------------------------------------------------
 SSR: 2SI-2SA-REKS(2,2) states
                    E_n       C_{PPS}    C_{OSS}
 SSR state  1   -6.41202583  -0.999868  -0.016219
 SSR state  2   -6.15464660   0.016219  -0.999868
----------------------------------------------------------------

 unrelaxed SSR FONs for S0:  1.999676  0.000324

Total Energy:                       -6.4120258251 H         -174.4801 eV
Extrapolated to 0:                  -6.4120258251 H         -174.4801 eV

----------------------------------------------------------------------------------
 Solving CP-REKS equation for  1 state vector...
----------------------------------------------------------------------------------
  CG solver: Constructing Y initial guess
  CG solver: Iteration    1    eps =    0.000048407520
  CG solver: Iteration    2    eps =    0.000011227060
  CG solver: Iteration    3    eps =    0.000000467771
  CG solver: Iteration    4    eps =    0.000000087603
  CG solver: Iteration    5    eps =    0.000000012194
  CG solver: Iteration    6    eps =    0.000000000398
  Convergence reached in CG solver after    6 iterations
  CG solver: Calculating converged R, Z, Q2 matrix
----------------------------------------------------------------------------------

----------------------------------------------------------------------------------
 Solving CP-REKS equation for SI between  1 and  2 state vectors...
----------------------------------------------------------------------------------
  CG solver: Constructing Y initial guess
  CG solver: Iteration    1    eps =    0.000785072847
  CG solver: Iteration    2    eps =    0.000531616337
  CG solver: Iteration    3    eps =    0.000151245167
  CG solver: Iteration    4    eps =    0.000002390052
  CG solver: Iteration    5    eps =    0.000000340039
  CG solver: Iteration    6    eps =    0.000000010582
  CG solver: Iteration    7    eps =    0.000000000340
  Convergence reached in CG solver after    7 iterations
  CG solver: Calculating converged R, Z, Q2 matrix
----------------------------------------------------------------------------------

--------------------------------------------------
 Gradient Information
--------------------------------------------------
           1 st state (SSR)
     0.00408195    -0.01780761     0.02624112
    -0.02436468    -0.00284671    -0.03038787
     0.00753758     0.00324077     0.00759557
     0.01558378     0.00747979     0.00032215
     0.00343001     0.00722502     0.00508313
    -0.00626864     0.00270874    -0.00885410

           2 st state (SSR)
    -0.00831849    -0.00031457     0.13239157
     0.01634654     0.00146406    -0.15404075
    -0.00661550    -0.01636670     0.02231060
    -0.01105704     0.01206648    -0.00730729
     0.00120855    -0.00268151    -0.00430063
     0.00843594     0.00583224     0.01094649
--------------------------------------------------
 Coupling Information
--------------------------------------------------
 between  1 and  2 states
--------------------------------------------------
 g vector - difference gradient
     0.00615107    -0.00862043    -0.05318440
    -0.02050898    -0.00237237     0.06191465
     0.00736715     0.00974227    -0.00737490
     0.01362697    -0.00222178     0.00378702
     0.00090788     0.00503989     0.00474890
    -0.00754409    -0.00156758    -0.00989127

 h vector - derivative coupling
     0.00161501    -0.00402744     0.00250329
     0.00439620     0.00665168    -0.00171545
    -0.00884057     0.00205299     0.00041651
    -0.00923099    -0.00224260     0.00091548
     0.00626909    -0.00258899    -0.00168116
     0.00579126     0.00015437    -0.00043868

 G vector - GDV
     0.00620022    -0.00874652    -0.05307523
    -0.02035561    -0.00215539     0.06182644
     0.00707654     0.00980373    -0.00735752
     0.01332041    -0.00229335     0.00381472
     0.00111073     0.00495327     0.00469188
    -0.00735229    -0.00156175    -0.00990029

 H vector - DCV - non-adiabatic coupling
     0.00549640    -0.01455335     0.01642298
     0.01965606     0.02612924    -0.01446369
    -0.03525870     0.00674464     0.00254677
    -0.03756366    -0.00842866     0.00307784
     0.02423019    -0.01068886    -0.00712683
     0.02343971     0.00079698    -0.00045706
--------------------------------------------------


--------------------------------------------------------------------------------
DFTB+ running times                          cpu [s]             wall clock [s]
--------------------------------------------------------------------------------
SCC                                    +     0.03  ( 71.0%)      0.03  ( 65.3%)
Post-SCC processing                    +     0.01  ( 22.6%)      0.01  ( 22.4%)
  Force calculation                          0.01  ( 22.2%)      0.01  ( 20.4%)
--------------------------------------------------------------------------------
Missing                                +     0.00  (  6.4%)      0.01  ( 12.2%)
Total                                  =     0.04  (100.0%)      0.05  (100.0%)
--------------------------------------------------------------------------------
