     6
  Step:   300            Position(A)                                  Velocity(au)
C        -0.02207193     0.00363013     0.02036086    -0.00005640    -0.00006724     0.00015759
N        -0.04736614    -0.05504158     1.29494919     0.00020532     0.00002523    -0.00015714
H         0.19640615    -0.86808112    -0.60287684    -0.00111872     0.00020608    -0.00068582
H        -0.07419828     0.82730901     1.81926864    -0.00239165    -0.00026695     0.00032092
H        -0.23232977    -0.90817264     1.82436224     0.00011922     0.00044584     0.00054635
H        -0.18160108     1.00079899    -0.38639912     0.00121001     0.00006559     0.00012431
