|===============================================================================
|
|  DFTB+ release 20.1
|
|  Copyright (C) 2006 - 2020  DFTB+ developers group
|
|===============================================================================
|
|  When publishing results obtained with DFTB+, please cite the following
|  reference:
|
|  * DFTB+, a software package for efficient approximate density functional
|    theory based atomistic simulations, J. Chem. Phys. 152, 124101 (2020).
|    [doi: 10.1063/1.5143190]
|
|  You should also cite additional publications crediting the parametrization
|  data you use. Please consult the documentation of the SK-files for the
|  references.
|
|===============================================================================

Reading input file 'dftb_in.hsd'
Parser version: 8

--------------------------------------------------------------------------------
Reading SK-files:
Done.


Processed input in HSD format written to 'dftb_pin.hsd'

Starting initialization...
--------------------------------------------------------------------------------
OpenMP threads:              1
Chosen random seed:          509733201
Mode:                        Static calculation
Self consistent charges:     Yes
SCC-tolerance:                 0.100000E-05
Max. scc iterations:                   1000
Shell resolved Hubbard:      No
Spin polarisation:           No
Nr. of up electrons:             6.000000
Nr. of down electrons:           6.000000
Periodic boundaries:         No
Electronic solver:           Relatively robust
Maximal SCC-cycles:                    1000
Initial charges:             Set automatically (system chrg:   0.100E+01)
Included shells:             C:  s, p
                             N:  s, p
                             H:  s
Spin coupling constants:     C   1(s)-1(s):  -0.455900E-01
                             C   1(s)-2(p):  -0.293000E-01
                             C   2(p)-1(s):  -0.293000E-01
                             C   2(p)-2(p):  -0.275500E-01
                             N   1(s)-1(s):  -0.468700E-01
                             N   1(s)-2(p):  -0.317000E-01
                             N   2(p)-1(s):  -0.317000E-01
                             N   2(p)-2(p):  -0.307200E-01
                             H   1(s)-1(s):  -0.792500E-01
Range separated hybrid:      Yes
  Screening parameter omega:   0.300000E+00
  Range separated algorithm:   MatrixBased
Extra options:
                             Mulliken analysis
                             Force calculation
Force type                   original
                             Eigenvector printing


REKS Calcuation:             Yes
SSR(2,2) Calcuation:         Yes
Energy Functional:           (PPS+OSS)/2
Number of Core Orbitals:                  5
Number of Active Orbitals:                2
Number of Basis:                         12
Number of States:                         2
State-Averaging Weight:          0.500000
                                 0.500000
State of Interest:                        1
Initial Guess:               Diagonalize H0 matrix
Newton-Raphson for FON opt:  Yes
NR max. Iterations:                      50
Level Shifting:              Yes
Shift Value:                     0.300000
W Scale Factor:              C  =    3.000000
                             N  =    3.000000
                             H  =    3.000000
Transition Dipole:           No
Gradient of Microstate:      No
CP-REKS Solver:              Preconditioned Conjugate-Gradient
CG max. Iterations:                     100
CG Tolerance:                  0.100000E-07
Memory for A and Hxc:        Direct Updating Without Saving
Non-Adiabatic Coupling:      Yes

--------------------------------------------------------------------------------

***  Geometry step: 0

  iSCC       reks energy        Diff energy         x_a       SCC error   
    1       -6.2573907802       0.0000000000     0.999137    1.18031300
    2       -6.2721946884      -0.0148039081     0.999671    0.11100908
    3       -6.2773568913      -0.0051622029     0.999827    0.05397657
    4       -6.2804335806      -0.0030766893     0.999893    0.02752994
    5       -6.2826052893      -0.0021717087     0.999926    0.01407860
    6       -6.2842093323      -0.0016040430     0.999944    0.01241020
    7       -6.2853803590      -0.0011710267     0.999955    0.01146124
    8       -6.2862066755      -0.0008263165     0.999961    0.01030282
    9       -6.2867679742      -0.0005612987     0.999965    0.00890475
   10       -6.2871365642      -0.0003685900     0.999967    0.00749599
   11       -6.2873722268      -0.0002356626     0.999969    0.00619919
   12       -6.2875200158      -0.0001477890     0.999970    0.00506743
   13       -6.2876115163      -0.0000915005     0.999970    0.00411172
   14       -6.2876677410      -0.0000562247     0.999970    0.00332105
   15       -6.2877021696      -0.0000344286     0.999971    0.00267510
   16       -6.2877232415      -0.0000210719     0.999971    0.00215136
   17       -6.2877361595      -0.0000129181     0.999971    0.00172858
   18       -6.2877441030      -0.0000079434     0.999971    0.00138818
   19       -6.2877490064      -0.0000049034     0.999971    0.00111449
   20       -6.2877520462      -0.0000030398     0.999971    0.00089460
   21       -6.2877539389      -0.0000018927     0.999971    0.00071802
   22       -6.2877551224      -0.0000011835     0.999971    0.00057624
   23       -6.2877558653      -0.0000007429     0.999971    0.00046243
   24       -6.2877563333      -0.0000004680     0.999971    0.00037107
   25       -6.2877566291      -0.0000002958     0.999971    0.00029774
   26       -6.2877568166      -0.0000001875     0.999970    0.00023888
   27       -6.2877569357      -0.0000001191     0.999970    0.00019221
   28       -6.2877570115      -0.0000000758     0.999970    0.00015522
   29       -6.2877570598      -0.0000000483     0.999970    0.00012525
   30       -6.2877570907      -0.0000000309     0.999970    0.00010100
   31       -6.2877571104      -0.0000000197     0.999970    0.00008140
   32       -6.2877571231      -0.0000000126     0.999970    0.00006556
   33       -6.2877571312      -0.0000000081     0.999970    0.00005278
   34       -6.2877571363      -0.0000000052     0.999970    0.00004248
   35       -6.2877571397      -0.0000000033     0.999970    0.00003417
   36       -6.2877571418      -0.0000000021     0.999970    0.00002748
   37       -6.2877571432      -0.0000000014     0.999970    0.00002209
   38       -6.2877571441      -0.0000000009     0.999970    0.00001775
   39       -6.2877571446      -0.0000000006     0.999970    0.00001426
   40       -6.2877571450      -0.0000000004     0.999970    0.00001146
   41       -6.2877571452      -0.0000000002     0.999970    0.00000920
   42       -6.2877571454      -0.0000000001     0.999970    0.00000739
   43       -6.2877571455      -0.0000000001     0.999970    0.00000593
   44       -6.2877571455      -0.0000000001     0.999970    0.00000476
   45       -6.2877571456      -0.0000000000     0.999970    0.00000382
   46       -6.2877571456      -0.0000000000     0.999970    0.00000307
   47       -6.2877571456      -0.0000000000     0.999970    0.00000246
   48       -6.2877571456      -0.0000000000     0.999970    0.00000198
   49       -6.2877571456      -0.0000000000     0.999970    0.00000159
   50       -6.2877571456      -0.0000000000     0.999970    0.00000127
   51       -6.2877571456      -0.0000000000     0.999970    0.00000102
   52       -6.2877571456      -0.0000000000     0.999970    0.00000082
  
--------------------------------------------------
 Final SA-REKS(2,2) energy:      -6.28775715
  
 State     Energy      FON(1)    FON(2)   Spin
  PPS   -6.41773922   1.999941  0.000059  0.00
  OSS   -6.15777507   1.000000  1.000000  0.00
 Trip   -6.23641972   1.000000  1.000000  1.00
--------------------------------------------------

 Lagrangian Wab:  -0.00219299 -0.00219291

--------------------------------------------------
 SSR: 2SI-2SA-REKS(2,2) Hamiltonian matrix
               PPS           OSS
   PPS    -6.41773922   -0.00308443
   OSS    -0.00308443   -6.15777507
--------------------------------------------------

----------------------------------------------------------------
 SSR: 2SI-2SA-REKS(2,2) states
                    E_n       C_{PPS}    C_{OSS}
 SSR state  1   -6.41777581  -0.999930  -0.011862
 SSR state  2   -6.15773848   0.011862  -0.999930
----------------------------------------------------------------

 unrelaxed SSR FONs for S0:  1.999800  0.000200

Total Energy:                       -6.4177758092 H         -174.6366 eV
Extrapolated to 0:                  -6.4177758092 H         -174.6366 eV

----------------------------------------------------------------------------------
 Solving CP-REKS equation for  1 state vector...
----------------------------------------------------------------------------------
  CG solver: Constructing Y initial guess
  CG solver: Iteration    1    eps =    0.000040083553
  CG solver: Iteration    2    eps =    0.000005656930
  CG solver: Iteration    3    eps =    0.000000290871
  CG solver: Iteration    4    eps =    0.000000023958
  CG solver: Iteration    5    eps =    0.000000004143
  Convergence reached in CG solver after    5 iterations
  CG solver: Calculating converged R, Z, Q2 matrix
----------------------------------------------------------------------------------

----------------------------------------------------------------------------------
 Solving CP-REKS equation for SI between  1 and  2 state vectors...
----------------------------------------------------------------------------------
  CG solver: Constructing Y initial guess
  CG solver: Iteration    1    eps =    0.000612598051
  CG solver: Iteration    2    eps =    0.000489519685
  CG solver: Iteration    3    eps =    0.000137690226
  CG solver: Iteration    4    eps =    0.000001804646
  CG solver: Iteration    5    eps =    0.000000238965
  CG solver: Iteration    6    eps =    0.000000005028
  Convergence reached in CG solver after    6 iterations
  CG solver: Calculating converged R, Z, Q2 matrix
----------------------------------------------------------------------------------

--------------------------------------------------
 Gradient Information
--------------------------------------------------
           1 st state (SSR)
    -0.00090493     0.00161130    -0.01311906
     0.00080801    -0.00056663     0.01139952
    -0.00490265    -0.00408876     0.00066284
    -0.00620557     0.00079968    -0.00216055
     0.00595268    -0.00222041     0.00164891
     0.00525246     0.00446481     0.00156834

           2 st state (SSR)
     0.00023322    -0.00341057     0.08800837
    -0.00088749     0.00712937    -0.10735618
     0.00331589     0.01027942     0.01899748
     0.00556678    -0.00558605    -0.01067707
    -0.00464685     0.00367517    -0.00703191
    -0.00358156    -0.01208735     0.01805930
--------------------------------------------------
 Coupling Information
--------------------------------------------------
 between  1 and  2 states
--------------------------------------------------
 g vector - difference gradient
    -0.00056464     0.00250774    -0.05064228
     0.00084408    -0.00384461     0.05942464
    -0.00426305    -0.00720195    -0.00916534
    -0.00605318     0.00315666     0.00426883
     0.00546579    -0.00291714     0.00435631
     0.00457100     0.00829931    -0.00824215

 h vector - derivative coupling
    -0.00019374     0.00016440     0.00271111
     0.00016469    -0.00018844    -0.00126751
     0.00643182     0.00066763    -0.00019228
     0.00696800     0.00156387    -0.00039478
    -0.00693374    -0.00132662    -0.00061848
    -0.00643702    -0.00088084    -0.00023807

 G vector - GDV
    -0.00056908     0.00251093    -0.05056372
     0.00084775    -0.00384800     0.05937785
    -0.00410927    -0.00718409    -0.00916732
    -0.00588617     0.00319287     0.00425826
     0.00529977    -0.00294779     0.00434041
     0.00441701     0.00827608    -0.00824548

 H vector - DCV - non-adiabatic coupling
    -0.00069332     0.00040326     0.01504294
     0.00055615    -0.00037372    -0.01029422
     0.02511616     0.00322373     0.00009694
     0.02734084     0.00572435    -0.00190717
    -0.02715555    -0.00483410    -0.00277517
    -0.02516427    -0.00414353    -0.00016333
--------------------------------------------------


--------------------------------------------------------------------------------
DFTB+ running times                          cpu [s]             wall clock [s]
--------------------------------------------------------------------------------
Global initialisation                  +     0.00  (  4.0%)      0.01  ( 18.3%)
SCC                                    +     0.04  ( 74.3%)      0.04  ( 61.7%)
Post-SCC processing                    +     0.01  ( 19.2%)      0.01  ( 16.7%)
--------------------------------------------------------------------------------
Missing                                +     0.00  (  2.5%)      0.00  (  3.3%)
Total                                  =     0.05  (100.0%)      0.06  (100.0%)
--------------------------------------------------------------------------------
