|===============================================================================
|
|  DFTB+ release 20.1
|
|  Copyright (C) 2006 - 2020  DFTB+ developers group
|
|===============================================================================
|
|  When publishing results obtained with DFTB+, please cite the following
|  reference:
|
|  * DFTB+, a software package for efficient approximate density functional
|    theory based atomistic simulations, J. Chem. Phys. 152, 124101 (2020).
|    [doi: 10.1063/1.5143190]
|
|  You should also cite additional publications crediting the parametrization
|  data you use. Please consult the documentation of the SK-files for the
|  references.
|
|===============================================================================

Reading input file 'dftb_in.hsd'
Parser version: 8

--------------------------------------------------------------------------------
Reading SK-files:
Done.


Processed input in HSD format written to 'dftb_pin.hsd'

Starting initialization...
--------------------------------------------------------------------------------
OpenMP threads:              1
Chosen random seed:          511510184
Mode:                        Static calculation
Self consistent charges:     Yes
SCC-tolerance:                 0.100000E-05
Max. scc iterations:                   1000
Shell resolved Hubbard:      No
Spin polarisation:           No
Nr. of up electrons:             6.000000
Nr. of down electrons:           6.000000
Periodic boundaries:         No
Electronic solver:           Relatively robust
Maximal SCC-cycles:                    1000
Initial charges:             Set automatically (system chrg:   0.100E+01)
Included shells:             C:  s, p
                             N:  s, p
                             H:  s
Spin coupling constants:     C   1(s)-1(s):  -0.455900E-01
                             C   1(s)-2(p):  -0.293000E-01
                             C   2(p)-1(s):  -0.293000E-01
                             C   2(p)-2(p):  -0.275500E-01
                             N   1(s)-1(s):  -0.468700E-01
                             N   1(s)-2(p):  -0.317000E-01
                             N   2(p)-1(s):  -0.317000E-01
                             N   2(p)-2(p):  -0.307200E-01
                             H   1(s)-1(s):  -0.792500E-01
Range separated hybrid:      Yes
  Screening parameter omega:   0.300000E+00
  Range separated algorithm:   MatrixBased
Extra options:
                             Mulliken analysis
                             Force calculation
Force type                   original
                             Eigenvector printing


REKS Calcuation:             Yes
SSR(2,2) Calcuation:         Yes
Energy Functional:           (PPS+OSS)/2
Number of Core Orbitals:                  5
Number of Active Orbitals:                2
Number of Basis:                         12
Number of States:                         2
State-Averaging Weight:          0.500000
                                 0.500000
State of Interest:                        1
Initial Guess:               Diagonalize H0 matrix
Newton-Raphson for FON opt:  Yes
NR max. Iterations:                      50
Level Shifting:              Yes
Shift Value:                     0.300000
W Scale Factor:              C  =    3.000000
                             N  =    3.000000
                             H  =    3.000000
Transition Dipole:           No
Gradient of Microstate:      No
CP-REKS Solver:              Preconditioned Conjugate-Gradient
CG max. Iterations:                     100
CG Tolerance:                  0.100000E-07
Memory for A and Hxc:        Direct Updating Without Saving
Non-Adiabatic Coupling:      Yes

--------------------------------------------------------------------------------

***  Geometry step: 0

  iSCC       reks energy        Diff energy         x_a       SCC error   
    1       -6.2627524884       0.0000000000     0.999144    1.18480814
    2       -6.2759196826      -0.0131671942     0.999657    0.10270669
    3       -6.2799007814      -0.0039810987     0.999811    0.04628105
    4       -6.2818320833      -0.0019313019     0.999876    0.02314458
    5       -6.2829483957      -0.0011163124     0.999908    0.01214096
    6       -6.2836617369      -0.0007133413     0.999925    0.00706469
    7       -6.2841402397      -0.0004785027     0.999935    0.00605056
    8       -6.2844665839      -0.0003263442     0.999941    0.00520086
    9       -6.2846894842      -0.0002229003     0.999945    0.00444156
   10       -6.2848411027      -0.0001516186     0.999948    0.00390508
   11       -6.2849436902      -0.0001025874     0.999950    0.00343133
   12       -6.2850127808      -0.0000690906     0.999951    0.00297857
   13       -6.2850591533      -0.0000463725     0.999952    0.00256116
   14       -6.2850902107      -0.0000310574     0.999952    0.00218582
   15       -6.2851109880      -0.0000207773     0.999953    0.00185432
   16       -6.2851248837      -0.0000138957     0.999953    0.00156543
   17       -6.2851341791      -0.0000092955     0.999953    0.00131623
   18       -6.2851404008      -0.0000062217     0.999953    0.00110298
   19       -6.2851445682      -0.0000041674     0.999953    0.00092167
   20       -6.2851473619      -0.0000027936     0.999953    0.00076830
   21       -6.2851492360      -0.0000018742     0.999953    0.00063914
   22       -6.2851504943      -0.0000012582     0.999953    0.00053075
   23       -6.2851513396      -0.0000008453     0.999953    0.00044006
   24       -6.2851519077      -0.0000005682     0.999953    0.00036439
   25       -6.2851522898      -0.0000003821     0.999953    0.00030139
   26       -6.2851525468      -0.0000002570     0.999953    0.00024903
   27       -6.2851527197      -0.0000001730     0.999953    0.00020559
   28       -6.2851528362      -0.0000001164     0.999953    0.00016960
   29       -6.2851529145      -0.0000000784     0.999953    0.00013981
   30       -6.2851529673      -0.0000000528     0.999953    0.00011520
   31       -6.2851530028      -0.0000000355     0.999953    0.00009487
   32       -6.2851530268      -0.0000000239     0.999953    0.00007809
   33       -6.2851530429      -0.0000000161     0.999953    0.00006426
   34       -6.2851530537      -0.0000000109     0.999953    0.00005286
   35       -6.2851530610      -0.0000000073     0.999953    0.00004347
   36       -6.2851530660      -0.0000000049     0.999953    0.00003574
   37       -6.2851530693      -0.0000000033     0.999953    0.00002937
   38       -6.2851530715      -0.0000000022     0.999953    0.00002414
   39       -6.2851530730      -0.0000000015     0.999953    0.00001983
   40       -6.2851530740      -0.0000000010     0.999953    0.00001630
   41       -6.2851530747      -0.0000000007     0.999953    0.00001339
   42       -6.2851530752      -0.0000000005     0.999953    0.00001099
   43       -6.2851530755      -0.0000000003     0.999953    0.00000903
   44       -6.2851530757      -0.0000000002     0.999953    0.00000741
   45       -6.2851530758      -0.0000000001     0.999953    0.00000609
   46       -6.2851530759      -0.0000000001     0.999953    0.00000500
   47       -6.2851530760      -0.0000000001     0.999953    0.00000410
   48       -6.2851530760      -0.0000000000     0.999953    0.00000337
   49       -6.2851530761      -0.0000000000     0.999953    0.00000277
   50       -6.2851530761      -0.0000000000     0.999953    0.00000227
   51       -6.2851530761      -0.0000000000     0.999953    0.00000186
   52       -6.2851530761      -0.0000000000     0.999953    0.00000153
   53       -6.2851530761      -0.0000000000     0.999953    0.00000126
   54       -6.2851530761      -0.0000000000     0.999953    0.00000103
   55       -6.2851530761      -0.0000000000     0.999953    0.00000085
  
--------------------------------------------------
 Final SA-REKS(2,2) energy:      -6.28515308
  
 State     Energy      FON(1)    FON(2)   Spin
  PPS   -6.41135414   1.999906  0.000094  0.00
  OSS   -6.15895201   1.000000  1.000000  0.00
 Trip   -6.23949100   1.000000  1.000000  1.00
--------------------------------------------------

 Lagrangian Wab:  -0.00544535 -0.00544517

--------------------------------------------------
 SSR: 2SI-2SA-REKS(2,2) Hamiltonian matrix
               PPS           OSS
   PPS    -6.41135414   -0.00764803
   OSS    -0.00764803   -6.15895201
--------------------------------------------------

----------------------------------------------------------------
 SSR: 2SI-2SA-REKS(2,2) states
                    E_n       C_{PPS}    C_{OSS}
 SSR state  1   -6.41158567  -0.999542  -0.030259
 SSR state  2   -6.15872048   0.030259  -0.999542
----------------------------------------------------------------

 unrelaxed SSR FONs for S0:  1.998991  0.001009

Total Energy:                       -6.4115856685 H         -174.4681 eV
Extrapolated to 0:                  -6.4115856685 H         -174.4681 eV

----------------------------------------------------------------------------------
 Solving CP-REKS equation for  1 state vector...
----------------------------------------------------------------------------------
  CG solver: Constructing Y initial guess
  CG solver: Iteration    1    eps =    0.000096404262
  CG solver: Iteration    2    eps =    0.000048355933
  CG solver: Iteration    3    eps =    0.000002367563
  CG solver: Iteration    4    eps =    0.000000641836
  CG solver: Iteration    5    eps =    0.000000018044
  CG solver: Iteration    6    eps =    0.000000002418
  Convergence reached in CG solver after    6 iterations
  CG solver: Calculating converged R, Z, Q2 matrix
----------------------------------------------------------------------------------

----------------------------------------------------------------------------------
 Solving CP-REKS equation for SI between  1 and  2 state vectors...
----------------------------------------------------------------------------------
  CG solver: Constructing Y initial guess
  CG solver: Iteration    1    eps =    0.001913470728
  CG solver: Iteration    2    eps =    0.002377251407
  CG solver: Iteration    3    eps =    0.000389351892
  CG solver: Iteration    4    eps =    0.000004908646
  CG solver: Iteration    5    eps =    0.000000658998
  CG solver: Iteration    6    eps =    0.000000014549
  CG solver: Iteration    7    eps =    0.000000000583
  Convergence reached in CG solver after    7 iterations
  CG solver: Calculating converged R, Z, Q2 matrix
----------------------------------------------------------------------------------

--------------------------------------------------
 Gradient Information
--------------------------------------------------
           1 st state (SSR)
     0.00023293     0.01026047     0.00907277
    -0.01174859     0.00294112    -0.00553597
     0.01254435    -0.00344488     0.00626706
     0.01601756    -0.00284809    -0.00264205
    -0.00720139    -0.00599008    -0.00227247
    -0.00984485    -0.00091854    -0.00488934

           2 st state (SSR)
    -0.00438216    -0.00864473     0.11174155
     0.01146663     0.00537578    -0.12713731
    -0.01013288     0.01087196     0.02251641
    -0.01342144    -0.00430231    -0.00983345
     0.00586145     0.00434945    -0.01034074
     0.01060840    -0.00765015     0.01305354
--------------------------------------------------
 Coupling Information
--------------------------------------------------
 between  1 and  2 states
--------------------------------------------------
 g vector - difference gradient
     0.00225725     0.00942838    -0.05218342
    -0.01188826    -0.00103533     0.06149572
     0.01209766    -0.00706465    -0.00811193
     0.01553477     0.00055151     0.00356416
    -0.00717874    -0.00518303     0.00414115
    -0.01082267     0.00330312    -0.00890569

 h vector - derivative coupling
     0.00089983     0.00068579     0.01245577
     0.00427965    -0.00304009    -0.00962844
    -0.01218182    -0.00176403    -0.00045622
    -0.01300731     0.00291964     0.00062927
     0.01048379     0.00006242    -0.00164379
     0.00952587     0.00113626    -0.00135660

 G vector - GDV
     0.00230754     0.00945260    -0.05133439
    -0.01160761    -0.00121733     0.06080067
     0.01133861    -0.00715842    -0.00812467
     0.01471950     0.00072711     0.00359570
    -0.00653142    -0.00516977     0.00403413
    -0.01022663     0.00336580    -0.00897144

 H vector - DCV - non-adiabatic coupling
     0.00301205     0.00045164     0.06165179
     0.01973757    -0.01175287    -0.05271880
    -0.05098098    -0.00527336     0.00013966
    -0.05506178     0.01139317     0.00163139
     0.04310138     0.00148628    -0.00747940
     0.04019176     0.00369515    -0.00322465
--------------------------------------------------


--------------------------------------------------------------------------------
DFTB+ running times                          cpu [s]             wall clock [s]
--------------------------------------------------------------------------------
SCC                                    +     0.02  ( 67.8%)      0.03  ( 61.0%)
Post-SCC processing                    +     0.01  ( 28.7%)      0.01  ( 26.8%)
  Force calculation                          0.01  ( 28.1%)      0.01  ( 24.4%)
--------------------------------------------------------------------------------
Missing                                +     0.00  (  3.6%)      0.01  ( 12.2%)
Total                                  =     0.03  (100.0%)      0.04  (100.0%)
--------------------------------------------------------------------------------
