     6
  Step:     0            Position(A)                                  Velocity(au)
C        -0.03974911     0.00482582     0.03712761     0.00016167     0.00009166     0.00007077
N        -0.03784734    -0.03467151     1.28288428     0.00021174     0.00003034    -0.00007310
H         0.89544148     0.00295079    -0.52911318    -0.00148529    -0.00054232     0.00037179
H         0.79149327    -0.18915315     1.85060478    -0.00088565     0.00001087    -0.00072955
H        -0.94068593    -0.16821087     1.81223772    -0.00215451    -0.00057754     0.00067469
H        -0.95959402     0.10893729    -0.51151383    -0.00034337    -0.00040481    -0.00014437
     6
  Step:     1            Position(A)                                  Velocity(au)
C        -0.03885545     0.00532463     0.03728560     0.00016346     0.00009077    -0.00001279
N        -0.03671555    -0.03450224     1.28271550     0.00019941     0.00003149     0.00001166
H         0.88752951    -0.00000712    -0.52733102    -0.00139343    -0.00053919     0.00027156
H         0.78681819    -0.18916057     1.84677623    -0.00080970    -0.00001644    -0.00065903
H        -0.95227036    -0.17140969     1.81587737    -0.00205762    -0.00058838     0.00064298
H        -0.96179883     0.10680554    -0.51264416    -0.00045817    -0.00037518    -0.00026502
     6
  Step:     2            Position(A)                                  Velocity(au)
C        -0.03796005     0.00581930     0.03698758     0.00016195     0.00008996    -0.00009518
N        -0.03566481    -0.03432688     1.28301187     0.00018201     0.00003254     0.00009609
H         0.88019081    -0.00295045    -0.52614103    -0.00127370    -0.00053602     0.00015524
H         0.78263135    -0.18933313     1.84339186    -0.00070633    -0.00004933    -0.00056651
H        -0.96320588    -0.17465048     1.81927494    -0.00191661    -0.00059209     0.00058707
H        -0.96460857     0.10483112    -0.51441441    -0.00056235    -0.00034669    -0.00037688
     6
  Step:     3            Position(A)                                  Velocity(au)
C        -0.03708118     0.00631022     0.03624289     0.00015722     0.00008927    -0.00017513
N        -0.03472159    -0.03414577     1.28376817     0.00016021     0.00003357     0.00017875
H         0.87357552    -0.00587952    -0.52563027    -0.00112856    -0.00053328     0.00002401
H         0.77907998    -0.18970098     1.84056986    -0.00057792    -0.00008744    -0.00045391
H        -0.97326777    -0.17789631     1.82230903    -0.00173916    -0.00058975     0.00051152
H        -0.96795965     0.10300736    -0.51677308    -0.00065409    -0.00031973    -0.00047871
     6
  Step:     4            Position(A)                                  Velocity(au)
C        -0.03623634     0.00679797     0.03506754     0.00014945     0.00008869    -0.00025159
N        -0.03390836    -0.03395880     1.28497161     0.00013474     0.00003465     0.00025844
H         0.86781788    -0.00879708    -0.52587779    -0.00096110    -0.00053129    -0.00012045
H         0.77629534    -0.19029183     1.83841545    -0.00042777    -0.00013025    -0.00032390
H        -0.98227316    -0.18111619     1.82488299    -0.00153229    -0.00058234     0.00042057
H        -0.97177972     0.10132572    -0.51966277    -0.00073206    -0.00029452    -0.00056968
     6
  Step:     5            Position(A)                                  Velocity(au)
C        -0.03544175     0.00728315     0.03348310     0.00013890     0.00008823    -0.00032360
N        -0.03324353    -0.03376562     1.28660317     0.00010632     0.00003581     0.00033411
H         0.86303257    -0.01170752    -0.52695160    -0.00077508    -0.00053018    -0.00027587
H         0.77438753    -0.19112976     1.83701682    -0.00026012    -0.00017695    -0.00017987
H        -0.99007639    -0.18428436     1.82692253    -0.00130214    -0.00057067     0.00031803
H        -0.97599012     0.09977659    -0.52302224    -0.00079525    -0.00027112    -0.00064920
     6
  Step:     6            Position(A)                                  Velocity(au)
C        -0.03471189     0.00776626     0.03151596     0.00012590     0.00008782    -0.00039030
N        -0.03274142    -0.03356576     1.28863858     0.00007570     0.00003705     0.00040483
H         0.85931121    -0.01461587    -0.52890548    -0.00057491    -0.00052988    -0.00043924
H         0.77344049    -0.19223387     1.83644133    -0.00008016    -0.00022647    -0.00002594
H        -0.99656437    -0.18737937     1.82837341    -0.00105411    -0.00055534     0.00020732
H        -0.98050778     0.09835013    -0.52678787    -0.00084287    -0.00024947    -0.00071683
     6
  Step:     7            Position(A)                                  Velocity(au)
C        -0.03405919     0.00824752     0.02919687     0.00011084     0.00008738    -0.00045082
N        -0.03241223    -0.03335880     1.29104888     0.00004363     0.00003832     0.00046964
H         0.85671907    -0.01752657    -0.53177523    -0.00036572    -0.00053010    -0.00060677
H         0.77350727    -0.19361679     1.83673191     0.00010600    -0.00027743     0.00013305
H        -1.00165235    -0.19038303     1.82919925    -0.00079308    -0.00053680     0.00009159
H        -0.98524630     0.09703695    -0.53089431    -0.00087423    -0.00022941    -0.00077213
     6
  Step:     8            Position(A)                                  Velocity(au)
C        -0.03349366     0.00872668     0.02656091     0.00009419     0.00008681    -0.00050424
N        -0.03226183    -0.03314457     1.29380048     0.00001097     0.00003958     0.00052758
H         0.85529150    -0.02044222    -0.53557459    -0.00015346    -0.00053028    -0.00077380
H         0.77460555    -0.19528309     1.83790373     0.00029138    -0.00032812     0.00029164
H        -1.00528125    -0.19327937     1.82938008    -0.00052388    -0.00051531    -0.00002609
H        -0.99011659     0.09582869    -0.53527445    -0.00088878    -0.00021068    -0.00081461
     6
  Step:     9            Position(A)                                  Velocity(au)
C        -0.03302266     0.00920289     0.02364779     0.00007648     0.00008597    -0.00054955
N        -0.03229150    -0.03292326     1.29685482    -0.00002138     0.00004072     0.00057754
H         0.85503024    -0.02336223    -0.54029083     0.00005522    -0.00052967    -0.00093481
H         0.77671391    -0.19722775     1.83994134     0.00046836    -0.00037658     0.00044381
H        -1.00741757    -0.19605399     1.82891212    -0.00025165    -0.00049110    -0.00014255
H        -0.99502725     0.09471839    -0.53985904    -0.00088603    -0.00019302    -0.00084370
     6
  Step:    10            Position(A)                                  Velocity(au)
C        -0.03265054     0.00967453     0.02050222     0.00005828     0.00008472    -0.00058575
N        -0.03249754    -0.03269559     1.30016779    -0.00005243     0.00004167     0.00061839
H         0.85590025    -0.02628168    -0.54588074     0.00025312    -0.00052736    -0.00108371
H         0.77976917    -0.19943476     1.84279663     0.00062903    -0.00042061     0.00058334
H        -1.00805568    -0.19869367     1.82780852     0.00001768    -0.00046441    -0.00025437
H        -0.99988490     0.09370068    -0.54457611    -0.00086575    -0.00017613    -0.00085885
     6
  Step:    11            Position(A)                                  Velocity(au)
C        -0.03237850     0.01013922     0.01717412     0.00004024     0.00008291    -0.00061190
N        -0.03287090    -0.03246277     1.30368928    -0.00008112     0.00004230     0.00064903
H         0.85782772    -0.02919057    -0.55226797     0.00043296    -0.00052242    -0.00121424
H         0.78366595    -0.20187632     1.84638840     0.00076579    -0.00045804     0.00070423
H        -1.00722219    -0.20118665     1.82610081     0.00027733    -0.00043563    -0.00035792
H        -1.00459552     0.09277184    -0.54935098    -0.00082820    -0.00015975    -0.00085969
     6
  Step:    12            Position(A)                                  Velocity(au)
C        -0.03220440     0.01059378     0.01371818     0.00002298     0.00008045    -0.00062737
N        -0.03339695    -0.03222657     1.30736342    -0.00010646     0.00004256     0.00066860
H         0.86070045    -0.03207367    -0.55934280     0.00058803    -0.00051406    -0.00132072
H         0.78825940    -0.20451295     1.85060429     0.00087217    -0.00048692     0.00080132
H        -1.00498095    -0.20352341     1.82384034     0.00051985    -0.00040539    -0.00044949
H        -1.00906697     0.09192954    -0.55410737    -0.00077435    -0.00014372    -0.00084636
     6
  Step:    13            Position(A)                                  Velocity(au)
C        -0.03212279     0.01103450     0.01019226     0.00000709     0.00007729    -0.00063209
N        -0.03405570    -0.03198908     1.31112993    -0.00012758     0.00004242     0.00067683
H         0.86437173    -0.03491137    -0.56696593     0.00071302    -0.00050183    -0.00139903
H         0.79337215    -0.20729510     1.85530606     0.00094378    -0.00050591     0.00087108
H        -1.00143688    -0.20569812     1.82109860     0.00073780    -0.00037468    -0.00052572
H        -1.01321303     0.09117246    -0.55876993    -0.00070617    -0.00012795    -0.00081977
     6
  Step:    14            Position(A)                                  Velocity(au)
C        -0.03212518     0.01145747     0.00665443    -0.00000694     0.00007349    -0.00062682
N        -0.03482264    -0.03175255     1.31492714    -0.00014389     0.00004190     0.00067431
H         0.86866864    -0.03768172    -0.57497718     0.00080504    -0.00048588    -0.00144758
H         0.79880632    -0.21016656     1.86033880     0.00097915    -0.00051460     0.00091234
H        -0.99673584    -0.20771048     1.81796537     0.00092487    -0.00034485    -0.00058412
H        -1.01695854     0.09049966    -0.56326843    -0.00062665    -0.00011252    -0.00078184
     6
  Step:    15            Position(A)                                  Velocity(au)
C        -0.03220071     0.01185911     0.00315845    -0.00001882     0.00006920    -0.00061327
N        -0.03567038    -0.03151893     1.31869664    -0.00015526     0.00004111     0.00066265
H         0.87340537    -0.04036358    -0.58320983     0.00086418    -0.00046700    -0.00146806
H         0.80435960    -0.21306961     1.86554380     0.00098014    -0.00051371     0.00092664
H        -0.99105849    -0.20956784     1.81454393     0.00107713    -0.00031761    -0.00062360
H        -1.02024493     0.08990983    -0.56754332    -0.00053956    -0.00009759    -0.00073557
     6
  Step:    16            Position(A)                                  Velocity(au)
C        -0.03233713     0.01223670    -0.00025134    -0.00002847     0.00006466    -0.00059396
N        -0.03657094    -0.03128957     1.32238891    -0.00016196     0.00004024     0.00064435
H         0.87839981    -0.04294040    -0.59150831     0.00089359    -0.00044659    -0.00146521
H         0.80984319    -0.21595121     1.87077329     0.00095150    -0.00050501     0.00091800
H        -0.98460674    -0.21128691     1.81094327     0.00119383    -0.00029478    -0.00064463
H        -1.02303433     0.08940071    -0.57155131    -0.00044889    -0.00008338    -0.00068460
     6
  Step:    17            Position(A)                                  Velocity(au)
C        -0.03252202     0.01258885    -0.00354443    -0.00003602     0.00006013    -0.00057168
N        -0.03749814    -0.03106478     1.32596817    -0.00016461     0.00003949     0.00062227
H         0.88348957    -0.04540336    -0.59974487     0.00089835    -0.00042624    -0.00144560
H         0.81509731    -0.21876867     1.87590352     0.00089955    -0.00049083     0.00089183
H        -0.97758600    -0.21289441     1.80726929     0.00127697    -0.00027809    -0.00064878
H        -1.02531066     0.08896886    -0.57526911    -0.00035803    -0.00007005    -0.00063260
     6
  Step:    18            Position(A)                                  Velocity(au)
C        -0.03274384     0.01291552    -0.00670548    -0.00004173     0.00005578    -0.00054880
N        -0.03842939    -0.03084374     1.32941424    -0.00016389     0.00003905     0.00059887
H         0.88854204    -0.04775255    -0.60782886     0.00088395    -0.00040729    -0.00141562
H         0.81999894    -0.22149261     1.88084188     0.00083038    -0.00047339     0.00085341
H        -0.97018999    -0.21442654     1.80361867     0.00132976    -0.00026897    -0.00063789
H        -1.02707639     0.08860991    -0.57869330    -0.00026923    -0.00005762    -0.00058244
     6
  Step:    19            Position(A)                                  Velocity(au)
C        -0.03299254     0.01321776    -0.00973211    -0.00004588     0.00005172    -0.00052683
N        -0.03934602    -0.03062454     1.33272035    -0.00016032     0.00003906     0.00057567
H         0.89345592    -0.04999543    -0.61570572     0.00085483    -0.00039050    -0.00137988
H         0.82445967    -0.22410600     1.88552555     0.00074857    -0.00045424     0.00080673
H        -0.96259315    -0.21592695     1.80007721     0.00135472    -0.00026838    -0.00061313
H        -1.02834616     0.08831918    -0.58183598    -0.00018347    -0.00004598    -0.00053574
     6
  Step:    20            Position(A)                                  Velocity(au)
C        -0.03325975     0.01349714    -0.01263000    -0.00004869     0.00004794    -0.00050625
N        -0.04023233    -0.03040445     1.33588804    -0.00015415     0.00003963     0.00055314
H         0.89815508    -0.05214400    -0.62334649     0.00081382    -0.00037605    -0.00134062
H         0.82841709    -0.22660080     1.88991405     0.00065697    -0.00043417     0.00075415
H        -0.95495532    -0.21744465     1.79672363     0.00135252    -0.00027694    -0.00057468
H        -1.02913967     0.08809284    -0.58471801    -0.00010088    -0.00003486    -0.00049300
     6
  Step:    21            Position(A)                                  Velocity(au)
C        -0.03353841     0.01375523    -0.01540744    -0.00005033     0.00004439    -0.00048686
N        -0.04107415    -0.03018024     1.33892136    -0.00014543     0.00004080     0.00053099
H         0.90257930    -0.05421109    -0.63073472     0.00076242    -0.00036361    -0.00129819
H         0.83182462    -0.22897325     1.89397994     0.00055720    -0.00041334     0.00069681
H        -0.94743066    -0.21903160     1.79363470     0.00132242    -0.00029491    -0.00052208
H        -1.02947707     0.08792834    -0.58736275    -0.00002127    -0.00002400    -0.00045399
     6
  Step:    22            Position(A)                                  Velocity(au)
C        -0.03382231     0.01399326    -0.01807146    -0.00005090     0.00004097    -0.00046813
N        -0.04185776    -0.02994846     1.34182280    -0.00013414     0.00004257     0.00050863
H         0.90667648    -0.05620792    -0.63785599     0.00070145    -0.00035272    -0.00125209
H         0.83464481    -0.23122063     1.89770216     0.00045051    -0.00039169     0.00063537
H        -0.94017502    -0.22074081     1.79088851     0.00126325    -0.00032233    -0.00045480
H        -1.02937741     0.08782464    -0.58979219     0.00005543    -0.00001312    -0.00041827
     6
  Step:    23            Position(A)                                  Velocity(au)
C        -0.03410582     0.01421202    -0.02062624    -0.00005046     0.00003763    -0.00044957
N        -0.04256959    -0.02970563     1.34459162    -0.00012033     0.00004496     0.00048550
H         0.91039913    -0.05814325    -0.64469313     0.00063165    -0.00034298    -0.00120175
H         0.83684699    -0.23333982     1.90106310     0.00033826    -0.00036913     0.00057046
H        -0.93334782    -0.22262497     1.78856456     0.00117452    -0.00035908    -0.00037280
H        -1.02885911     0.08778210    -0.59202570     0.00012910    -0.00000200    -0.00038545
     6
  Step:    24            Position(A)                                  Velocity(au)
C        -0.03438372     0.01441192    -0.02307311    -0.00004911     0.00003431    -0.00043080
N        -0.04319649    -0.02944826     1.34722414    -0.00010416     0.00004795     0.00046124
H         0.91370384    -0.06002365    -0.65122582     0.00055399    -0.00033410    -0.00114694
H         0.83840803    -0.23532736     1.90404871     0.00022204    -0.00034576     0.00050294
H        -0.92710814    -0.22473566     1.78674104     0.00105715    -0.00040482    -0.00027679
H        -1.02794113     0.08780234    -0.59408041     0.00019943     0.00000953    -0.00035530
     6
  Step:    25            Position(A)                                  Velocity(au)
C        -0.03465126     0.01459309    -0.02541131    -0.00004692     0.00003097    -0.00041161
N        -0.04372649    -0.02917301     1.34971478    -0.00008592     0.00005153     0.00043571
H         0.91655245    -0.06185417    -0.65743250     0.00046959    -0.00032593    -0.00108779
H         0.83931329    -0.23718031     1.90664940     0.00010368    -0.00032180     0.00043386
H        -0.92160573    -0.22712141     1.78549013     0.00091374    -0.00045897    -0.00016835
H        -1.02664402     0.08788792    -0.59597213     0.00026601     0.00002163    -0.00032777
     6
  Step:    26            Position(A)                                  Velocity(au)
C        -0.03490415     0.01475549    -0.02763889    -0.00004639     0.00003000    -0.00043510
N        -0.04414951    -0.02887671     1.35205729    -0.00006555     0.00005567     0.00044210
H         0.91891276    -0.06363911    -0.66329220     0.00035869    -0.00037216    -0.00098498
H         0.83955806    -0.23889692     1.90886129    -0.00002595    -0.00025221     0.00036432
H        -0.91697236    -0.22982680     1.78487364     0.00076788    -0.00058310    -0.00007319
H        -1.02499040     0.08804230    -0.59771626     0.00036306     0.00007644    -0.00026495
     6
  Step:    27            Position(A)                                  Velocity(au)
C        -0.03516532     0.01492554    -0.03023284    -0.00004719     0.00003157    -0.00050357
N        -0.04445284    -0.02855615     1.35461380    -0.00004368     0.00005981     0.00048263
H         0.92052718    -0.06597826    -0.66834744     0.00022195    -0.00046334    -0.00083688
H         0.83902568    -0.23997513     1.91068653    -0.00016671    -0.00014514     0.00029077
H        -0.91309664    -0.23358297     1.78467905     0.00062547    -0.00076255     0.00000571
H        -1.02262080     0.08873497    -0.59890808     0.00048862     0.00016362    -0.00016580
     6
  Step:    28            Position(A)                                  Velocity(au)
C        -0.03542679     0.01510520    -0.03321639    -0.00004661     0.00003328    -0.00057273
N        -0.04463333    -0.02821422     1.35740285    -0.00002146     0.00006362     0.00052357
H         0.92137106    -0.06877105    -0.67256142     0.00008233    -0.00053976    -0.00068372
H         0.83771157    -0.24050449     1.91208180    -0.00030479    -0.00005110     0.00021289
H        -0.91004474    -0.23827279     1.78493688     0.00047197    -0.00092525     0.00008921
H        -1.01957843     0.08985459    -0.59955265     0.00060420     0.00023538    -0.00006941
     6
  Step:    29            Position(A)                                  Velocity(au)
C        -0.03568169     0.01529426    -0.03657748    -0.00004479     0.00003486    -0.00063779
N        -0.04469058    -0.02785134     1.36041386     0.00000048     0.00006733     0.00056109
H         0.92143922    -0.07195766    -0.67592163    -0.00005666    -0.00060596    -0.00052922
H         0.83564921    -0.24054124     1.91304490    -0.00043389     0.00003345     0.00013650
H        -0.90786817    -0.24383282     1.78566735     0.00031169    -0.00107623     0.00017463
H        -1.01592755     0.09134247    -0.59967696     0.00070596     0.00029783     0.00002089
     6
  Step:    30            Position(A)                                  Velocity(au)
C        -0.03592339     0.01549167    -0.04028797    -0.00004176     0.00003616    -0.00069605
N        -0.04462802    -0.02746773     1.36362405     0.00002135     0.00007089     0.00059325
H         0.92074280    -0.07548975    -0.67842923    -0.00019170    -0.00066323    -0.00037613
H         0.83290072    -0.24013360     1.91359524    -0.00054872     0.00010921     0.00006529
H        -0.90658879    -0.25020572     1.78687310     0.00015091    -0.00121502     0.00025833
H        -1.01175092     0.09315683    -0.59932100     0.00079037     0.00035309     0.00010266
     6
  Step:    31            Position(A)                                  Velocity(au)
C        -0.03614540     0.01569580    -0.04430735    -0.00003755     0.00003710    -0.00074540
N        -0.04445344    -0.02706407     1.36700210     0.00004032     0.00007421     0.00061866
H         0.91931029    -0.07932307    -0.68009873    -0.00031929    -0.00071198    -0.00022733
H         0.82955552    -0.23932842     1.91377002    -0.00064431     0.00017600     0.00000246
H        -0.90619230    -0.25732606     1.78853622    -0.00000327    -0.00133944     0.00033638
H        -1.00715023     0.09526365    -0.59853693     0.00085403     0.00040212     0.00017360
     6
  Step:    32            Position(A)                                  Velocity(au)
C        -0.03634137     0.01590462    -0.04858459    -0.00003225     0.00003763    -0.00078419
N        -0.04417921    -0.02664178     1.37051000     0.00005656     0.00007714     0.00063635
H         0.91718892    -0.08341438    -0.68095953    -0.00043584    -0.00075229    -0.00008592
H         0.82572931    -0.23817461     1.91362260    -0.00071622     0.00023326    -0.00004921
H        -0.90662524    -0.26511420     1.79061716    -0.00014368    -0.00144675     0.00040496
H        -1.00224517     0.09763265    -0.59738873     0.00089411     0.00044543     0.00023170
     6
  Step:    33            Position(A)                                  Velocity(au)
C        -0.03650541     0.01611579    -0.05306039    -0.00002599     0.00003771    -0.00081144
N        -0.04382210    -0.02620303     1.37410497     0.00006936     0.00007958     0.00064588
H         0.91444548    -0.08772005    -0.68105777    -0.00053801    -0.00078438     0.00004494
H         0.82156119    -0.23672487     1.91322077    -0.00076106     0.00028037    -0.00008742
H        -0.90779607    -0.27347444     1.79305630    -0.00026388    -0.00153459     0.00046086
H        -0.99717037     0.10023548    -0.59595078     0.00090875     0.00048338     0.00027536
     6
  Step:    34            Position(A)                                  Velocity(au)
C        -0.03663236     0.01632684    -0.05767058    -0.00001893     0.00003735    -0.00082699
N        -0.04340253    -0.02575067     1.37774219     0.00007824     0.00008145     0.00064744
H         0.91116469    -0.09219733    -0.68045628    -0.00062313    -0.00080885     0.00016246
H         0.81720744    -0.23503516     1.91264375    -0.00077701     0.00031710    -0.00011064
H        -0.90958004    -0.28229755     1.79577762    -0.00035894    -0.00160169     0.00050192
H        -0.99206961     0.10304526    -0.59430541     0.00089749     0.00051646     0.00030370
     6
  Step:    35            Position(A)                                  Velocity(au)
C        -0.03671806     0.01653541    -0.06235057    -0.00001130     0.00003662    -0.00083161
N        -0.04294323    -0.02528802     1.38137810     0.00008296     0.00008275     0.00064185
H         0.90744542    -0.09680647    -0.67923276    -0.00068958    -0.00082695     0.00026450
H         0.81283250    -0.23316268     1.91197788    -0.00076406     0.00034363    -0.00011824
H        -0.91182833    -0.29146736     1.79869475    -0.00042601    -0.00164839     0.00052726
H        -0.98708823     0.10603725    -0.59253911     0.00086141     0.00054544     0.00031667
     6
  Step:    36            Position(A)                                  Velocity(au)
C        -0.03675966     0.01673943    -0.06704033    -0.00000334     0.00003559    -0.00082688
N        -0.04246776    -0.02481832     1.38497388     0.00008362     0.00008355     0.00063048
H         0.90339519    -0.10151456    -0.67747621    -0.00073685    -0.00084053     0.00034985
H         0.80859875    -0.23116352     1.91131157    -0.00072393     0.00036071    -0.00011047
H        -0.91437994    -0.30087000     1.80171830    -0.00046450    -0.00167676     0.00053733
H        -0.98236408     0.10919079    -0.59073754     0.00080302     0.00057147     0.00031509
     6
  Step:    37            Position(A)                                  Velocity(au)
C        -0.03675578     0.01693733    -0.07168882     0.00000471     0.00003437    -0.00081487
N        -0.04199883    -0.02434446     1.38849832     0.00008052     0.00008396     0.00061499
H         0.89912398    -0.10629879    -0.67528178    -0.00076543    -0.00085171     0.00041834
H         0.80465694    -0.22908910     1.91073036    -0.00065962     0.00036958    -0.00008835
H        -0.91707404    -0.31040349     1.80476294    -0.00047568    -0.00169005     0.00053356
H        -0.97801953     0.11249098    -0.58898067     0.00072567     0.00059584     0.00030047
     6
  Step:    38            Position(A)                                  Velocity(au)
C        -0.03670637     0.01712815    -0.07625651     0.00001265     0.00003306    -0.00079766
N        -0.04155709    -0.02386869     1.39192934     0.00007409     0.00008412     0.00059695
H         0.89473817    -0.11114740    -0.67274481    -0.00077644    -0.00086259     0.00047055
H         0.80113850    -0.22698363     1.91031233    -0.00057482     0.00037171    -0.00005347
H        -0.91975991    -0.31998436     1.80775283    -0.00046210    -0.00169193     0.00051794
H        -0.97415674     0.11592967    -0.58733929     0.00063299     0.00061987     0.00027460
     6
  Step:    39            Position(A)                                  Velocity(au)
C        -0.03661262     0.01731150    -0.08071547     0.00002029     0.00003176    -0.00077701
N        -0.04116035    -0.02339254     1.39525358     0.00006485     0.00008412     0.00057764
H         0.89033745    -0.11606020    -0.66995683    -0.00077110    -0.00087496     0.00050746
H         0.79815206    -0.22488264     1.91012530    -0.00047339     0.00036865    -0.00000769
H        -0.92230331    -0.32955002     1.81062418    -0.00042682    -0.00168575     0.00049254
H        -0.97085641     0.11950567    -0.58587316     0.00052838     0.00064467     0.00023941
     6
  Step:    40            Position(A)                                  Velocity(au)
C        -0.03647685     0.01748749    -0.08504752     0.00002744     0.00003053    -0.00075415
N        -0.04082336    -0.02291699     1.39846477     0.00005330     0.00008402     0.00055796
H         0.88601403    -0.12104665    -0.66700347    -0.00075041    -0.00089011     0.00053008
H         0.79578265    -0.22281270     1.91022531    -0.00035909     0.00036182     0.00004692
H        -0.92458897    -0.33905683     1.81332541    -0.00037303    -0.00167406     0.00045922
H        -0.96817867     0.12322348    -0.58463063     0.00041497     0.00067098     0.00019673
     6
  Step:    41            Position(A)                                  Velocity(au)
C        -0.03630245     0.01765663    -0.08924140     0.00003391     0.00002942    -0.00072986
N        -0.04055780    -0.02244264     1.40156147     0.00003992     0.00008385     0.00053839
H         0.88185383    -0.12612321    -0.66396412    -0.00071516    -0.00090883     0.00053936
H         0.79409249    -0.22079215     1.91065578    -0.00023562     0.00035248     0.00010818
H        -0.92652047    -0.34847572     1.81581582    -0.00030372    -0.00165854     0.00041958
H        -0.96616507     0.12709129    -0.58364911     0.00029562     0.00069911     0.00014830
     6
  Step:    42            Position(A)                                  Velocity(au)
C        -0.03609385     0.01781970    -0.09329009     0.00003954     0.00002846    -0.00070453
N        -0.04037250    -0.02197000     1.40454499     0.00002521     0.00008360     0.00051917
H         0.87793742    -0.13131040    -0.66091233    -0.00066606    -0.00093145     0.00053616
H         0.79312167    -0.21883196     1.91144700    -0.00010674     0.00034179     0.00017374
H        -0.92801896    -0.35778739     1.81806385    -0.00022172    -0.00164025     0.00037496
H        -0.96484010     0.13111881    -0.58295580     0.00017313     0.00072905     0.00009582
     6
  Step:    43            Position(A)                                  Velocity(au)
C        -0.03585644     0.01797770    -0.09718881     0.00004414     0.00002770    -0.00067836
N        -0.04027347    -0.02149963     1.40741791     0.00000962     0.00008322     0.00050037
H         0.87434031    -0.13663041    -0.65791602    -0.00060392    -0.00095800     0.00052136
H         0.79288837    -0.21693657     1.91261566     0.00002371     0.00033080     0.00024117
H        -0.92902164    -0.36697858     1.82004552    -0.00012972    -0.00161981     0.00032655
H        -0.96421202     0.13531534    -0.58256820     0.00005032     0.00076052     0.00004094
     6
  Step:    44            Position(A)                                  Velocity(au)
C        -0.03559652     0.01813178    -0.10093396     0.00004754     0.00002714    -0.00065147
N        -0.04026408    -0.02103224     1.41018328    -0.00000636     0.00008269     0.00048202
H         0.87113232    -0.14210535    -0.65503754    -0.00052979    -0.00098831     0.00049593
H         0.79338881    -0.21510445     1.91416457     0.00015182     0.00032049     0.00030799
H        -0.92948067    -0.37603978     1.82174345    -0.00003027    -0.00159768     0.00027544
H        -0.96427307     0.13968845    -0.58249452    -0.00006995     0.00079306    -0.00001473
     6