 Fermi distribution function

Calculation with static geometry


********************************************************************************
 iSCC Total electronic   Diff electronic      SCC error    
   14   -0.52463280E+01   -0.18713919E-11    0.69868396E-07
********************************************************************************

 Total charge:     1.00000000

 Atomic gross charges (e)
 Atom           Charge
    1       0.31026793
    2      -0.19559717
    3       0.18647248
    4       0.26178239
    5       0.25452226
    6       0.18255211

Nr. of electrons (up):     12.00000000
Atom populations (up)
 Atom       Population
    1       3.68973207
    2       5.19559717
    3       0.81352752
    4       0.73821761
    5       0.74547774
    6       0.81744789

l-shell populations (up)
 Atom Sh.   l       Population
    1   1   0       1.42730627
    1   2   1       2.26242580
    2   1   0       1.54229926
    2   2   1       3.65329791
    3   1   0       0.81352752
    4   1   0       0.73821761
    5   1   0       0.74547774
    6   1   0       0.81744789

Orbital populations (up)
 Atom Sh.   l   m       Population  Label
    1   1   0   0       1.42730627  s
    1   2   1  -1       0.39091368  p_y
    1   2   1   0       0.86607721  p_z
    1   2   1   1       1.00543492  p_x
    2   1   0   0       1.54229926  s
    2   2   1  -1       1.41114261  p_y
    2   2   1   0       1.05922208  p_z
    2   2   1   1       1.18293322  p_x
    3   1   0   0       0.81352752  s
    4   1   0   0       0.73821761  s
    5   1   0   0       0.74547774  s
    6   1   0   0       0.81744789  s

Fermi level:                        -0.5194031027 H          -14.1337 eV
Band energy:                        -8.6119650767 H         -234.3435 eV
TS:                                  0.0000000000 H            0.0000 eV
Band free energy (E-TS):            -8.6119650767 H         -234.3435 eV
Extrapolated E(0K):                 -8.6119650767 H         -234.3435 eV
Input / Output electrons (q):     12.0000000000     12.0000000000

Energy H0:                          -5.3826519108 H         -146.4694 eV
Energy SCC:                          0.1363239158 H            3.7096 eV
Total Electronic energy:            -5.2463279950 H         -142.7598 eV
Repulsive energy:                    0.1281962161 H            3.4884 eV
Total energy:                       -5.1181317789 H         -139.2715 eV
Extrapolated to 0:                  -5.1181317789 H         -139.2715 eV
Total Mermin free energy:           -5.1181317789 H         -139.2715 eV
Force related energy:               -5.1181317789 H         -139.2715 eV

SCC converged

Excitation Energy:                   0.0926565474 H            2.5213 eV

Total Forces
    1     -0.002891949528      0.004105299382      0.017440767654
    2     -0.015812479153      0.011234591118     -0.017748990285
    3      0.002093621657     -0.007516913459     -0.002980555435
    4      0.004074662765      0.005989340330     -0.000147768377
    5      0.007472639631     -0.014767207809     -0.000765893351
    6      0.005063504627      0.000954890439      0.004202439794

Maximal derivative component:        0.177490E-01 au


