     6
  Step:   600            Position(A)                                  Velocity(au)
C        -0.13997275     0.01941580     0.03710705    -0.00009286    -0.00067921    -0.00019314
N         0.07023177    -0.03467336     1.27178514     0.00005467    -0.00007895     0.00059005
H        -0.77606728    -0.34472928    -0.54282529    -0.00227182     0.00344717     0.00286078
H         0.14685058    -0.00700056     2.47752337    -0.00300937     0.00169500     0.00132192
H        -0.19147968    -0.92933054     1.54447290     0.00341047     0.00068023    -0.00520618
H         0.29995806     0.86182615    -0.70232379     0.00221762     0.00336817    -0.00487449
