     6
  Step:     0            Position(A)                                  Velocity(au)
C        -0.03502839     0.01742496     0.02954629    -0.00009585    -0.00001291    -0.00018366
N        -0.04086227    -0.03953507     1.28473207    -0.00015305    -0.00003321     0.00007298
H         0.88857684    -0.01273741    -0.52926943     0.00048772     0.00013332    -0.00043464
H         0.79005012    -0.21529481     1.88025339     0.00119004     0.00001214     0.00142714
H        -0.91762408    -0.11999385     1.84437400     0.00091162     0.00025567    -0.00067146
H        -0.98870401     0.02000364    -0.50848050     0.00067968     0.00021420     0.00085332
     6
  Step:     1            Position(A)                                  Velocity(au)
C        -0.03556024     0.01736256     0.02834615    -0.00009729    -0.00000999    -0.00025394
N        -0.04170458    -0.03972008     1.28534456    -0.00015276    -0.00003458     0.00015034
H         0.89152664    -0.01199942    -0.53196251     0.00058475     0.00013672    -0.00054579
H         0.79655281    -0.21527163     1.88803534     0.00117071     0.00000013     0.00140516
H        -0.91257495    -0.11860183     1.84066751     0.00092113     0.00025203    -0.00067453
H        -0.98516273     0.02116500    -0.50407318     0.00060563     0.00021067     0.00075194
     6
  Step:     2            Position(A)                                  Velocity(au)
C        -0.03609270     0.01731568     0.02676824    -0.00009600    -0.00000726    -0.00032122
N        -0.04253347    -0.03991335     1.28637678    -0.00014812    -0.00003616     0.00022579
H         0.89497391    -0.01124177    -0.53524028     0.00066848     0.00014046    -0.00064759
H         0.80285739    -0.21529336     1.89562545     0.00111878    -0.00000473     0.00135761
H        -0.90754714    -0.11723672     1.83699483     0.00090241     0.00024565    -0.00065811
H        -0.98207861     0.02230832    -0.50025452     0.00051273     0.00020752     0.00063812
     6
  Step:     3            Position(A)                                  Velocity(au)
C        -0.03661075     0.01728317     0.02483111    -0.00009199    -0.00000475    -0.00038464
N        -0.04332545    -0.04011573     1.28781533    -0.00013927    -0.00003783     0.00029817
H         0.89884165    -0.01046247    -0.53904894     0.00073738     0.00014454    -0.00073901
H         0.80879530    -0.21532339     1.90289131     0.00103790    -0.00000336     0.00128725
H        -0.90270015    -0.11591378     1.83346597     0.00085388     0.00023644    -0.00062118
H        -0.97955210     0.02343581    -0.49709047     0.00040231     0.00020476     0.00051286
     6
  Step:     4            Position(A)                                  Velocity(au)
C        -0.03709963     0.01726365     0.02255777    -0.00008534    -0.00000252    -0.00044342
N        -0.04405793    -0.04032749     1.28964071    -0.00012641    -0.00003951     0.00036641
H         0.90304565    -0.00965958    -0.54332980     0.00079035     0.00014895    -0.00081927
H         0.81421871    -0.21533013     1.90971628     0.00093196     0.00000332     0.00119707
H        -0.89820023    -0.11464857     1.83019511     0.00077486     0.00022439    -0.00056337
H        -0.97767470     0.02454975    -0.49464054     0.00027643     0.00020241     0.00037762
     6
  Step:     5            Position(A)                                  Velocity(au)
C        -0.03754530     0.01725554     0.01997523    -0.00007625    -0.00000060    -0.00049686
N        -0.04470975    -0.04054838     1.29182789    -0.00010986    -0.00004109     0.00042955
H         0.90749674    -0.00883132    -0.54802072     0.00082668     0.00015365    -0.00088786
H         0.81900122    -0.21528708     1.91600042     0.00080497     0.00001437     0.00109020
H        -0.89421470    -0.11345644     1.82729646     0.00066583     0.00020962    -0.00048518
H        -0.97652487     0.02565240    -0.49295518     0.00013789     0.00020044     0.00023431
     6
  Step:     6            Position(A)                                  Velocity(au)
C        -0.03793508     0.01725712     0.01711391    -0.00006501     0.00000100    -0.00054440
N        -0.04526163    -0.04077768     1.29434706    -0.00009003    -0.00004250     0.00048678
H         0.91210311    -0.00797613    -0.55305753     0.00084610     0.00015858    -0.00094450
H         0.82303832    -0.21517270     1.92166102     0.00066098     0.00002889     0.00096985
H        -0.89090516    -0.11235187     1.82487929     0.00052859     0.00019234    -0.00038801
H        -0.97616393     0.02674584    -0.49207333    -0.00000981     0.00019881     0.00008529
     6
  Step:     7            Position(A)                                  Velocity(au)
C        -0.03825802     0.01726654     0.01400706    -0.00005199     0.00000226    -0.00058555
N        -0.04569675    -0.04101428     1.29716440    -0.00006743    -0.00004367     0.00053744
H         0.91677238    -0.00709279    -0.55837519     0.00084869     0.00016368    -0.00098915
H         0.82624745    -0.21497036     1.92663269     0.00050403     0.00004599     0.00083919
H        -0.88841981    -0.11134786     1.82304271     0.00036640     0.00017288    -0.00027428
H        -0.97663243     0.02783189    -0.49202020    -0.00016255     0.00019744    -0.00006675
     6
  Step:     8            Position(A)                                  Velocity(au)
C        -0.03850542     0.01728188     0.01069015    -0.00003762     0.00000316    -0.00061998
N        -0.04600134    -0.04125680     1.30024301    -0.00004267    -0.00004456     0.00058104
H         0.92141357    -0.00618045    -0.56390888     0.00083486     0.00016887    -0.00102188
H         0.82856775    -0.21466813     1.93086726     0.00033814     0.00006482     0.00070140
H        -0.88688560    -0.11045529     1.82187029     0.00018395     0.00015170    -0.00014735
H        -0.97794720     0.02891188    -0.49280555    -0.00031577     0.00019625    -0.00021880
     6
  Step:     9            Position(A)                                  Velocity(au)
C        -0.03867101     0.01730123     0.00720022    -0.00002237     0.00000371    -0.00064742
N        -0.04616518    -0.04150357     1.30354373    -0.00001646    -0.00004513     0.00061722
H         0.92593853    -0.00523877    -0.56959466     0.00080531     0.00017403    -0.00104293
H         0.82996001    -0.21425871     1.93433354     0.00016735     0.00008451     0.00055964
H        -0.88640022    -0.10968234     1.82142495    -0.00001269     0.00012933    -0.00001144
H        -0.98009937     0.02998653    -0.49442249    -0.00046466     0.00019509    -0.00036775
     6
  Step:    10            Position(A)                                  Velocity(au)
C        -0.03875124     0.01732266     0.00357534    -0.00000675     0.00000392    -0.00066774
N        -0.04618221    -0.04175279     1.30702598     0.00001039    -0.00004535     0.00064580
H         0.93026354    -0.00426790    -0.57537013     0.00076101     0.00017909    -0.00105263
H         0.83040686    -0.21373936     1.93701741    -0.00000426     0.00010424     0.00041706
H        -0.88702507    -0.10903398     1.82174459    -0.00021631     0.00010641     0.00012854
H        -0.98305354     0.03105580    -0.49684695    -0.00060437     0.00019382    -0.00051042
     6
  Step:    11            Position(A)                                  Velocity(au)
C        -0.03874525     0.01734434    -0.00014586     0.00000875     0.00000380    -0.00068089
N        -0.04605087    -0.04200252     1.31064844     0.00003702    -0.00004521     0.00066669
H         0.93431070    -0.00326857    -0.58117512     0.00070320     0.00018391    -0.00105147
H         0.82991320    -0.21311188     1.93892186    -0.00017251     0.00012317     0.00027688
H        -0.88877995    -0.10851168     1.82283907    -0.00041896     0.00008358     0.00026729
H        -0.98674827     0.03211879    -0.50003784    -0.00073031     0.00019227    -0.00064376
     6
  Step:    12            Position(A)                                  Velocity(au)
C        -0.03865490     0.01736450    -0.00392469     0.00002364     0.00000337    -0.00068692
N        -0.04577445    -0.04225074     1.31436963     0.00006253    -0.00004468     0.00067994
H         0.93800937    -0.00224211    -0.58695221     0.00063340     0.00018840    -0.00104005
H         0.82850668    -0.21238263     1.94006724    -0.00033317     0.00014047     0.00014229
H        -0.89163998    -0.10811329     1.82468877    -0.00061244     0.00006152     0.00039944
H        -0.99109796     0.03317365    -0.50393801    -0.00083838     0.00019028    -0.00076497
     6
  Step:    13            Position(A)                                  Velocity(au)
C        -0.03848454     0.01738152    -0.00772295     0.00003749     0.00000267    -0.00068603
N        -0.04536109    -0.04249533     1.31814852     0.00008607    -0.00004376     0.00068572
H         0.94129744    -0.00119043    -0.59264744     0.00055335     0.00019245    -0.00101912
H         0.82623820    -0.21156246     1.94049142    -0.00048199     0.00015532     0.00001652
H        -0.89553549    -0.10783310     1.82724514    -0.00078886     0.00004084     0.00051997
H        -0.99599607     0.03421764    -0.50847588    -0.00092525     0.00018769    -0.00087169
     6
  Step:    14            Position(A)                                  Velocity(au)
C        -0.03824071     0.01739395    -0.01150356     0.00004995     0.00000171    -0.00067853
N        -0.04482360    -0.04273416     1.32194515     0.00010683    -0.00004245     0.00068435
H         0.94412245    -0.00011597    -0.59821097     0.00046497     0.00019600    -0.00098961
H         0.82318186    -0.21066668     1.94024969    -0.00061486     0.00016698    -0.00009734
H        -0.90035493    -0.10766214     1.83043318    -0.00094126     0.00002208     0.00062453
H        -1.00131963     0.03524720    -0.51356800    -0.00098854     0.00018440    -0.00096211
     6
  Step:    15            Position(A)                                  Velocity(au)
C        -0.03793177     0.01740050    -0.01523126     0.00006075     0.00000055    -0.00066491
N        -0.04417901    -0.04296506     1.32572121     0.00012412    -0.00004075     0.00067625
H         0.94644262     0.00097839    -0.60359808     0.00037037     0.00019898    -0.00095264
H         0.81943442    -0.20971472     1.93941429    -0.00072793     0.00017474    -0.00019637
H        -0.90595109    -0.10758877     1.83415588    -0.00106413     0.00000567     0.00070977
H        -1.00693482     0.03625813    -0.51912221    -0.00102700     0.00018032    -0.00103512
     6
  Step:    16            Position(A)                                  Velocity(au)
C        -0.03756739     0.01740008    -0.01887343     0.00006969    -0.00000078    -0.00064582
N        -0.04344781    -0.04318586     1.32944077     0.00013745    -0.00003868     0.00066204
H         0.94822763     0.00208958    -0.60877012     0.00027171     0.00020142    -0.00090954
H         0.81511351    -0.20872984     1.93807315    -0.00081787     0.00017802    -0.00027803
H        -0.91214976    -0.10759926     1.83830025    -0.00115380    -0.00000809     0.00077359
H        -1.01270290     0.03724588    -0.52504133    -0.00104051     0.00017543    -0.00109036
     6
  Step:    17            Position(A)                                  Velocity(au)
C        -0.03715809     0.01739181    -0.02240105     0.00007737     0.00000003    -0.00067146
N        -0.04265302    -0.04339443     1.33307109     0.00014541    -0.00003742     0.00068195
H         0.94945906     0.00321451    -0.61369567     0.00014372     0.00024697    -0.00082209
H         0.81035452    -0.20773836     1.93632764    -0.00089836     0.00012224    -0.00036606
H        -0.91876048    -0.10767864     1.84274423    -0.00118755     0.00003470     0.00080583
H        -1.01848645     0.03820579    -0.53122728    -0.00100045     0.00011568    -0.00109315
     6
  Step:    18            Position(A)                                  Velocity(au)
C        -0.03670711     0.01740043    -0.02633942     0.00008343     0.00000326    -0.00074475
N        -0.04183096    -0.04360191     1.33702339     0.00014784    -0.00003729     0.00073898
H         0.94982571     0.00483564    -0.61791096    -0.00001126     0.00031423    -0.00069161
H         0.80512462    -0.20737060     1.93400298    -0.00096644     0.00003190    -0.00045973
H        -0.92535414    -0.10721342     1.84726021    -0.00116352     0.00010971     0.00080022
H        -1.02382685     0.03853216    -0.53719606    -0.00090737     0.00002350    -0.00104353
     6
  Step:    19            Position(A)                                  Velocity(au)
C        -0.03622898     0.01742806    -0.03069475     0.00008712     0.00000655    -0.00081418
N        -0.04100663    -0.04380965     1.34130054     0.00014580    -0.00003705     0.00079198
H         0.94933369     0.00671383    -0.62139759    -0.00016139     0.00035225    -0.00056134
H         0.79959203    -0.20738311     1.93120803    -0.00100181    -0.00003095    -0.00053020
H        -0.93171771    -0.10645690     1.85165567    -0.00110570     0.00015449     0.00076760
H        -1.02859106     0.03846754    -0.54284829    -0.00079521    -0.00003899    -0.00097982
     6
  Step:    20            Position(A)                                  Velocity(au)
C        -0.03573544     0.01747352    -0.03542033     0.00008880     0.00000958    -0.00087434
N        -0.04020483    -0.04401517     1.34585664     0.00013944    -0.00003631     0.00083599
H         0.94802565     0.00876445    -0.62417179    -0.00030170     0.00037799    -0.00043596
H         0.79395104    -0.20771585     1.92808941    -0.00100156    -0.00008640    -0.00057332
H        -0.93768650    -0.10549035     1.85582157    -0.00102144     0.00018778     0.00071833
H        -1.03269614     0.03809729    -0.54812445    -0.00067110    -0.00008893    -0.00090749
     6
  Step:    21            Position(A)                                  Velocity(au)
C        -0.03523719     0.01753507    -0.04046050     0.00008868     0.00001227    -0.00092457
N        -0.03944917    -0.04421524     1.35063787     0.00012910    -0.00003498     0.00087046
H         0.94596393     0.01093573    -0.62626697    -0.00042924     0.00039599    -0.00031827
H         0.78840543    -0.20834812     1.92480443    -0.00096509    -0.00013968    -0.00058821
H        -0.94312642    -0.10435959     1.85967884    -0.00091649     0.00021420     0.00065739
H        -1.03608676     0.03747428    -0.55298422    -0.00053980    -0.00013067    -0.00082992
     6
  Step:    22            Position(A)                                  Velocity(au)
C        -0.03474388     0.01761076    -0.04575878     0.00008696     0.00001462    -0.00096532
N        -0.03876128    -0.04440631     1.35559004     0.00011520    -0.00003303     0.00089590
H         0.94322601     0.01319231    -0.62773058    -0.00054188     0.00040876    -0.00021040
H         0.78315956    -0.20927768     1.92151213    -0.00089331    -0.00019347    -0.00057540
H        -0.94793453    -0.10309520     1.86317237    -0.00079646     0.00023600     0.00058891
H        -1.03873214     0.03663618    -0.55740445    -0.00040539    -0.00016648    -0.00075010
     6
  Step:    23            Position(A)                                  Velocity(au)
C        -0.03426416     0.01769864    -0.05126220     0.00008383     0.00001663    -0.00099756
N        -0.03816008    -0.04458484     1.36066282     0.00009827    -0.00003047     0.00091331
H         0.93990037     0.01550970    -0.62862128    -0.00063819     0.00041808    -0.00011397
H         0.77840947    -0.21051306     1.91836582    -0.00078843    -0.00024943    -0.00053658
H        -0.95203867    -0.10171879     1.86626857    -0.00066663     0.00025455     0.00051647
H        -1.04062303     0.03561138    -0.56137766    -0.00027128    -0.00019789    -0.00067060
     6
  Step:    24            Position(A)                                  Velocity(au)
C        -0.03380564     0.01779687    -0.05692384     0.00007945     0.00001833    -0.00102248
N        -0.03766136    -0.04474739     1.36581212     0.00007886    -0.00002734     0.00092390
H         0.93608312     0.01787166    -0.62900616    -0.00071715     0.00042525    -0.00003011
H         0.77433517    -0.21206936     1.91550656    -0.00065371    -0.00030850    -0.00047432
H        -0.95539568    -0.10024614     1.86895290    -0.00053163     0.00027076     0.00044309
H        -1.04176844     0.03442136    -0.56491008    -0.00014017    -0.00022597    -0.00059350
     6
  Step:    25            Position(A)                                  Velocity(au)
C        -0.03337511     0.01790376    -0.06270352     0.00007394     0.00001975    -0.00104114
N        -0.03727760    -0.04489080     1.37100098     0.00005754    -0.00002368     0.00092879
H         0.93187567     0.02026818    -0.62895815    -0.00077791     0.00043121     0.00004044
H         0.77109456    -0.21396515     1.91305830    -0.00049329    -0.00037115    -0.00039186
H        -0.95798751    -0.09868906     1.87122660    -0.00039540     0.00028520     0.00037116
H        -1.04219144     0.03308288    -0.56801874    -0.00001410    -0.00025151    -0.00052031
     6
  Step:    26            Position(A)                                  Velocity(au)
C        -0.03297872     0.01801777    -0.06856719     0.00006738     0.00002092    -0.00105430
N        -0.03701786    -0.04501225     1.37619908     0.00003490    -0.00001955     0.00092891
H         0.92738360     0.02269395    -0.62855387    -0.00081962     0.00043659     0.00009717
H         0.76881861    -0.21621999     1.91112426    -0.00031210    -0.00043728    -0.00029301
H        -0.95981752    -0.09705665     1.87310366    -0.00026126     0.00029823     0.00030261
H        -1.04192612     0.03160869    -0.57072883     0.00010524    -0.00027512    -0.00045213
     6
  Step:    27            Position(A)                                  Velocity(au)
C        -0.03262220     0.01813751    -0.07448506     0.00005980     0.00002185    -0.00106235
N        -0.03688765    -0.04510927     1.38138130     0.00001156    -0.00001501     0.00092485
H         0.92271661     0.02514695    -0.62787227    -0.00084133     0.00044179     0.00013971
H         0.76760686    -0.21885165     1.90978402    -0.00011601    -0.00050630    -0.00018205
H        -0.96090708    -0.09535643     1.87460820    -0.00013217     0.00030998     0.00023901
H        -1.04101541     0.03000851    -0.57307121     0.00021637    -0.00029720    -0.00038973
     6
  Step:    28            Position(A)                                  Velocity(au)
C        -0.03231100     0.01826170    -0.08042966     0.00005125     0.00002255    -0.00106539
N        -0.03688879    -0.04517986     1.38652622    -0.00001179    -0.00001015     0.00091702
H         0.91798903     0.02762710    -0.62699384    -0.00084205     0.00044701     0.00016777
H         0.76752321    -0.22187351     1.90909139     0.00008827    -0.00057712    -0.00006375
H        -0.96129338    -0.09359530     1.87577249    -0.00001086     0.00032046     0.00018169
H        -1.03951011     0.02829003    -0.57508070     0.00031782    -0.00031801    -0.00033371
     6
  Step:    29            Position(A)                                  Velocity(au)
C        -0.03205033     0.01838911    -0.08637412     0.00004177     0.00002302    -0.00106335
N        -0.03701919    -0.04522251     1.39161465    -0.00003441    -0.00000507     0.00090568
H         0.91331989     0.03013530    -0.62600007    -0.00082094     0.00045233     0.00018122
H         0.76859189    -0.22529194     1.90907265     0.00029327    -0.00064822     0.00005687
H        -0.96102829    -0.09178026     1.87663570     0.00010001     0.00032958     0.00013184
H        -1.03746875     0.02645972    -0.57679517     0.00040810    -0.00033766    -0.00028457
     6
  Step:    30            Position(A)                                  Velocity(au)
C        -0.03184502     0.01851853    -0.09229124     0.00003147     0.00002328    -0.00105613
N        -0.03727264    -0.04523636     1.39662894    -0.00005556     0.00000011     0.00089104
H         0.90883150     0.03267283    -0.62497233    -0.00077765     0.00045777     0.00018020
H         0.77079461    -0.22910432     1.90972572     0.00049115    -0.00071780     0.00017465
H        -0.96017781    -0.08991887     1.87724314     0.00019785     0.00033720     0.00009055
H        -1.03495780     0.02452347    -0.57825504     0.00048569    -0.00035619    -0.00024280
     6
  Step:    31            Position(A)                                  Velocity(au)
C        -0.03169932     0.01864877    -0.09815331     0.00002048     0.00002332    -0.00104366
N        -0.03763882    -0.04522123     1.40155263    -0.00007449     0.00000526     0.00087336
H         0.90464660     0.03524096    -0.62399029    -0.00071243     0.00046333     0.00016515
H         0.77406974    -0.23329768     1.91102058     0.00067415    -0.00078394     0.00028471
H        -0.95882158    -0.08801942     1.87764567     0.00028028     0.00034319     0.00005878
H        -1.03205175     0.02248702    -0.57950313     0.00054915    -0.00037363    -0.00020883
     6
  Step:    32            Position(A)                                  Velocity(au)
C        -0.03161658     0.01877866    -0.10393241     0.00000899     0.00002315    -0.00102606
N        -0.03810353    -0.04517765     1.40637054    -0.00009056     0.00001025     0.00085293
H         0.90088492     0.03784093    -0.62313022    -0.00062633     0.00046901     0.00013694
H         0.77831420    -0.23784848     1.91290146     0.00083523    -0.00084480     0.00038273
H        -0.95705155    -0.08609084     1.87789873     0.00034521     0.00034745     0.00003724
H        -1.02883248     0.02035588    -0.58058432     0.00059723    -0.00039002    -0.00018303
     6
  Step:    33            Position(A)                                  Velocity(au)
C        -0.03159902     0.01890710    -0.10960126    -0.00000275     0.00002279    -0.00100358
N        -0.03864920    -0.04510686     1.41106900    -0.00010322     0.00001495     0.00083013
H         0.89765844     0.04047381    -0.62246245    -0.00052132     0.00047483     0.00009688
H         0.78338857    -0.24272326     1.91529077     0.00096856    -0.00089877     0.00046523
H        -0.95496997    -0.08414280     1.87806120     0.00039103     0.00034996     0.00002647
H        -1.02538832     0.01813546    -0.58154522     0.00062892    -0.00040541    -0.00016570
     6
  Step:    34            Position(A)                                  Velocity(au)
C        -0.03164731     0.01903304    -0.11513404    -0.00001445     0.00002225    -0.00097666
N        -0.03925563    -0.04501074     1.41563621    -0.00011210     0.00001927     0.00080536
H         0.89506606     0.04314089    -0.62204884    -0.00040024     0.00048086     0.00004675
H         0.78912501    -0.24788028     1.91809425     0.00106995    -0.00094462     0.00052981
H        -0.95268704    -0.08218467     1.87819421     0.00041665     0.00035079     0.00002671
H        -1.02181260     0.01583086    -0.58243377     0.00064360    -0.00041989    -0.00015699
     6
  Step:    35            Position(A)                                  Velocity(au)
C        -0.03176041     0.01915552    -0.12050747    -0.00002579     0.00002154    -0.00094589
N        -0.03990095    -0.04489169     1.42006241    -0.00011699     0.00002312     0.00077909
H         0.89318898     0.04584355    -0.62194044    -0.00026666     0.00048716    -0.00001137
H         0.79533652    -0.25327172     1.92120708     0.00113697    -0.00098157     0.00057517
H        -0.95031724    -0.08022556     1.87835943     0.00042175     0.00035006     0.00003785
H        -1.01820128     0.01344665    -0.58329833     0.00064110    -0.00043361    -0.00015690
     6
  Step:    36            Position(A)                                  Velocity(au)
C        -0.03193548     0.01927372    -0.12570150    -0.00003646     0.00002071    -0.00091197
N        -0.04056266    -0.04475247     1.42434018    -0.00011790     0.00002645     0.00075177
H         0.89208695     0.04858340    -0.62217582    -0.00012467     0.00049378    -0.00007511
H         0.80182720    -0.25884633     1.92452007     0.00116902    -0.00100931     0.00060112
H        -0.94797524    -0.07827384     1.87861706     0.00040672     0.00034794     0.00005946
H        -1.01465029     0.01098660    -0.58418665     0.00062171    -0.00044677    -0.00016522
     6
  Step:    37            Position(A)                                  Velocity(au)
C        -0.03216784     0.01938697    -0.13069996    -0.00004612     0.00001977    -0.00087564
N        -0.04121862    -0.04459606     1.42846442    -0.00011498     0.00002925     0.00072383
H         0.89179558     0.05136225    -0.62277988     0.00002131     0.00050079    -0.00014202
H         0.80840195    -0.26455210     1.92792546     0.00116710    -0.00102799     0.00060840
H        -0.94577156    -0.07633681     1.87902396     0.00037274     0.00034468     0.00009076
H        -1.01125279     0.00845343    -0.58514484     0.00058622    -0.00045959    -0.00018155
     6
  Step:    38            Position(A)                                  Velocity(au)
C        -0.03245111     0.01949478    -0.13549081    -0.00005451     0.00001877    -0.00083767
N        -0.04184802    -0.04442547     1.43243230    -0.00010853     0.00003152     0.00069570
H         0.89232513     0.05418203    -0.62376357     0.00016681     0.00050822    -0.00020967
H         0.81487489    -0.27033877     1.93132169     0.00113348    -0.00103813     0.00059844
H        -0.94380823    -0.07442043     1.87963174     0.00032166     0.00034054     0.00013068
H        -1.00809666     0.00584865    -0.58621635     0.00053578    -0.00047231    -0.00020536
     6
  Step:    39            Position(A)                                  Velocity(au)
C        -0.03277738     0.01959685    -0.14006613    -0.00006139     0.00001773    -0.00079876
N        -0.04243207    -0.04424364     1.43624314    -0.00009896     0.00003328     0.00066770
H         0.89366075     0.05704476    -0.62512422     0.00030757     0.00051607    -0.00027574
H         0.82107565    -0.27615966     1.93461677     0.00107134    -0.00104053     0.00057318
H        -0.94217501    -0.07252914     1.88048510     0.00025598     0.00033579     0.00017787
H        -1.00526215     0.00317245    -0.58744106     0.00047195    -0.00048518    -0.00023592
     6
  Step:    40            Position(A)                                  Velocity(au)
C        -0.03313758     0.01969306    -0.14442188    -0.00006659     0.00001669    -0.00075953
N        -0.04295456    -0.04405331     1.43989804    -0.00008678     0.00003459     0.00064013
H         0.89576415     0.05995234    -0.62684673     0.00043968     0.00052431    -0.00033820
H         0.82685381    -0.28197320     1.93773058     0.00098445    -0.00103618     0.00053484
H        -0.94094605    -0.07066586     1.88162052     0.00017867     0.00033070     0.00023078
H        -1.00281969     0.00042376    -0.58885427     0.00039662    -0.00049841    -0.00027236
     6
  Step:    41            Position(A)                                  Velocity(au)
C        -0.03352182     0.01978346    -0.14855742    -0.00006999     0.00001567    -0.00072053
N        -0.04340224    -0.04385694     1.44339963    -0.00007251     0.00003549     0.00061321
H         0.89857624     0.06290641    -0.62890518     0.00055978     0.00053288    -0.00039529
H         0.83208145    -0.28774375     1.94059607     0.00087685    -0.00102614     0.00048573
H        -0.94017752    -0.06883199     1.88306517     0.00009307     0.00032553     0.00028772
H        -1.00082807    -0.00239963    -0.59048596     0.00031196    -0.00051219    -0.00031367
     6
  Step:    42            Position(A)                                  Velocity(au)
C        -0.03391984     0.01986825    -0.15247500    -0.00007156     0.00001471    -0.00068218
N        -0.04376497    -0.04365668     1.44675168    -0.00005671     0.00003604     0.00058707
H         0.90202059     0.06590820    -0.63126474     0.00066510     0.00054168    -0.00044561
H         0.83665404    -0.29344208     1.94315940     0.00075261    -0.00101154     0.00042814
H        -0.93990588    -0.06702754     1.88483631     0.00000273     0.00032048     0.00034690
H        -0.99933301    -0.00530088    -0.59236007     0.00022036    -0.00052666    -0.00035874
     6
  Step:    43            Position(A)                                  Velocity(au)
C        -0.03432138     0.01994778    -0.15617913    -0.00007134     0.00001381    -0.00064481
N        -0.04403579    -0.04345432     1.44995876    -0.00003992     0.00003630     0.00056182
H         0.90600719     0.06895838    -0.63388375     0.00075358     0.00055059    -0.00048811
H         0.84049001    -0.29904526     1.94537954     0.00061569    -0.00099345     0.00036427
H        -0.94014704    -0.06525137     1.88694097    -0.00008870     0.00031575     0.00040650
H        -0.99836612    -0.00828381    -0.59449399     0.00012435    -0.00054190    -0.00040637
     6
  Step:    44            Position(A)                                  Velocity(au)
C        -0.03471658     0.02002247    -0.15967601    -0.00006943     0.00001299    -0.00060866
N        -0.04421081    -0.04325129     1.45302592    -0.00002269     0.00003634     0.00053750
H         0.91043634     0.07205700    -0.63671580     0.00082379     0.00055948    -0.00052211
H         0.84352983    -0.30453659     1.94722743     0.00046987    -0.00097292     0.00029614
H        -0.94089640    -0.06350135     1.88937598    -0.00017762     0.00031148     0.00046473
H        -0.99794432    -0.01135259    -0.59689826     0.00002657    -0.00055792    -0.00045532
     6