     6
  Step:     0            Position(A)                                  Velocity(au)
C        -0.03726940     0.00127343     0.00169582    -0.00011575    -0.00009853    -0.00012622
N        -0.03453990    -0.04637305     1.30734642    -0.00001747     0.00007361     0.00015382
H         0.93381840     0.06956596    -0.55431897     0.00114734     0.00041183    -0.00066726
H         0.78363839    -0.14082469     1.87461876     0.00044985    -0.00034457     0.00017994
H        -1.00544925    -0.04837337     1.87857570    -0.00009632    -0.00025089    -0.00006956
H        -1.00086282     0.07909592    -0.49438761     0.00012122     0.00033480    -0.00007658
     6
  Step:     1            Position(A)                                  Velocity(au)
C        -0.03788985     0.00073211     0.00093574    -0.00011040    -0.00009949    -0.00015144
N        -0.03470693    -0.04596704     1.30828310    -0.00004303     0.00007490     0.00018838
H         0.94003785     0.07185506    -0.55806835     0.00111801     0.00042480    -0.00069813
H         0.78643456    -0.14278956     1.87591095     0.00056602    -0.00037364     0.00028796
H        -1.00523664    -0.04974406     1.87779803     0.00017324    -0.00025040    -0.00021392
H        -1.00037646     0.08095075    -0.49511188     0.00005619     0.00034390    -0.00018902
     6
  Step:     2            Position(A)                                  Velocity(au)
C        -0.03847677     0.00018538     0.00003953    -0.00010363    -0.00010056    -0.00017598
N        -0.03501049    -0.04555391     1.30940664    -0.00006721     0.00007625     0.00022217
H         0.94604570     0.07421187    -0.56195417     0.00107117     0.00043683    -0.00071798
H         0.78982879    -0.14491109     1.87776805     0.00066733    -0.00040184     0.00038546
H        -1.00355457    -0.05111196     1.87623611     0.00043943    -0.00025001    -0.00035537
H        -1.00024825     0.08285702    -0.49645485    -0.00000896     0.00035372    -0.00030244
     6
  Step:     3            Position(A)                                  Velocity(au)
C        -0.03902295    -0.00036738    -0.00098837    -0.00009562    -0.00010172    -0.00019957
N        -0.03544182    -0.04513338     1.31071225    -0.00008958     0.00007761     0.00025494
H         0.95174977     0.07663128    -0.56591856     0.00100789     0.00044785    -0.00072756
H         0.79373091    -0.14718317     1.88012543     0.00075077    -0.00042863     0.00047008
H        -1.00043207    -0.05247764     1.87391250     0.00069838    -0.00024969    -0.00049146
H        -1.00047447     0.08481827    -0.49841868    -0.00007267     0.00036404    -0.00041568
     6
  Step:     4            Position(A)                                  Velocity(au)
C        -0.03952212    -0.00092666    -0.00214218    -0.00008653    -0.00010294    -0.00022194
N        -0.03598982    -0.04470542     1.31219366    -0.00010971     0.00007896     0.00028636
H         0.95706402     0.07910779    -0.56990791     0.00092928     0.00045775    -0.00072760
H         0.79803624    -0.14959692     1.88290699     0.00081396    -0.00045351     0.00053992
H        -0.99591985    -0.05384154     1.87086344     0.00094572    -0.00024940    -0.00061946
H        -1.00104269     0.08683673    -0.50099912    -0.00013330     0.00037457    -0.00052746
     6
  Step:     5            Position(A)                                  Velocity(au)
C        -0.03996891    -0.00149274    -0.00341466    -0.00007654    -0.00010418    -0.00024282
N        -0.03664112    -0.04427020     1.31384270    -0.00012715     0.00008024     0.00031602
H         0.96190870     0.08163542    -0.57387266     0.00083659     0.00046643    -0.00071883
H         0.80262907    -0.15214090     1.88602782     0.00085518    -0.00047599     0.00059358
H        -0.99009347    -0.05520410     1.86714057     0.00117644    -0.00024916    -0.00073631
H        -1.00193173     0.08891303    -0.50418492    -0.00018924     0.00038499    -0.00063640
     6
  Step:     6            Position(A)                                  Velocity(au)
C        -0.04035894    -0.00206568    -0.00479712    -0.00006582    -0.00010538    -0.00026193
N        -0.03738004    -0.04382808     1.31564888    -0.00014149     0.00008143     0.00034344
H         0.96621102     0.08420762    -0.57776738     0.00073119     0.00047378    -0.00070203
H         0.80738648    -0.15480126     1.88939702     0.00087347    -0.00049568     0.00063022
H        -0.98305710    -0.05656579     1.86281291     0.00138483    -0.00024899    -0.00083858
H        -1.00311176     0.09104611    -0.50795734    -0.00023892     0.00039499    -0.00074105
     6
  Step:     7            Position(A)                                  Velocity(au)
C        -0.04068883    -0.00264530    -0.00627942    -0.00005459    -0.00010651    -0.00027899
N        -0.03818860    -0.04337957     1.31759901    -0.00015230     0.00008250     0.00036812
H         0.96990587     0.08681728    -0.58155085     0.00061462     0.00047970    -0.00067798
H         0.81218234    -0.15756219     1.89292070     0.00086861    -0.00051222     0.00064956
H        -0.97494738    -0.05792736     1.85796883     0.00156463    -0.00024896    -0.00092261
H        -1.00454484     0.09323308    -0.51228990    -0.00028092     0.00040422    -0.00083994
     6
  Step:     8            Position(A)                                  Velocity(au)
C        -0.04095625    -0.00323116    -0.00784998    -0.00004302    -0.00010752    -0.00029376
N        -0.03904660    -0.04292534     1.31967699    -0.00015920     0.00008343     0.00038949
H         0.97293654     0.08945674    -0.58518617     0.00048856     0.00048410    -0.00064752
H         0.81689125    -0.16040628     1.89650480     0.00084114    -0.00052540     0.00065183
H        -0.96593616    -0.05929002     1.85271727     0.00170920    -0.00024918    -0.00098455
H        -1.00618574     0.09546927    -0.51714836    -0.00031402     0.00041236    -0.00093166
     6
  Step:     9            Position(A)                                  Velocity(au)
C        -0.04115983    -0.00382258    -0.00949596    -0.00003131    -0.00010837    -0.00030603
N        -0.03993172    -0.04246610     1.32186366    -0.00016181     0.00008421     0.00040702
H         0.97525539     0.09211793    -0.58864088     0.00035484     0.00048692    -0.00061154
H         0.82139232    -0.16331507     1.90005787     0.00079218    -0.00053508     0.00063775
H        -0.95623259    -0.06065572     1.84718856     0.00181185    -0.00024980    -0.00102063
H        -1.00798315     0.09774824    -0.52249107    -0.00033724     0.00041914    -0.00101494
     6
  Step:    10            Position(A)                                  Velocity(au)
C        -0.04129929    -0.00441870    -0.01120337    -0.00001964    -0.00010904    -0.00031563
N        -0.04081967    -0.04200258     1.32413698    -0.00015985     0.00008486     0.00042022
H         0.97682482     0.09479230    -0.59188732     0.00021540     0.00048815    -0.00057098
H         0.82557184    -0.16626960     1.90349316     0.00072360    -0.00054126     0.00060854
H        -0.94608224    -0.06202731     1.84153341     0.00186634    -0.00025106    -0.00102741
H        -1.00988117     0.10006216    -0.52826981    -0.00034995     0.00042433    -0.00108868
     6
  Step:    11            Position(A)                                  Velocity(au)
C        -0.04137525    -0.00501847    -0.01295748    -0.00000820    -0.00010951    -0.00032247
N        -0.04168478    -0.04153547     1.32647231    -0.00015313     0.00008539     0.00042873
H         0.97761773     0.09747153    -0.59490287     0.00007227     0.00048788    -0.00052684
H         0.82932810    -0.16925113     1.90673181     0.00063783    -0.00054408     0.00056585
H        -0.93576428    -0.06340914     1.83592085     0.00186737    -0.00025324    -0.00100209
H        -1.01182110     0.10240189    -0.53443076    -0.00035184     0.00042774    -0.00115208
     6
  Step:    12            Position(A)                                  Velocity(au)
C        -0.04138927    -0.00562077    -0.01474309     0.00000287    -0.00010977    -0.00032653
N        -0.04250054    -0.04106527     1.32884307    -0.00014159     0.00008585     0.00043228
H         0.97761817     0.10014774    -0.59767034    -0.00007247     0.00048625    -0.00048016
H         0.83257325    -0.17224185     1.90970441     0.00053767    -0.00054379     0.00051160
H        -0.92558436    -0.06480714     1.83053363     0.00181129    -0.00025666    -0.00094286
H        -1.01374324     0.10475744    -0.54091605    -0.00034294     0.00042930    -0.00120463
     6
  Step:    13            Position(A)                                  Velocity(au)
C        -0.04134377    -0.00622447    -0.01654496     0.00001340    -0.00010984    -0.00032786
N        -0.04324042    -0.04059232     1.33122154    -0.00012535     0.00008627     0.00043079
H         0.97682152     0.10281376    -0.60017823    -0.00021680     0.00048345    -0.00043203
H         0.83523526    -0.17522555     1.91235254     0.00042615    -0.00054080     0.00044793
H        -0.91586442    -0.06622897     1.82556203     0.00169662    -0.00026163    -0.00084925
H        -1.01558883     0.10711840    -0.54766549    -0.00032360     0.00042897    -0.00124615
     6
  Step:    14            Position(A)                                  Velocity(au)
C        -0.04124196    -0.00682852    -0.01834816     0.00002327    -0.00010973    -0.00032657
N        -0.04387890    -0.04011668     1.33357985    -0.00010470     0.00008672     0.00042435
H         0.97523430     0.10546356    -0.60242082    -0.00035878     0.00047973    -0.00038350
H         0.83725907    -0.17818827     1.91462967     0.00030642    -0.00053557     0.00037707
H        -0.90692880    -0.06768397     1.82119557     0.00152459    -0.00026844    -0.00072232
H        -1.01730148     0.10947431    -0.55461832    -0.00029442     0.00042682    -0.00127677
     6
  Step:    15            Position(A)                                  Velocity(au)
C        -0.04108776    -0.00743196    -0.02013842     0.00003236    -0.00010949    -0.00032280
N        -0.04439257    -0.03963811     1.33589099    -0.00008015     0.00008724     0.00041324
H         0.97287365     0.10809257    -0.60439814    -0.00049659     0.00047540    -0.00033558
H         0.83860707    -0.18111882     1.91650171     0.00018164    -0.00052867     0.00030129
H        -0.89908825    -0.06918286     1.81761383     0.00129934    -0.00027731    -0.00056484
H        -1.01882854     0.11181502    -0.56171471    -0.00025617     0.00042293    -0.00129685
     6
  Step:    16            Position(A)                                  Velocity(au)
C        -0.04088569    -0.00803408    -0.02190235     0.00004058    -0.00010915    -0.00031675
N        -0.04476136    -0.03915608     1.33812981    -0.00005239     0.00008790     0.00039788
H         0.96976658     0.11069787    -0.60611575    -0.00062860     0.00047077    -0.00028925
H         0.83925901    -0.18400919     1.91794698     0.00005486    -0.00052071     0.00022280
H        -0.89262247    -0.07073725     1.81497646     0.00102810    -0.00028831    -0.00038129
H        -1.02012200     0.11413095    -0.56889720    -0.00020976     0.00041743    -0.00130696
     6
  Step:    17            Position(A)                                  Velocity(au)
C        -0.04064080    -0.00863434    -0.02362760     0.00004837    -0.00010631    -0.00034460
N        -0.04496971    -0.03866984     1.34027391    -0.00002181     0.00008772     0.00040540
H         0.96594928     0.11327836    -0.60758443    -0.00077820     0.00053058    -0.00020563
H         0.83921142    -0.18685480     1.91895594    -0.00008726    -0.00059494     0.00013274
H        -0.88776312    -0.07235882     1.81341372     0.00072985    -0.00021046    -0.00017206
H        -1.02113917     0.11641324    -0.57611162    -0.00013767     0.00032253    -0.00128239
     6
  Step:    18            Position(A)                                  Velocity(au)
C        -0.04035261    -0.00920555    -0.02569977     0.00005539    -0.00010003    -0.00041987
N        -0.04500174    -0.03818940     1.34259729     0.00001016     0.00008598     0.00044843
H         0.96119088     0.11654475    -0.60838176    -0.00094658     0.00061954    -0.00008170
H         0.83829745    -0.19056534     1.91940972    -0.00024551    -0.00071153     0.00002606
H        -0.88457962    -0.07305644     1.81308041     0.00042521    -0.00008039     0.00004042
H        -1.02163909     0.11768522    -0.58302902    -0.00003429     0.00016957    -0.00121304
     6
  Step:    19            Position(A)                                  Velocity(au)
C        -0.04003010    -0.00973715    -0.02825662     0.00006082    -0.00009262    -0.00050686
N        -0.04485774    -0.03772196     1.34521774     0.00004186     0.00008353     0.00050127
H         0.95551342     0.12010872    -0.60848517    -0.00110500     0.00066556     0.00004125
H         0.83650472    -0.19469926     1.91924329    -0.00040015    -0.00077953    -0.00008419
H        -0.88307521    -0.07324515     1.81385933     0.00011827     0.00000345     0.00024074
H        -1.02151718     0.11828272    -0.58948521     0.00008054     0.00005339    -0.00112377
     6
  Step:    20            Position(A)                                  Velocity(au)
C        -0.03968166    -0.01022737    -0.03129152     0.00006466    -0.00008496    -0.00059051
N        -0.04453997    -0.03726785     1.34812733     0.00007250     0.00008104     0.00055110
H         0.94900031     0.12388733    -0.60792672    -0.00124538     0.00069921     0.00015663
H         0.83388294    -0.19916520     1.91848088    -0.00054280    -0.00083406    -0.00018769
H        -0.88327488    -0.07301839     1.81573634    -0.00018706     0.00007361     0.00043563
H        -1.02075052     0.11827423    -0.59542662     0.00019730    -0.00005261    -0.00102619
     6
  Step:    21            Position(A)                                  Velocity(au)
C        -0.03931606    -0.01067535    -0.03477771     0.00006683    -0.00007717    -0.00066774
N        -0.04405713    -0.03682699     1.35130355     0.00010085     0.00007855     0.00059583
H         0.94176058     0.12783014    -0.60675550    -0.00136298     0.00072466     0.00026140
H         0.83051058    -0.20390984     1.91717056    -0.00066827    -0.00088001    -0.00028041
H        -0.88514091    -0.07243228     1.81867005    -0.00047854     0.00013501     0.00061914
H        -1.01933842     0.11770175    -0.60081747     0.00031210    -0.00015158    -0.00092307
     6
  Step:    22            Position(A)                                  Velocity(au)
C        -0.03894264    -0.01108078    -0.03867565     0.00006723    -0.00006936    -0.00073638
N        -0.04342479    -0.03639925     1.35471619     0.00012566     0.00007604     0.00063420
H         0.93392798     0.13190087    -0.60503609    -0.00145329     0.00074391     0.00035268
H         0.82649301    -0.20889660     1.91538002    -0.00077169    -0.00091973    -0.00035887
H        -0.88856673    -0.07152541     1.82258301    -0.00074369     0.00019006     0.00078458
H        -1.01729927     0.11659801    -0.60563421     0.00042138    -0.00024450    -0.00081667
     6
  Step:    23            Position(A)                                  Velocity(au)
C        -0.03857128    -0.01144373    -0.04293547     0.00006578    -0.00006161    -0.00079470
N        -0.04266506    -0.03598455     1.35832933     0.00014583     0.00007354     0.00066532
H         0.92566078     0.13607136    -0.60284845    -0.00151213     0.00075827     0.00042773
H         0.82196166    -0.21409875     1.91319490    -0.00084866    -0.00095473    -0.00042006
H        -0.89337971    -0.07032675     1.82736179    -0.00097126     0.00024010     0.00092580
H        -1.01467025     0.11499314    -0.60986471     0.00052173    -0.00033147    -0.00070928
     6
  Step:    24            Position(A)                                  Velocity(au)
C        -0.03821228    -0.01176482    -0.04749873     0.00006247    -0.00005405    -0.00084149
N        -0.04180579    -0.03558274     1.36210283     0.00016048     0.00007108     0.00068867
H         0.91713985     0.14031945    -0.60028730    -0.00153621     0.00076886     0.00048418
H         0.81707086    -0.21949632     1.91071634    -0.00089575    -0.00098627    -0.00046163
H        -0.89934995    -0.06885974     1.83286157    -0.00115239     0.00028592     0.00103807
H        -1.01150685     0.11291793    -0.61350888     0.00060996    -0.00041221    -0.00060335
     6
  Step:    25            Position(A)                                  Velocity(au)
C        -0.03787604    -0.01204526    -0.05230092     0.00005732    -0.00004681    -0.00087619
N        -0.04087902    -0.03519349     1.36599395     0.00016910     0.00006871     0.00070416
H         0.90856345     0.14462845    -0.59745980    -0.00152375     0.00077692     0.00052036
H         0.81199238    -0.22507546     1.90805716    -0.00091098    -0.00101560    -0.00048220
H        -0.90620534    -0.06714458     1.83891503    -0.00128168     0.00032796     0.00111870
H        -1.00788169     0.11040547    -0.61657977     0.00068342    -0.00048639    -0.00050148
     6
  Step:    26            Position(A)                                  Velocity(au)
C        -0.03757266    -0.01228707    -0.05727490     0.00005049    -0.00004004    -0.00089903
N        -0.03991899    -0.03481608     1.36995965     0.00017161     0.00006655     0.00071225
H         0.90013835     0.14898811    -0.59448130    -0.00147482     0.00078395     0.00053558
H         0.80690641    -0.23082804     1.90533614    -0.00089423    -0.00104421    -0.00048157
H        -0.91365046    -0.06520052     1.84534362    -0.00135760     0.00036651     0.00116740
H        -1.00388145     0.10749100    -0.61910423     0.00074030    -0.00055393    -0.00040623
     6
  Step:    27            Position(A)                                  Velocity(au)
C        -0.03731141    -0.01249306    -0.06235538     0.00004217    -0.00003389    -0.00091116
N        -0.03895979    -0.03444922     1.37395957     0.00016832     0.00006472     0.00071397
H         0.89206957     0.15339583    -0.59147001    -0.00139142     0.00079167     0.00053025
H         0.80199159    -0.23675352     1.90267147    -0.00084723    -0.00107395    -0.00046076
H        -0.92138830    -0.06304570     1.85197086    -0.00138256     0.00040200     0.00118629
H        -0.99960248     0.10421045    -0.62112292     0.00077972    -0.00061524    -0.00031994
     6
  Step:    28            Position(A)                                  Velocity(au)
C        -0.03710024    -0.01266678    -0.06748360     0.00003263    -0.00002847    -0.00091438
N        -0.03803309    -0.03409096     1.37795905     0.00015989     0.00006335     0.00071077
H         0.88454866     0.15785809    -0.58854035    -0.00127716     0.00080202     0.00050576
H         0.79741393    -0.24286071     1.90017368    -0.00077336    -0.00110695    -0.00042188
H        -0.92914088    -0.06069651     1.85863497    -0.00136203     0.00043503     0.00117934
H        -0.99514533     0.10059777    -0.62268885     0.00080181    -0.00067124    -0.00024445
     6
  Step:    29            Position(A)                                  Velocity(au)
C        -0.03694546    -0.01281235    -0.07261109     0.00002217    -0.00002384    -0.00091089
N        -0.03716641    -0.03373867     1.38193154     0.00014717     0.00006257     0.00070431
H         0.87774497     0.16239122    -0.58579746    -0.00113644     0.00081684     0.00046420
H         0.79331762    -0.24916899     1.89793963    -0.00067702    -0.00114530    -0.00036771
H        -0.93666483    -0.05816645     1.86519835    -0.00130316     0.00046636     0.00115150
H        -0.99060938     0.09668183    -0.62386471     0.00080730    -0.00072331    -0.00018103
     6
  Step:    30            Position(A)                                  Velocity(au)
C        -0.03685157    -0.01293420    -0.07770159     0.00001108    -0.00002002    -0.00090275
N        -0.03638215    -0.03338911     1.38585966     0.00013104     0.00006245     0.00069610
H         0.87180054     0.16702110    -0.58333317    -0.00097380     0.00083767     0.00040799
H         0.78981940    -0.25570817     1.89604882    -0.00056298    -0.00119073    -0.00030130
H        -0.94375919    -0.05546506     1.87155208    -0.00121335     0.00049679     0.00110773
H        -0.98608937     0.09248399    -0.62471961     0.00079708    -0.00077297    -0.00013035
     6
  Step:    31            Position(A)                                  Velocity(au)
C        -0.03682121    -0.01303676    -0.08273046    -0.00000032    -0.00001698    -0.00089158
N        -0.03569752    -0.03303867     1.38973441     0.00011231     0.00006302     0.00068727
H         0.86682920     0.17178107    -0.58122415    -0.00079342     0.00086542     0.00033956
H         0.78700689    -0.26251639     1.89456221    -0.00043597    -0.00124422    -0.00022568
H        -0.95026579    -0.05259767     1.87761539    -0.00109921     0.00052698     0.00105227
H        -0.98167454     0.08801722    -0.62532586     0.00077179    -0.00082160    -0.00009262
     6
  Step:    32            Position(A)                                  Velocity(au)
C        -0.03685516    -0.01312424    -0.08768198    -0.00001174    -0.00001464    -0.00087833
N        -0.03512499    -0.03268369     1.39355303     0.00009168     0.00006424     0.00067846
H         0.86291895     0.17670870    -0.57953207    -0.00059914     0.00090027     0.00026131
H         0.78493908    -0.26963607     1.89352251    -0.00030061    -0.00130577    -0.00014383
H        -0.95606377    -0.04956606     1.88333125    -0.00096609     0.00055729     0.00098834
H        -0.97744985     0.08328698    -0.62575640     0.00073167    -0.00087014    -0.00006775
     6
  Step:    33            Position(A)                                  Velocity(au)
C        -0.03695235    -0.01320032    -0.09254592    -0.00002282    -0.00001289    -0.00086341
N        -0.03467299    -0.03232075     1.39731633     0.00006980     0.00006603     0.00066987
H         0.86013378     0.18184165    -0.57830397    -0.00039488     0.00094162     0.00017567
H         0.78364752    -0.27710850     1.89295493    -0.00016155    -0.00137435    -0.00005869
H        -0.96106192    -0.04636990     1.88866025    -0.00081826     0.00058780     0.00091827
H        -0.97349799     0.07829335    -0.62608302     0.00067666    -0.00091907    -0.00005548
     6
  Step:    34            Position(A)                                  Velocity(au)
C        -0.03710969    -0.01326807    -0.09731435    -0.00003317    -0.00001162    -0.00084684
N        -0.03434633    -0.03194701     1.40102619     0.00004726     0.00006825     0.00066137
H         0.85851361     0.18721355    -0.57757231    -0.00018505     0.00098825     0.00008525
H         0.78313675    -0.28496851     1.89286774    -0.00002365    -0.00144810     0.00002670
H        -0.96519247    -0.04300844     1.89357557    -0.00065940     0.00061833     0.00084377
H        -0.96990092     0.07303370    -0.62637537     0.00060664    -0.00096846    -0.00005540
     6
  Step:    35            Position(A)                                  Velocity(au)
C        -0.03732191    -0.01332979    -0.10197950    -0.00004240    -0.00001068    -0.00082846
N        -0.03414649    -0.03156043     1.40468387     0.00002468     0.00007074     0.00065273
H         0.85807236     0.19285055    -0.57735430     0.00002530     0.00103847    -0.00000709
H         0.78338403    -0.29323993     1.89325233     0.00010806    -0.00152456     0.00010925
H        -0.96840744    -0.03948190     1.89805961    -0.00049292     0.00064850     0.00076631
H        -0.96674013     0.06750496    -0.62670020     0.00052180    -0.00101810    -0.00006695
     6
  Step:    36            Position(A)                                  Velocity(au)
C        -0.03758149    -0.01338696    -0.10653290    -0.00005009    -0.00000993    -0.00080814
N        -0.03407165    -0.03115990     1.40828925     0.00000268     0.00007331     0.00064364
H         0.85879511     0.19876891    -0.57765121     0.00023057     0.00109028    -0.00009835
H         0.78433912    -0.30193268     1.89408342     0.00022852    -0.00160096     0.00018593
H        -0.97067735    -0.03579235     1.90210253    -0.00032232     0.00067790     0.00068732
H        -0.96409475     0.06170505    -0.62712032     0.00042286    -0.00106765    -0.00008930
     6
  Step:    37            Position(A)                                  Velocity(au)
C        -0.03787882    -0.01344016    -0.11096529    -0.00005587    -0.00000919    -0.00078579
N        -0.03411672    -0.03074533     1.41184057    -0.00001815     0.00007578     0.00063385
H         0.86063607     0.20497346    -0.57844788     0.00042492     0.00114157    -0.00018552
H         0.78592499    -0.31104115     1.89531972     0.00033297    -0.00167446     0.00025392
H        -0.97199138    -0.03194422     1.90570202    -0.00015119     0.00070610     0.00060827
H        -0.96203826     0.05563366    -0.62769316     0.00031132    -0.00111675    -0.00012134
     6
  Step:    38            Position(A)                                  Velocity(au)
C        -0.03820247    -0.01348910    -0.11526698    -0.00005947    -0.00000832    -0.00076145
N        -0.03427344    -0.03031763     1.41533451    -0.00003724     0.00007798     0.00062314
H         0.86351811     0.21145743    -0.57971331     0.00060268     0.00119026    -0.00026579
H         0.78804013    -0.32054428     1.89690569     0.00041725    -0.00174234     0.00031079
H        -0.97235783    -0.02794401     1.90886346     0.00001678     0.00073274     0.00053070
H        -0.96063440     0.04929238    -0.62846898     0.00018941    -0.00116505    -0.00016159
     6
  Step:    39            Position(A)                                  Velocity(au)
C        -0.03853975    -0.01353267    -0.11942843    -0.00006071    -0.00000719    -0.00073525
N        -0.03453063    -0.02987867     1.41876647    -0.00005407     0.00007975     0.00061134
H         0.86733461     0.21820262    -0.58140204     0.00075878     0.00123443    -0.00033671
H         0.79056254    -0.33040642     1.89877402     0.00047809    -0.00180218     0.00035471
H        -0.97180483    -0.02380018     1.91160046     0.00017787     0.00075747     0.00045620
H        -0.95993310     0.04268469    -0.62948916     0.00006005    -0.00121223    -0.00020828
     6
  Step:    40            Position(A)                                  Velocity(au)
C        -0.03887733    -0.01356904    -0.12344080    -0.00005954    -0.00000567    -0.00070743
N        -0.03487456    -0.02943110     1.42213080    -0.00006822     0.00008096     0.00059833
H         0.87195342     0.22518058    -0.58345652     0.00088905     0.00127239    -0.00039636
H         0.79335504    -0.34057914     1.90084895     0.00051330    -0.00185197     0.00038445
H        -0.97038041    -0.01952316     1.91393505     0.00032842     0.00078011     0.00038641
H        -0.95996677     0.03581605    -0.63078445    -0.00007323    -0.00125802    -0.00025939
     6
  Step:    41            Position(A)                                  Velocity(au)
C        -0.03920195    -0.01359572    -0.12729633    -0.00005606    -0.00000366    -0.00067826
N        -0.03528939    -0.02897825     1.42542104    -0.00007936     0.00008151     0.00058403
H         0.87722254     0.23235399    -0.58581028     0.00099057     0.00130281    -0.00044344
H         0.79627139    -0.35100387     1.90304980     0.00052187    -0.00189026     0.00039950
H        -0.96815219    -0.01512388     1.91589802     0.00046496     0.00080060     0.00032291
H        -0.96074751     0.02869317    -0.63237408    -0.00020654    -0.00130224    -0.00031274
     6
  Step:    42            Position(A)                                  Velocity(au)
C        -0.03950115    -0.01360979    -0.13098875    -0.00005047    -0.00000111    -0.00064809
N        -0.03575777    -0.02852399     1.42863019    -0.00008728     0.00008134     0.00056841
H         0.88297700     0.23967892    -0.58839134     0.00106174     0.00132481    -0.00047732
H         0.79916269    -0.36161486     1.90529474     0.00050396    -0.00191617     0.00040000
H        -0.96520609    -0.01061369     1.91752856     0.00058438     0.00081898     0.00026720
H        -0.96226521     0.02132406    -0.63426482    -0.00033581    -0.00134475    -0.00036610
     6
  Step:    43            Position(A)                                  Velocity(au)
C        -0.03976395    -0.01360808    -0.13451352    -0.00004308     0.00000202    -0.00061730
N        -0.03626137    -0.02807243     1.43175096    -0.00009187     0.00008042     0.00055149
H         0.88904625     0.24710728    -0.59112582     0.00110227     0.00133795    -0.00049799
H         0.80188358    -0.37234259     1.90750428     0.00046079    -0.00192946     0.00038672
H        -0.96164442    -0.00600360     1.91887365     0.00068404     0.00083542     0.00022061
H        -0.96448715     0.01371780    -0.63645096    -0.00045708    -0.00138546    -0.00041727
     6
  Step:    44            Position(A)                                  Velocity(au)
C        -0.03998128    -0.01358733    -0.13786806    -0.00003428     0.00000571    -0.00058628
N        -0.03678155    -0.02762779     1.43477611    -0.00009313     0.00007875     0.00053332
H         0.89526089     0.25458926    -0.59394102     0.00111304     0.00134222    -0.00050596
H         0.80429784    -0.38311711     1.90960444     0.00039449    -0.00193048     0.00036091
H        -0.95758303    -0.00130360     1.91998705     0.00076188     0.00085021     0.00018421
H        -0.96735900     0.00588419    -0.63891499    -0.00056672    -0.00142435    -0.00046431
     6