|===============================================================================
|
|  DFTB+ release 20.1
|
|  Copyright (C) 2006 - 2020  DFTB+ developers group
|
|===============================================================================
|
|  When publishing results obtained with DFTB+, please cite the following
|  reference:
|
|  * DFTB+, a software package for efficient approximate density functional
|    theory based atomistic simulations, J. Chem. Phys. 152, 124101 (2020).
|    [doi: 10.1063/1.5143190]
|
|  You should also cite additional publications crediting the parametrization
|  data you use. Please consult the documentation of the SK-files for the
|  references.
|
|===============================================================================

Reading input file 'dftb_in.hsd'
Parser version: 8

--------------------------------------------------------------------------------
Reading SK-files:
Done.


Processed input in HSD format written to 'dftb_pin.hsd'

Starting initialization...
--------------------------------------------------------------------------------
OpenMP threads:              1
Chosen random seed:          508935256
Mode:                        Static calculation
Self consistent charges:     Yes
SCC-tolerance:                 0.100000E-05
Max. scc iterations:                   1000
Shell resolved Hubbard:      No
Spin polarisation:           No
Nr. of up electrons:             6.000000
Nr. of down electrons:           6.000000
Periodic boundaries:         No
Electronic solver:           Relatively robust
Maximal SCC-cycles:                    1000
Initial charges:             Set automatically (system chrg:   0.100E+01)
Included shells:             C:  s, p
                             N:  s, p
                             H:  s
Spin coupling constants:     C   1(s)-1(s):  -0.455900E-01
                             C   1(s)-2(p):  -0.293000E-01
                             C   2(p)-1(s):  -0.293000E-01
                             C   2(p)-2(p):  -0.275500E-01
                             N   1(s)-1(s):  -0.468700E-01
                             N   1(s)-2(p):  -0.317000E-01
                             N   2(p)-1(s):  -0.317000E-01
                             N   2(p)-2(p):  -0.307200E-01
                             H   1(s)-1(s):  -0.792500E-01
Range separated hybrid:      Yes
  Screening parameter omega:   0.300000E+00
  Range separated algorithm:   MatrixBased
Extra options:
                             Mulliken analysis
                             Force calculation
Force type                   original
                             Eigenvector printing


REKS Calcuation:             Yes
SSR(2,2) Calcuation:         Yes
Energy Functional:           (PPS+OSS)/2
Number of Core Orbitals:                  5
Number of Active Orbitals:                2
Number of Basis:                         12
Number of States:                         2
State-Averaging Weight:          0.500000
                                 0.500000
State of Interest:                        1
Initial Guess:               Diagonalize H0 matrix
Newton-Raphson for FON opt:  Yes
NR max. Iterations:                      50
Level Shifting:              Yes
Shift Value:                     0.300000
W Scale Factor:              C  =    3.000000
                             N  =    3.000000
                             H  =    3.000000
Transition Dipole:           No
Gradient of Microstate:      No
CP-REKS Solver:              Preconditioned Conjugate-Gradient
CG max. Iterations:                     100
CG Tolerance:                  0.100000E-07
Memory for A and Hxc:        Direct Updating Without Saving
Non-Adiabatic Coupling:      Yes

--------------------------------------------------------------------------------

***  Geometry step: 0

  iSCC       reks energy        Diff energy         x_a       SCC error   
    1       -6.2656110496       0.0000000000     0.999803    1.19517742
    2       -6.2754009340      -0.0097898843     0.999904    0.07035512
    3       -6.2788003442      -0.0033994103     0.999941    0.02748065
    4       -6.2804965149      -0.0016961706     0.999958    0.01300597
    5       -6.2813889702      -0.0008924554     0.999966    0.00827174
    6       -6.2818613872      -0.0004724170     0.999970    0.00686005
    7       -6.2821103328      -0.0002489456     0.999972    0.00540840
    8       -6.2822407943      -0.0001304615     0.999973    0.00413135
    9       -6.2823089031      -0.0000681087     0.999974    0.00309253
   10       -6.2823444051      -0.0000355021     0.999975    0.00228466
   11       -6.2823629230      -0.0000185179     0.999975    0.00167349
   12       -6.2823726077      -0.0000096847     0.999975    0.00121916
   13       -6.2823776954      -0.0000050876     0.999975    0.00088521
   14       -6.2823803842      -0.0000026889     0.999975    0.00064155
   15       -6.2823818160      -0.0000014318     0.999975    0.00046459
   16       -6.2823825851      -0.0000007691     0.999975    0.00033644
   17       -6.2823830023      -0.0000004172     0.999975    0.00024379
   18       -6.2823832310      -0.0000002287     0.999975    0.00017684
   19       -6.2823833577      -0.0000001267     0.999975    0.00012847
   20       -6.2823834287      -0.0000000710     0.999975    0.00009350
   21       -6.2823834690      -0.0000000403     0.999975    0.00006819
   22       -6.2823834920      -0.0000000231     0.999975    0.00005380
   23       -6.2823835054      -0.0000000133     0.999975    0.00004372
   24       -6.2823835132      -0.0000000078     0.999975    0.00003539
   25       -6.2823835178      -0.0000000046     0.999975    0.00002854
   26       -6.2823835205      -0.0000000027     0.999975    0.00002295
   27       -6.2823835221      -0.0000000016     0.999975    0.00001841
   28       -6.2823835231      -0.0000000010     0.999975    0.00001473
   29       -6.2823835237      -0.0000000006     0.999975    0.00001177
   30       -6.2823835241      -0.0000000004     0.999975    0.00000938
   31       -6.2823835243      -0.0000000002     0.999975    0.00000747
   32       -6.2823835244      -0.0000000001     0.999975    0.00000594
   33       -6.2823835245      -0.0000000001     0.999975    0.00000472
   34       -6.2823835246      -0.0000000001     0.999975    0.00000375
   35       -6.2823835246      -0.0000000000     0.999975    0.00000297
   36       -6.2823835246      -0.0000000000     0.999975    0.00000235
   37       -6.2823835246      -0.0000000000     0.999975    0.00000186
   38       -6.2823835246      -0.0000000000     0.999975    0.00000147
   39       -6.2823835246      -0.0000000000     0.999975    0.00000117
   40       -6.2823835246      -0.0000000000     0.999975    0.00000092
  
--------------------------------------------------
 Final SA-REKS(2,2) energy:      -6.28238352
  
 State     Energy      FON(1)    FON(2)   Spin
  PPS   -6.41272759   1.999950  0.000050  0.00
  OSS   -6.15203946   1.000000  1.000000  0.00
 Trip   -6.22932314   1.000000  1.000000  1.00
--------------------------------------------------

 Lagrangian Wab:   0.00192725  0.00192717

--------------------------------------------------
 SSR: 2SI-2SA-REKS(2,2) Hamiltonian matrix
               PPS           OSS
   PPS    -6.41272759    0.00271192
   OSS     0.00271192   -6.15203946
--------------------------------------------------

----------------------------------------------------------------
 SSR: 2SI-2SA-REKS(2,2) states
                    E_n       C_{PPS}    C_{OSS}
 SSR state  1   -6.41275580  -0.999946   0.010401
 SSR state  2   -6.15201125  -0.010401  -0.999946
----------------------------------------------------------------

 unrelaxed SSR FONs for S0:  1.999842  0.000158

Total Energy:                       -6.4127558005 H         -174.5000 eV
Extrapolated to 0:                  -6.4127558005 H         -174.5000 eV

----------------------------------------------------------------------------------
 Solving CP-REKS equation for  1 state vector...
----------------------------------------------------------------------------------
  CG solver: Constructing Y initial guess
  CG solver: Iteration    1    eps =    0.000033856577
  CG solver: Iteration    2    eps =    0.000004205783
  CG solver: Iteration    3    eps =    0.000000294975
  CG solver: Iteration    4    eps =    0.000000015576
  CG solver: Iteration    5    eps =    0.000000005315
  Convergence reached in CG solver after    5 iterations
  CG solver: Calculating converged R, Z, Q2 matrix
----------------------------------------------------------------------------------

----------------------------------------------------------------------------------
 Solving CP-REKS equation for SI between  1 and  2 state vectors...
----------------------------------------------------------------------------------
  CG solver: Constructing Y initial guess
  CG solver: Iteration    1    eps =    0.000524450950
  CG solver: Iteration    2    eps =    0.000221434734
  CG solver: Iteration    3    eps =    0.000080035842
  CG solver: Iteration    4    eps =    0.000001409857
  CG solver: Iteration    5    eps =    0.000000188639
  CG solver: Iteration    6    eps =    0.000000008788
  Convergence reached in CG solver after    6 iterations
  CG solver: Calculating converged R, Z, Q2 matrix
----------------------------------------------------------------------------------

--------------------------------------------------
 Gradient Information
--------------------------------------------------
           1 st state (SSR)
    -0.00609904     0.01080251     0.03602303
     0.02784956     0.00617629    -0.04263918
     0.00429452    -0.00258156    -0.00787656
    -0.00683241    -0.00642819     0.00454427
    -0.01456914    -0.00623905     0.00264000
    -0.00464350    -0.00173000     0.00730845

           2 st state (SSR)
     0.00699653    -0.01567836     0.14326723
    -0.01355459     0.01598889    -0.16991860
    -0.00776794    -0.00910755     0.01164930
     0.00076881     0.00340944    -0.00341753
     0.00847448    -0.01108315    -0.00617384
     0.00508270     0.01647073     0.02459345
--------------------------------------------------
 Coupling Information
--------------------------------------------------
 between  1 and  2 states
--------------------------------------------------
 g vector - difference gradient
    -0.00652856     0.01315234    -0.05365553
     0.02078718    -0.00476091     0.06367899
     0.00614140     0.00326852    -0.00975976
    -0.00369111    -0.00499012     0.00400649
    -0.01168804     0.00238545     0.00438046
    -0.00502087    -0.00905527    -0.00865065

 h vector - derivative coupling
     0.00099216    -0.00437212    -0.00104912
     0.00387494     0.00703882     0.00122615
     0.00523269     0.00023137     0.00025371
     0.00530249    -0.00337591     0.00118849
    -0.00786983    -0.00178422    -0.00131755
    -0.00753245     0.00226205    -0.00030168

 G vector - GDV
    -0.00654778     0.01324044    -0.05362210
     0.02070208    -0.00490630     0.06363971
     0.00603123     0.00326300    -0.00976293
    -0.00380061    -0.00491882     0.00398090
    -0.01152181     0.00242205     0.00440692
    -0.00486310    -0.00910037    -0.00864250

 H vector - DCV - non-adiabatic coupling
     0.00328346    -0.01571496    -0.00830317
     0.01651619     0.02660944     0.00978160
     0.02055385     0.00114791     0.00019422
     0.02003709    -0.01334247     0.00487668
    -0.03110806    -0.00665100    -0.00470249
    -0.02928252     0.00795108    -0.00184685
--------------------------------------------------


--------------------------------------------------------------------------------
DFTB+ running times                          cpu [s]             wall clock [s]
--------------------------------------------------------------------------------
SCC                                    +     0.01  ( 62.2%)      0.01  ( 56.0%)
--------------------------------------------------------------------------------
Missing                                +     0.01  ( 37.8%)      0.01  ( 44.0%)
Total                                  =     0.02  (100.0%)      0.03  (100.0%)
--------------------------------------------------------------------------------
