     6
  Step:     0            Position(A)                                  Velocity(au)
C        -0.03615567     0.02556760     0.01923324     0.00013837    -0.00014213    -0.00032740
N        -0.04264249    -0.06965212     1.29219456    -0.00018937     0.00011335     0.00034508
H         0.92577578    -0.02670637    -0.49805818    -0.00009525     0.00071446     0.00011653
H         0.78427886     0.01228645     1.82355939     0.00134528    -0.00057330     0.00140767
H        -0.91315312    -0.00868324     1.91812818     0.00169455    -0.00042365    -0.00132347
H        -0.98643103     0.01657100    -0.53756262    -0.00196191     0.00040099    -0.00109473
     6
  Step:     1            Position(A)                                  Velocity(au)
C        -0.03541022     0.02481175     0.01730158     0.00013254    -0.00013392    -0.00037584
N        -0.04374015    -0.06905539     1.29422716    -0.00020812     0.00010471     0.00039474
H         0.92542320    -0.02284172    -0.49769516    -0.00003241     0.00069605     0.00001387
H         0.79222441     0.00926259     1.83168644     0.00152841    -0.00053334     0.00153894
H        -0.90356854    -0.01099480     1.91061681     0.00178148    -0.00041839    -0.00140087
H        -0.99723824     0.01875633    -0.54376902    -0.00196474     0.00039646    -0.00115876
     6
  Step:     2            Position(A)                                  Velocity(au)
C        -0.03470245     0.02409918     0.01511230     0.00012355    -0.00012507    -0.00041690
N        -0.04492445    -0.06850401     1.29652267    -0.00021847     0.00009581     0.00043624
H         0.92542037    -0.01907451    -0.49790610     0.00003122     0.00067214    -0.00009137
H         0.80103727     0.00643862     1.84043322     0.00164421    -0.00049511     0.00161690
H        -0.89361993    -0.01327074     1.90276829     0.00180588    -0.00040641    -0.00142962
H        -1.00797358     0.02091797    -0.55026789    -0.00191770     0.00038831    -0.00119023
     6
  Step:     3            Position(A)                                  Velocity(au)
C        -0.03404863     0.02343342     0.01270724     0.00011194    -0.00011568    -0.00044912
N        -0.04614774    -0.06799949     1.29903464    -0.00021975     0.00008673     0.00046794
H         0.92576723    -0.01543461    -0.49870210     0.00009270     0.00064287    -0.00019576
H         0.81034395     0.00380632     1.84950501     0.00169007    -0.00045841     0.00163977
H        -0.88366736    -0.01547356     1.89486209     0.00176138    -0.00038759    -0.00140482
H        -1.01837169     0.02303564    -0.55688566    -0.00182433     0.00037633    -0.00119011
     6
  Step:     4            Position(A)                                  Velocity(au)
C        -0.03346213     0.02281743     0.01013586     0.00009839    -0.00010595    -0.00047184
N        -0.04735937    -0.06754301     1.30170767    -0.00021203     0.00007761     0.00048898
H         0.92644753    -0.01195125    -0.50007520     0.00014926     0.00060911    -0.00029594
H         0.81976401     0.00135928     1.85860262     0.00166946    -0.00042326     0.00161069
H        -0.87410312    -0.01756539     1.88720226     0.00164692    -0.00036250    -0.00132579
H        -1.02818798     0.02508785    -0.56345482    -0.00169160     0.00036078    -0.00116156
     6
  Step:     5            Position(A)                                  Velocity(au)
C        -0.03295255     0.02225306     0.00745093     0.00008371    -0.00009622    -0.00048540
N        -0.04850984    -0.06713495     1.30448195    -0.00019616     0.00006866     0.00049960
H         0.92743000    -0.00864900    -0.50199895     0.00019873     0.00057245    -0.00038930
H         0.82894194    -0.00090884     1.86744833     0.00159131    -0.00039003     0.00153726
H        -0.86532047    -0.01951182     1.88009266     0.00146744    -0.00033239    -0.00119658
H        -1.03721631     0.02705477    -0.56982559    -0.00152910     0.00034248    -0.00110982
     6
  Step:     6            Position(A)                                  Velocity(au)
C        -0.03252521     0.02174043     0.00470283     0.00006867    -0.00008684    -0.00049119
N        -0.04955494    -0.06677452     1.30729955    -0.00017355     0.00006013     0.00050115
H         0.92867192    -0.00554390    -0.50443260     0.00023990     0.00053495    -0.00047450
H         0.83757518    -0.00300629     1.87580891     0.00146828    -0.00035935     0.00143017
H        -0.85767839    -0.02128572     1.87380921     0.00123301    -0.00029899    -0.00102532
H        -1.04530287     0.02892110    -0.57587679    -0.00134772     0.00032262    -0.00104152
     6
  Step:     7            Position(A)                                  Velocity(au)
C        -0.03218130     0.02127771     0.00193422     0.00005391    -0.00007815    -0.00049123
N        -0.05045909    -0.06645959     1.31011060    -0.00014594     0.00005224     0.00049582
H         0.93012436    -0.00264079    -0.50732825     0.00027251     0.00049873    -0.00055165
H         0.84543274    -0.00494480     1.88351121     0.00131412    -0.00033187     0.00130101
H        -0.85147208    -0.02286988     1.86857690     0.00095658    -0.00026416    -0.00082237
H        -1.05235305     0.03067821    -0.58152337    -0.00115763     0.00030254    -0.00096357
     6
  Step:     8            Position(A)                                  Velocity(au)
C        -0.03191867     0.02086125    -0.00082376     0.00003985    -0.00007037    -0.00048774
N        -0.05119685    -0.06618678     1.31287781    -0.00011497     0.00004514     0.00048603
H         0.93173775     0.00006708    -0.51063897     0.00029705     0.00046555    -0.00062201
H         0.85235973    -0.00674003     1.89044601     0.00114097    -0.00030812     0.00115999
H        -0.84691635    -0.02425766     1.86455708     0.00065134    -0.00022950    -0.00059822
H        -1.05832685     0.03232484    -0.58671742    -0.00096658     0.00028341    -0.00088182
     6
  Step:     9            Position(A)                                  Velocity(au)
C        -0.03173301     0.02048614    -0.00355224     0.00002667    -0.00006362    -0.00048257
N        -0.05175239    -0.06595188     1.31557780    -0.00008202     0.00003886     0.00047390
H         0.93346580     0.00259602    -0.51432500     0.00031430     0.00043646    -0.00068726
H         0.85826713    -0.00841068     1.89655949     0.00095767    -0.00028823     0.00101447
H        -0.84414537    -0.02545149     1.86184772     0.00032897    -0.00019615    -0.00036202
H        -1.06322577     0.03386613    -0.59144265    -0.00077909     0.00026597    -0.00080035
     6
  Step:    10            Position(A)                                  Velocity(au)
C        -0.03161915     0.02014687    -0.00624253     0.00001439    -0.00005788    -0.00047686
N        -0.05211781    -0.06575038     1.31819925    -0.00004812     0.00003340     0.00046091
H         0.93526700     0.00496804    -0.51835617     0.00032487     0.00041174    -0.00074880
H         0.86311338    -0.00997654     1.90183742     0.00076958    -0.00027198     0.00086878
H        -0.84322239    -0.02646020     1.86049195    -0.00000049    -0.00016473    -0.00012143
H        -1.06707525     0.03531145    -0.59570449    -0.00059681     0.00025054    -0.00072125
     6
  Step:    11            Position(A)                                  Velocity(au)
C        -0.03157190     0.01983803    -0.00889225     0.00000291    -0.00005303    -0.00047106
N        -0.05229120    -0.06557790     1.32073923    -0.00001411     0.00002866     0.00044789
H         0.93710382     0.00720675    -0.52271032     0.00032910     0.00039109    -0.00080735
H         0.86688506    -0.01145638     1.90628828     0.00057950    -0.00025886     0.00072495
H        -0.84415085    -0.02729613     1.86048795    -0.00032764    -0.00013553     0.00011674
H        -1.06990904     0.03667179    -0.59951942    -0.00041956     0.00023703    -0.00064514
     6
  Step:    12            Position(A)                                  Velocity(au)
C        -0.03158663     0.01955479    -0.01150143    -0.00000785    -0.00004896    -0.00046510
N        -0.05227539    -0.06543044     1.32319946     0.00001922     0.00002456     0.00043516
H         0.93894103     0.00933418    -0.52736949     0.00032697     0.00037387    -0.00086284
H         0.86958296    -0.01286643     1.90993074     0.00038898    -0.00024819     0.00058380
H        -0.84688014    -0.02797326     1.86179519    -0.00064303    -0.00010868     0.00034584
H        -1.07175926     0.03795768    -0.60290683    -0.00024647     0.00022515    -0.00057177
     6
  Step:    13            Position(A)                                  Velocity(au)
C        -0.03165928     0.01929305    -0.01406975    -0.00001797    -0.00004550    -0.00045863
N        -0.05207728    -0.06530454     1.32558346     0.00005111     0.00002100     0.00042279
H         0.94074369     0.01136875    -0.53231556     0.00031834     0.00035932    -0.00091460
H         0.87121527    -0.01421930     1.91278725     0.00019933    -0.00023929     0.00044587
H        -0.85130909    -0.02850599     1.86433784    -0.00093692    -0.00008424     0.00055920
H        -1.07265281     0.03917813    -0.60588448    -0.00007682     0.00021452    -0.00050067
     6
  Step:    14            Position(A)                                  Velocity(au)
C        -0.03178622     0.01904949    -0.01659492    -0.00002749    -0.00004253    -0.00045119
N        -0.05170781    -0.06519718     1.32789495     0.00008076     0.00001793     0.00041071
H         0.94247645     0.01332474    -0.53752705     0.00030305     0.00034668    -0.00096164
H         0.87179674    -0.01552397     1.91488259     0.00001223    -0.00023150     0.00031189
H        -0.85728557    -0.02890884     1.86800561    -0.00119960    -0.00006228     0.00075027
H        -1.07261237     0.04034015    -0.60846729     0.00008960     0.00020480    -0.00043145
     6
  Step:    15            Position(A)                                  Velocity(au)
C        -0.03196410     0.01882148    -0.01907208    -0.00003812    -0.00003767    -0.00049328
N        -0.05118187    -0.06510576     1.33013698     0.00010890     0.00001275     0.00043939
H         0.94410357     0.01521241    -0.54297729     0.00025871     0.00028682    -0.00096588
H         0.87135083    -0.01678596     1.91624520    -0.00019318    -0.00016425     0.00016899
H        -0.86460908    -0.02919645     1.87265609    -0.00141413    -0.00009992     0.00089373
H        -1.07165943     0.04144877    -0.61066794     0.00028947     0.00024899    -0.00032481
     6
  Step:    16            Position(A)                                  Velocity(au)
C        -0.03220849     0.01863224    -0.02205878    -0.00005002    -0.00003062    -0.00058761
N        -0.05050153    -0.06505590     1.33276192     0.00013484     0.00000533     0.00051179
H         0.94534211     0.01650175    -0.54822583     0.00018560     0.00020492    -0.00092321
H         0.86965690    -0.01734334     1.91675442    -0.00041530    -0.00006752     0.00001488
H        -0.87294940    -0.03001563     1.87790515    -0.00156993    -0.00016745     0.00097926
H        -1.06940598     0.04309811    -0.61206510     0.00052187     0.00032092    -0.00018092
     6
  Step:    17            Position(A)                                  Velocity(au)
C        -0.03251827     0.01848223    -0.02558168    -0.00006121    -0.00002368    -0.00068004
N        -0.04968809    -0.06504673     1.33580661     0.00015615    -0.00000175     0.00058473
H         0.94615964     0.01748249    -0.55320457     0.00010810     0.00015637    -0.00087004
H         0.86675019    -0.01753397     1.91641009    -0.00062422    -0.00000992    -0.00013353
H        -0.88200081    -0.03105147     1.88350430    -0.00166853    -0.00019870     0.00102295
H        -1.06587812     0.04500397    -0.61267214     0.00074397     0.00035874    -0.00004151
     6
  Step:    18            Position(A)                                  Velocity(au)
C        -0.03288742     0.01836961    -0.02960218    -0.00007100    -0.00001710    -0.00076245
N        -0.04876940    -0.06507533     1.33924803     0.00017184    -0.00000823     0.00065080
H         0.94654126     0.01823625    -0.55787675     0.00002929     0.00011912    -0.00080991
H         0.86273277    -0.01745343     1.91527322    -0.00080928     0.00003414    -0.00026756
H        -0.89145760    -0.03221974     1.88925220    -0.00170919    -0.00021797     0.00102966
H        -1.06115348     0.04707747    -0.61252552     0.00094722     0.00038288     0.00008941
     6
  Step:    19            Position(A)                                  Velocity(au)
C        -0.03330773     0.01829208    -0.03405977    -0.00007902    -0.00001099    -0.00083131
N        -0.04777731    -0.06513825     1.34304326     0.00018131    -0.00001402     0.00070681
H         0.94648538     0.01880704    -0.56221040    -0.00004801     0.00008836    -0.00074411
H         0.85775131    -0.01715435     1.91343489    -0.00096228     0.00007019    -0.00038171
H        -0.90100637    -0.03347524     1.89495369    -0.00169231    -0.00023015     0.00100135
H        -1.05534546     0.04926149    -0.61167789     0.00112472     0.00039743     0.00020837
     6
  Step:    20            Position(A)                                  Velocity(au)
C        -0.03376912     0.01824694    -0.03887752    -0.00008500    -0.00000545    -0.00088438
N        -0.04674648    -0.06523175     1.34713423     0.00018430    -0.00001906     0.00075059
H         0.94600554     0.01922213    -0.56617911    -0.00012093     0.00006199    -0.00067436
H         0.85199619    -0.01667027     1.91101434    -0.00107618     0.00010074    -0.00047126
H        -0.91033945    -0.03478762     1.90042476    -0.00162161    -0.00023728     0.00094161
H        -1.04860441     0.05151183    -0.61020061     0.00127040     0.00040435     0.00031193
     6
  Step:    21            Position(A)                                  Velocity(au)
C        -0.03425994     0.01823105    -0.04396727    -0.00008875    -0.00000054    -0.00092082
N        -0.04571262    -0.06535178     1.35145190     0.00018099    -0.00002334     0.00078116
H         0.94513060     0.01950144    -0.56976508    -0.00018685     0.00003899    -0.00060298
H         0.84569518    -0.01602577     1.90815549    -0.00114623     0.00012719    -0.00053287
H        -0.91917288    -0.03613348     1.90550233    -0.00150452    -0.00024056     0.00085598
H        -1.04111354     0.05379134    -0.60818344     0.00137994     0.00040513     0.00039721
     6
  Step:    22            Position(A)                                  Velocity(au)
C        -0.03476757     0.01824085    -0.04923703    -0.00009026     0.00000368    -0.00094147
N        -0.04471024    -0.06549429     1.35592247     0.00017198    -0.00002689     0.00079895
H         0.94390343     0.01966081    -0.57296282    -0.00024379     0.00001881    -0.00053272
H         0.83910070    -0.01523933     1.90501941    -0.00117082     0.00015064    -0.00056509
H        -0.92726578    -0.03749401     1.91005477    -0.00135139    -0.00024094     0.00075146
H        -1.03307970     0.05606962    -0.60573183     0.00145165     0.00040136     0.00046243
     6
  Step:    23            Position(A)                                  Velocity(au)
C        -0.03527928     0.01827256    -0.05460002    -0.00008966     0.00000719    -0.00094868
N        -0.04377037    -0.06565545     1.36047509     0.00015816    -0.00002982     0.00080573
H         0.94237732     0.01971384    -0.57578146    -0.00029068     0.00000104    -0.00046632
H         0.83247214    -0.01432451     1.90177354    -0.00115157     0.00017209    -0.00056852
H        -0.93443522    -0.03885463     1.91398918    -0.00117394    -0.00023936     0.00063553
H        -1.02471888     0.05832421    -0.60296091     0.00148668     0.00039484     0.00050713
     6
  Step:    24            Position(A)                                  Velocity(au)
C        -0.03578309     0.01832235    -0.05998270    -0.00008716     0.00001005    -0.00094566
N        -0.04291880    -0.06583201     1.36504896     0.00014058    -0.00003226     0.00080402
H         0.94061093     0.01967256    -0.57824478    -0.00032733    -0.00001467    -0.00040606
H         0.82605694    -0.01329003     1.89857981    -0.00109246     0.00019258    -0.00054538
H        -0.94056290    -0.04020527     1.91725335    -0.00098325    -0.00023672     0.00051493
H        -1.01624014     0.06054191    -0.59998761     0.00148809     0.00038735     0.00053203
     6
  Step:    25            Position(A)                                  Velocity(au)
C        -0.03626822     0.01838659    -0.06532941    -0.00008300     0.00001231    -0.00093555
N        -0.04217535    -0.06602147     1.36959751     0.00012021    -0.00003437     0.00079639
H         0.93866346     0.01954741    -0.58038859    -0.00035410    -0.00002868    -0.00035343
H         0.82007711    -0.01213953     1.89558567    -0.00099848     0.00021302    -0.00049868
H        -0.94559110    -0.04154040     1.91983157    -0.00078829    -0.00023373     0.00039493
H        -1.00783515     0.06271904    -0.59692450     0.00145941     0.00038043     0.00053842
     6
  Step:    26            Position(A)                                  Velocity(au)
C        -0.03672521     0.01846202    -0.07060193    -0.00007733     0.00001403    -0.00092078
N        -0.04155434    -0.06622217     1.37408854     0.00009783    -0.00003629     0.00078481
H         0.93659168     0.01934705    -0.58225643    -0.00037149    -0.00004135    -0.00030909
H         0.81472339    -0.01087205     1.89291942    -0.00087462     0.00023416    -0.00043162
H        -0.94951053    -0.04285830     1.92173610    -0.00059541    -0.00023089     0.00027911
H        -0.99967469     0.06486005    -0.59387614     0.00140351     0.00037516     0.00052758
     6
  Step:    27            Position(A)                                  Velocity(au)
C        -0.03714556     0.01854574    -0.07577540    -0.00007026     0.00001528    -0.00090280
N        -0.04106547    -0.06643312     1.37850103     0.00007409    -0.00003809     0.00077056
H         0.93444903     0.01907832    -0.58389517    -0.00037991    -0.00005299    -0.00027312
H         0.81015475    -0.00948301     1.89068901    -0.00072563     0.00025644    -0.00034740
H        -0.95234592    -0.04415982     1.92299800    -0.00040892    -0.00022842     0.00016979
H        -0.99191271     0.06697519    -0.59093918     0.00132211     0.00037218     0.00050056
     6
  Step:    28            Position(A)                                  Velocity(au)
C        -0.03752147     0.01863520    -0.08083309    -0.00006185     0.00001611    -0.00088232
N        -0.04071470    -0.06665382     1.38282107     0.00004955    -0.00003984     0.00075426
H         0.93228630     0.01874648    -0.58535165    -0.00037960    -0.00006387    -0.00024523
H         0.80650000    -0.00796584     1.88898243    -0.00055639     0.00028003    -0.00024930
H        -0.95414471    -0.04544694     1.92366033    -0.00023184    -0.00022635     0.00006855
H        -0.98469157     0.06907786    -0.58820342     0.00121635     0.00037175     0.00045825
     6
  Step:    29            Position(A)                                  Velocity(au)
C        -0.03784565     0.01872813    -0.08576225    -0.00005219     0.00001656    -0.00085964
N        -0.04050467    -0.06688401     1.38703842     0.00002477    -0.00004155     0.00073625
H         0.93015243     0.01835539    -0.58667084    -0.00037074    -0.00007416    -0.00022496
H         0.80385704    -0.00631340     1.88786721    -0.00037237     0.00030484    -0.00014093
H        -0.95497011    -0.04672181     1.92377397    -0.00006663    -0.00022458    -0.00002339
H        -0.97814508     0.07118291    -0.58575235     0.00108738     0.00037392     0.00040166
     6
  Step:    30            Position(A)                                  Velocity(au)
C        -0.03811147     0.01882244    -0.09055178    -0.00004140     0.00001666    -0.00083489
N        -0.04043466    -0.06712354     1.39114472     0.00000038    -0.00004323     0.00071670
H         0.92809491     0.01790806    -0.58789490    -0.00035354    -0.00008401    -0.00021180
H         0.80229014    -0.00451944     1.88738916    -0.00017971     0.00033061    -0.00002623
H        -0.95489804    -0.04798589     1.92339586     0.00008442    -0.00022300    -0.00010496
H        -0.97239818     0.07330521    -0.58366248     0.00093698     0.00037861     0.00033211
     6
  Step:    31            Position(A)                                  Velocity(au)
C        -0.03831326     0.01891626    -0.09519148    -0.00002971     0.00001644    -0.00080824
N        -0.04050043    -0.06737220     1.39513278    -0.00002299    -0.00004486     0.00069582
H         0.92615954     0.01740663    -0.58906285    -0.00032835    -0.00009352    -0.00020520
H         0.80182735    -0.00257955     1.88757097     0.00001489     0.00035692     0.00009061
H        -0.95401671    -0.04924041     1.92258854     0.00021910    -0.00022156    -0.00017514
H        -0.96756292     0.07545892    -0.58200148     0.00076787     0.00038565     0.00025140
     6
  Step:    32            Position(A)                                  Velocity(au)
C        -0.03844669     0.01900792    -0.09967214    -0.00001737     0.00001594    -0.00077991
N        -0.04069413    -0.06762972     1.39899652    -0.00004469    -0.00004642     0.00067385
H         0.92438974     0.01685272    -0.59021042    -0.00029566    -0.00010280    -0.00020460
H         0.80245819    -0.00049185     1.88841160     0.00020454     0.00038331     0.00020538
H        -0.95242571    -0.05048603     1.92141951     0.00033535    -0.00022016    -0.00023305
H        -0.96373343     0.07765701    -0.58082566     0.00058375     0.00039482     0.00016175
     6
  Step:    33            Position(A)                                  Velocity(au)
C        -0.03850916     0.01909598    -0.10398585    -0.00000474     0.00001520    -0.00075022
N        -0.04100432    -0.06789565     1.40273113    -0.00006409    -0.00004789     0.00065104
H         0.92282568     0.01624748    -0.59136991    -0.00025613    -0.00011190    -0.00020938
H         0.80413380     0.00174267     1.88988685     0.00038257     0.00040925     0.00031411
H        -0.95023527    -0.05172296     1.91996066     0.00043133    -0.00021875    -0.00027793
H        -0.96098056     0.07991091    -0.58017762     0.00038921     0.00040581     0.00006579
     6
  Step:    34            Position(A)                                  Velocity(au)
C        -0.03850008     0.01917924    -0.10812648     0.00000782     0.00001427    -0.00071950
N        -0.04141631    -0.06816945     1.40633318    -0.00008064    -0.00004925     0.00062765
H         0.92150341     0.01559167    -0.59257000    -0.00021057    -0.00012090    -0.00021891
H         0.80676942     0.00412002     1.89195142     0.00054294     0.00043421     0.00041330
H        -0.94756494    -0.05295112     1.91828742     0.00050548    -0.00021728    -0.00030923
H        -0.95934730     0.08223017    -0.58008421     0.00018954     0.00041828    -0.00003354
     6
  Step:    35            Position(A)                                  Velocity(au)
C        -0.03842106     0.01925676    -0.11208987     0.00001991     0.00001320    -0.00068816
N        -0.04191260    -0.06845037     1.40980055    -0.00009390    -0.00005046     0.00060393
H         0.92045390     0.01488576    -0.59383552    -0.00015999    -0.00012983    -0.00023248
H         0.81024911     0.00663331     1.89454196     0.00068063     0.00045771     0.00050005
H        -0.94454184    -0.05417025     1.91647773     0.00055663    -0.00021574    -0.00032658
H        -0.95884572     0.08462215    -0.58055540    -0.00000963     0.00043182    -0.00013322
     6
  Step:    36            Position(A)                                  Velocity(au)
C        -0.03827595     0.01932786    -0.11587399     0.00003113     0.00001203    -0.00065659
N        -0.04247347    -0.06873757     1.41313237    -0.00010354    -0.00005151     0.00058009
H         0.91970225     0.01412998    -0.59518727    -0.00010547    -0.00013875    -0.00024936
H         0.81443210     0.00927299     1.89758116     0.00079183     0.00047931     0.00057227
H        -0.94129820    -0.05538001     1.91461067     0.00058410    -0.00021414    -0.00032992
H        -0.95945575     0.08709173    -0.58158406    -0.00020262     0.00044599    -0.00023026
     6
  Step:    37            Position(A)                                  Velocity(au)
C        -0.03807068     0.01939219    -0.11947894     0.00004115     0.00001082    -0.00062517
N        -0.04307783    -0.06903006     1.41632880    -0.00010938    -0.00005238     0.00055634
H         0.91926700     0.01332431    -0.59664179    -0.00004823    -0.00014768    -0.00026881
H         0.81916020     0.01202735     1.90098211     0.00087412     0.00049869     0.00062862
H        -0.93796848    -0.05658010     1.91276492     0.00058776    -0.00021248    -0.00031945
H        -0.96112591     0.08964125    -0.58314670    -0.00038403     0.00046035    -0.00032188
     6
  Step:    38            Position(A)                                  Velocity(au)
C        -0.03781305     0.01944962    -0.12290691     0.00004966     0.00000962    -0.00059429
N        -0.04370393    -0.06932678     1.41939096    -0.00011137    -0.00005305     0.00053283
H         0.91915963     0.01246860    -0.59821132     0.00001043    -0.00015667    -0.00029007
H         0.82426561     0.01488307     1.90465286     0.00092645     0.00051563     0.00066859
H        -0.93468614    -0.05777037     1.91101700     0.00056811    -0.00021082    -0.00029572
H        -0.96377591     0.09227048    -0.58520511    -0.00054910     0.00047446    -0.00040568
     6
  Step:    39            Position(A)                                  Velocity(au)
C        -0.03751228     0.01950032    -0.12616200     0.00005644     0.00000846    -0.00056427
N        -0.04433021    -0.06962663     1.42232077    -0.00010961    -0.00005353     0.00050972
H         0.91938427     0.01156253    -0.59990379     0.00006921    -0.00016573    -0.00031239
H         0.82957859     0.01782589     1.90850077     0.00094907     0.00053004     0.00069240
H        -0.93157982    -0.05895090     1.90943937     0.00052636    -0.00020921    -0.00025964
H        -0.96730079     0.09497684    -0.58770874    -0.00069391     0.00048796    -0.00047970
     6
  Step:    40            Position(A)                                  Velocity(au)
C        -0.03717862     0.01954469    -0.12925003     0.00006136     0.00000739    -0.00053543
N        -0.04493613    -0.06992850     1.42512083    -0.00010436    -0.00005382     0.00048714
H         0.91993768     0.01060563    -0.60172295     0.00012683    -0.00017490    -0.00033505
H         0.83493431     0.02084139     1.91243626     0.00094334     0.00054196     0.00070085
H        -0.92876923    -0.06012211     1.90809834     0.00046444    -0.00020771    -0.00021246
H        -0.97157629     0.09775572    -0.59059758    -0.00081557     0.00050051    -0.00054257
     6
  Step:    41            Position(A)                                  Velocity(au)
C        -0.03682279     0.01958331    -0.13217834     0.00006438     0.00000643    -0.00050800
N        -0.04550286    -0.07023135     1.42779448    -0.00009596    -0.00005393     0.00046521
H         0.92080938     0.00959728    -0.60366860     0.00018204    -0.00018421    -0.00035740
H         0.84017851     0.02391562     1.91637593     0.00091152     0.00055153     0.00069525
H        -0.92636116    -0.06128481     1.90705204     0.00038495    -0.00020641    -0.00015578
H        -0.97646493     0.10060089    -0.59380533    -0.00091227     0.00051191    -0.00059344
     6
  Step:    42            Position(A)                                  Velocity(au)
C        -0.03645553     0.01961692    -0.13495547     0.00006554     0.00000562    -0.00048219
N        -0.04601382    -0.07053421     1.43034570    -0.00008483    -0.00005389     0.00044407
H         0.92198217     0.00853674    -0.60573696     0.00023371    -0.00019370    -0.00037884
H         0.84517173     0.02703571     1.92024468     0.00085646     0.00055900     0.00067719
H        -0.92444583    -0.06244027     1.90634870     0.00029107    -0.00020539    -0.00009147
H        -0.98182217     0.10350508    -0.59726256    -0.00098329     0.00052201    -0.00063201
     6
  Step:    43            Position(A)                                  Velocity(au)
C        -0.03608716     0.01964637    -0.13759087     0.00006493     0.00000496    -0.00045812
N        -0.04645512    -0.07083626     1.43277909    -0.00007150    -0.00005371     0.00042380
H         0.92343275     0.00742307    -0.60792100     0.00028083    -0.00020339    -0.00039883
H         0.84979218     0.03019036     1.92397731     0.00078142     0.00056468     0.00064848
H        -0.92309392    -0.06359024     1.90602532     0.00018645    -0.00020473    -0.00002158
H        -0.98750225     0.10646042    -0.60089954    -0.00102881     0.00053075    -0.00065843
     6
  Step:    44            Position(A)                                  Velocity(au)
C        -0.03572719     0.01967258    -0.14009450     0.00006271     0.00000447    -0.00043585
N        -0.04681587    -0.07113677     1.43509980    -0.00005648    -0.00005343     0.00040450
H         0.92513251     0.00625518    -0.61021097     0.00032254    -0.00021334    -0.00041694
H         0.85393748     0.03337021     1.92751923     0.00068983     0.00056894     0.00061101
H        -0.92235433    -0.06473690     1.90610661     0.00007503    -0.00020451     0.00005168
H        -0.99336312     0.10945891    -0.60464869    -0.00104979     0.00053815    -0.00067322
     6