 Fermi distribution function

Calculation with static geometry


********************************************************************************
 iSCC Total electronic   Diff electronic      SCC error    
   13   -0.52636243E+01   -0.10362164E-08    0.18460051E-06
********************************************************************************

 Total charge:     1.00000000

 Atomic gross charges (e)
 Atom           Charge
    1       0.30146914
    2      -0.18722645
    3       0.18708151
    4       0.26546631
    5       0.25778611
    6       0.17542337

Nr. of electrons (up):     12.00000000
Atom populations (up)
 Atom       Population
    1       3.69853086
    2       5.18722645
    3       0.81291849
    4       0.73453369
    5       0.74221389
    6       0.82457663

l-shell populations (up)
 Atom Sh.   l       Population
    1   1   0       1.41102095
    1   2   1       2.28750991
    2   1   0       1.52737147
    2   2   1       3.65985498
    3   1   0       0.81291849
    4   1   0       0.73453369
    5   1   0       0.74221389
    6   1   0       0.82457663

Orbital populations (up)
 Atom Sh.   l   m       Population  Label
    1   1   0   0       1.41102095  s
    1   2   1  -1       0.41474518  p_y
    1   2   1   0       0.87169068  p_z
    1   2   1   1       1.00107406  p_x
    2   1   0   0       1.52737147  s
    2   2   1  -1       1.34100139  p_y
    2   2   1   0       1.11672387  p_z
    2   2   1   1       1.20212973  p_x
    3   1   0   0       0.81291849  s
    4   1   0   0       0.73453369  s
    5   1   0   0       0.74221389  s
    6   1   0   0       0.82457663  s

Fermi level:                        -0.5201097267 H          -14.1529 eV
Band energy:                        -8.6713070943 H         -235.9583 eV
TS:                                  0.0000000000 H            0.0000 eV
Band free energy (E-TS):            -8.6713070943 H         -235.9583 eV
Extrapolated E(0K):                 -8.6713070943 H         -235.9583 eV
Input / Output electrons (q):     12.0000000000     12.0000000000

Energy H0:                          -5.4005905424 H         -146.9575 eV
Energy SCC:                          0.1369662280 H            3.7270 eV
Total Electronic energy:            -5.2636243145 H         -143.2305 eV
Repulsive energy:                    0.1349648557 H            3.6726 eV
Total energy:                       -5.1286594588 H         -139.5579 eV
Extrapolated to 0:                  -5.1286594588 H         -139.5579 eV
Total Mermin free energy:           -5.1286594588 H         -139.5579 eV
Force related energy:               -5.1286594588 H         -139.5579 eV

SCC converged

Excitation Energy:                   0.0962852555 H            2.6201 eV

Total Forces
    1      0.000089024988     -0.008195817534      0.035305982925
    2      0.007056851519     -0.008438399144     -0.044315760615
    3     -0.001590763928      0.012138791805     -0.001104217752
    4     -0.007825106015     -0.001901024608      0.001100473637
    5     -0.002311025235      0.009954024549      0.007339505006
    6      0.004581018671     -0.003557575068      0.001674016798

Maximal derivative component:        0.443158E-01 au


