    14
  Step:   600            Position(A)                                  Velocity(au)
C        -6.01815335    -0.91493802     0.07506404    -0.00050997    -0.00002151    -0.00019313
C        -4.75940817    -0.61649701     0.15002747    -0.00002452    -0.00028374    -0.00003641
H        -7.01831729    -0.20003050    -0.15667821    -0.00092234     0.00068798     0.00023987
H        -6.20371710    -2.07638893    -0.11931429     0.00362032    -0.00019885     0.00051613
H        -4.10380860    -1.45966339     0.43329594    -0.00178639    -0.00119686     0.00039118
C        -3.88701095     0.52044499    -0.25786617     0.00017003     0.00001506     0.00068615
C        -2.54635869     0.49490743     0.00022224     0.00019556    -0.00002216    -0.00041684
H        -4.20824360     1.60552567    -0.43844004    -0.00194518     0.00049877    -0.00101356
H        -1.91103374    -0.44473687     0.10943376    -0.00280615    -0.00083266    -0.00222135
C        -1.80242231     1.72381804     0.02938744     0.00053683     0.00021088     0.00021694
H        -2.19862700     2.72060068    -0.25741239     0.00052097     0.00115041    -0.00267800
N        -0.53041335     1.79099267     0.30054489    -0.00029093    -0.00003859     0.00015034
H        -0.25992871     2.39367822     1.09400995     0.00143824     0.00134219    -0.00177174
H        -0.13407528     0.82275386     0.21041690     0.00153913     0.00029449     0.00138934
