 Fermi distribution function

Calculation with static geometry


********************************************************************************
 iSCC Total electronic   Diff electronic      SCC error    
   14   -0.52485481E+01   -0.14388490E-12    0.27028646E-09
********************************************************************************

 Total charge:     1.00000000

 Atomic gross charges (e)
 Atom           Charge
    1       0.30004723
    2      -0.18220630
    3       0.18455313
    4       0.25589380
    5       0.25737394
    6       0.18433821

Nr. of electrons (up):     12.00000000
Atom populations (up)
 Atom       Population
    1       3.69995277
    2       5.18220630
    3       0.81544687
    4       0.74410620
    5       0.74262606
    6       0.81566179

l-shell populations (up)
 Atom Sh.   l       Population
    1   1   0       1.42679210
    1   2   1       2.27316067
    2   1   0       1.54301060
    2   2   1       3.63919570
    3   1   0       0.81544687
    4   1   0       0.74410620
    5   1   0       0.74262606
    6   1   0       0.81566179

Orbital populations (up)
 Atom Sh.   l   m       Population  Label
    1   1   0   0       1.42679210  s
    1   2   1  -1       0.38082600  p_y
    1   2   1   0       0.87320615  p_z
    1   2   1   1       1.01912852  p_x
    2   1   0   0       1.54301060  s
    2   2   1  -1       1.36887725  p_y
    2   2   1   0       1.11111158  p_z
    2   2   1   1       1.15920688  p_x
    3   1   0   0       0.81544687  s
    4   1   0   0       0.74410620  s
    5   1   0   0       0.74262606  s
    6   1   0   0       0.81566179  s

Fermi level:                        -0.5254937814 H          -14.2994 eV
Band energy:                        -8.6462929961 H         -235.2776 eV
TS:                                  0.0000000000 H            0.0000 eV
Band free energy (E-TS):            -8.6462929961 H         -235.2776 eV
Extrapolated E(0K):                 -8.6462929961 H         -235.2776 eV
Input / Output electrons (q):     12.0000000000     12.0000000000

Energy H0:                          -5.3860326076 H         -146.5614 eV
Energy SCC:                          0.1374845345 H            3.7411 eV
Total Electronic energy:            -5.2485480731 H         -142.8203 eV
Repulsive energy:                    0.1330015005 H            3.6192 eV
Total energy:                       -5.1155465726 H         -139.2011 eV
Extrapolated to 0:                  -5.1155465726 H         -139.2011 eV
Total Mermin free energy:           -5.1155465726 H         -139.2011 eV
Force related energy:               -5.1155465726 H         -139.2011 eV

SCC converged

Excitation Energy:                   0.0956484736 H            2.6027 eV

Total Forces
    1     -0.000992081609     -0.004903699386      0.008813844566
    2      0.001815734895     -0.008362569142     -0.020189618707
    3      0.001188580092      0.002401310529      0.000080851874
    4      0.001874901553      0.004511973324      0.007746828461
    5     -0.001670790228      0.001067303381      0.005954663641
    6     -0.002216344703      0.005285681294     -0.002406569837

Maximal derivative component:        0.201896E-01 au


