|===============================================================================
|
|  DFTB+ release 20.1
|
|  Copyright (C) 2006 - 2020  DFTB+ developers group
|
|===============================================================================
|
|  When publishing results obtained with DFTB+, please cite the following
|  reference:
|
|  * DFTB+, a software package for efficient approximate density functional
|    theory based atomistic simulations, J. Chem. Phys. 152, 124101 (2020).
|    [doi: 10.1063/1.5143190]
|
|  You should also cite additional publications crediting the parametrization
|  data you use. Please consult the documentation of the SK-files for the
|  references.
|
|===============================================================================

Reading input file 'dftb_in.hsd'
Parser version: 8

--------------------------------------------------------------------------------
Reading SK-files:
Done.


Processed input in HSD format written to 'dftb_pin.hsd'

Starting initialization...
--------------------------------------------------------------------------------
OpenMP threads:              1
Chosen random seed:          500197623
Mode:                        Static calculation
Self consistent charges:     Yes
SCC-tolerance:                 0.100000E-05
Max. scc iterations:                   1000
Shell resolved Hubbard:      No
Spin polarisation:           No
Nr. of up electrons:            16.000000
Nr. of down electrons:          16.000000
Periodic boundaries:         No
Electronic solver:           Relatively robust
Maximal SCC-cycles:                    1000
Initial charges:             Set automatically (system chrg:   0.100E+01)
Included shells:             C:  s, p
                             H:  s
                             N:  s, p
Spin coupling constants:     C   1(s)-1(s):  -0.455900E-01
                             C   1(s)-2(p):  -0.293000E-01
                             C   2(p)-1(s):  -0.293000E-01
                             C   2(p)-2(p):  -0.275500E-01
                             H   1(s)-1(s):  -0.792500E-01
                             N   1(s)-1(s):  -0.468700E-01
                             N   1(s)-2(p):  -0.317000E-01
                             N   2(p)-1(s):  -0.317000E-01
                             N   2(p)-2(p):  -0.307200E-01
Range separated hybrid:      Yes
  Screening parameter omega:   0.300000E+00
  Range separated algorithm:   MatrixBased
Extra options:
                             Mulliken analysis
                             Force calculation
Force type                   original
                             Eigenvector printing


REKS Calcuation:             Yes
SSR(2,2) Calcuation:         Yes
Energy Functional:           (PPS+OSS)/2
Number of Core Orbitals:                 15
Number of Active Orbitals:                2
Number of Basis:                         32
Number of States:                         2
State-Averaging Weight:          0.500000
                                 0.500000
State of Interest:                        1
Initial Guess:               Diagonalize H0 matrix
Newton-Raphson for FON opt:  Yes
NR max. Iterations:                      50
Level Shifting:              Yes
Shift Value:                     0.300000
W Scale Factor:              C  =    3.200000
                             H  =    3.200000
                             N  =    3.200000
Transition Dipole:           No
Gradient of Microstate:      No
CP-REKS Solver:              Preconditioned Conjugate-Gradient
CG max. Iterations:                     100
CG Tolerance:                  0.100000E-07
Memory for A and Hxc:        Direct Updating Without Saving
Non-Adiabatic Coupling:      Yes

--------------------------------------------------------------------------------

***  Geometry step: 0

  iSCC       reks energy        Diff energy         x_a       SCC error   
    1      -16.3736226550       0.0000000000     0.993876    1.18399002
    2      -16.3970600206      -0.0234373656     0.998860    0.06651482
    3      -16.4016271458      -0.0045671252     0.999572    0.02693943
    4      -16.4032682052      -0.0016410594     0.999765    0.01271639
    5      -16.4040273436      -0.0007591384     0.999845    0.00706542
    6      -16.4044318785      -0.0004045349     0.999885    0.00433683
    7      -16.4046692069      -0.0002373284     0.999908    0.00316671
    8      -16.4048187770      -0.0001495701     0.999922    0.00255415
    9      -16.4049187936      -0.0001000167     0.999932    0.00208409
   10      -16.4049892454      -0.0000704518     0.999939    0.00177127
   11      -16.4050411908      -0.0000519454     0.999945    0.00152335
   12      -16.4050810051      -0.0000398143     0.999949    0.00132462
   13      -16.4051124980      -0.0000314929     0.999952    0.00116323
   14      -16.4051380285      -0.0000255305     0.999955    0.00103034
   15      -16.4051591132      -0.0000210847     0.999957    0.00096211
   16      -16.4051767664      -0.0000176532     0.999959    0.00092741
   17      -16.4051916941      -0.0000149277     0.999960    0.00088691
   18      -16.4052044074      -0.0000127133     0.999962    0.00084325
   19      -16.4052152901      -0.0000108827     0.999963    0.00079826
   20      -16.4052246394      -0.0000093493     0.999964    0.00075318
   21      -16.4052326919      -0.0000080525     0.999965    0.00070885
   22      -16.4052396399      -0.0000069480     0.999966    0.00066582
   23      -16.4052456423      -0.0000060024     0.999967    0.00062444
   24      -16.4052508322      -0.0000051899     0.999968    0.00058493
   25      -16.4052553221      -0.0000044899     0.999969    0.00054738
   26      -16.4052592079      -0.0000038858     0.999969    0.00051184
   27      -16.4052625715      -0.0000033636     0.999970    0.00047831
   28      -16.4052654835      -0.0000029120     0.999971    0.00044674
   29      -16.4052680045      -0.0000025210     0.999971    0.00041707
   30      -16.4052701871      -0.0000021825     0.999972    0.00038924
   31      -16.4052720764      -0.0000018894     0.999972    0.00036315
   32      -16.4052737119      -0.0000016354     0.999972    0.00033871
   33      -16.4052751274      -0.0000014155     0.999973    0.00031585
   34      -16.4052763524      -0.0000012250     0.999973    0.00029448
   35      -16.4052774124      -0.0000010600     0.999973    0.00027450
   36      -16.4052783295      -0.0000009171     0.999974    0.00025584
   37      -16.4052791229      -0.0000007934     0.999974    0.00023841
   38      -16.4052798092      -0.0000006863     0.999974    0.00022214
   39      -16.4052804027      -0.0000005936     0.999974    0.00020695
   40      -16.4052809160      -0.0000005133     0.999975    0.00019279
   41      -16.4052813599      -0.0000004438     0.999975    0.00017957
   42      -16.4052817436      -0.0000003838     0.999975    0.00016724
   43      -16.4052820754      -0.0000003318     0.999975    0.00015575
   44      -16.4052823622      -0.0000002868     0.999975    0.00014503
   45      -16.4052826101      -0.0000002479     0.999975    0.00013504
   46      -16.4052828243      -0.0000002143     0.999976    0.00012573
   47      -16.4052830095      -0.0000001852     0.999976    0.00011706
   48      -16.4052831695      -0.0000001600     0.999976    0.00010897
   49      -16.4052833078      -0.0000001383     0.999976    0.00010144
   50      -16.4052834272      -0.0000001195     0.999976    0.00009442
   51      -16.4052835305      -0.0000001032     0.999976    0.00008788
   52      -16.4052836196      -0.0000000892     0.999976    0.00008180
   53      -16.4052836967      -0.0000000770     0.999976    0.00007612
   54      -16.4052837633      -0.0000000666     0.999976    0.00007084
   55      -16.4052838208      -0.0000000575     0.999976    0.00006592
   56      -16.4052838704      -0.0000000497     0.999977    0.00006134
   57      -16.4052839133      -0.0000000429     0.999977    0.00005708
   58      -16.4052839504      -0.0000000371     0.999977    0.00005311
   59      -16.4052839824      -0.0000000320     0.999977    0.00004942
   60      -16.4052840100      -0.0000000276     0.999977    0.00004598
   61      -16.4052840339      -0.0000000239     0.999977    0.00004277
   62      -16.4052840545      -0.0000000206     0.999977    0.00003979
   63      -16.4052840724      -0.0000000178     0.999977    0.00003702
   64      -16.4052840877      -0.0000000154     0.999977    0.00003444
   65      -16.4052841010      -0.0000000133     0.999977    0.00003204
   66      -16.4052841125      -0.0000000115     0.999977    0.00002980
   67      -16.4052841224      -0.0000000099     0.999977    0.00002772
   68      -16.4052841310      -0.0000000086     0.999977    0.00002578
   69      -16.4052841383      -0.0000000074     0.999977    0.00002398
   70      -16.4052841447      -0.0000000064     0.999977    0.00002231
   71      -16.4052841502      -0.0000000055     0.999977    0.00002075
   72      -16.4052841550      -0.0000000048     0.999977    0.00001930
   73      -16.4052841591      -0.0000000041     0.999977    0.00001795
   74      -16.4052841627      -0.0000000035     0.999977    0.00001669
   75      -16.4052841657      -0.0000000031     0.999977    0.00001552
   76      -16.4052841684      -0.0000000026     0.999977    0.00001444
   77      -16.4052841706      -0.0000000023     0.999977    0.00001343
   78      -16.4052841726      -0.0000000020     0.999977    0.00001248
   79      -16.4052841743      -0.0000000017     0.999977    0.00001161
   80      -16.4052841758      -0.0000000015     0.999977    0.00001080
   81      -16.4052841771      -0.0000000013     0.999977    0.00001004
   82      -16.4052841782      -0.0000000011     0.999977    0.00000934
   83      -16.4052841791      -0.0000000009     0.999977    0.00000868
   84      -16.4052841799      -0.0000000008     0.999977    0.00000807
   85      -16.4052841806      -0.0000000007     0.999977    0.00000751
   86      -16.4052841812      -0.0000000006     0.999977    0.00000698
   87      -16.4052841818      -0.0000000005     0.999977    0.00000649
   88      -16.4052841822      -0.0000000005     0.999977    0.00000603
   89      -16.4052841826      -0.0000000004     0.999977    0.00000561
   90      -16.4052841830      -0.0000000003     0.999977    0.00000522
   91      -16.4052841833      -0.0000000003     0.999977    0.00000485
   92      -16.4052841835      -0.0000000003     0.999977    0.00000451
   93      -16.4052841837      -0.0000000002     0.999977    0.00000419
   94      -16.4052841839      -0.0000000002     0.999977    0.00000390
   95      -16.4052841841      -0.0000000002     0.999977    0.00000363
   96      -16.4052841842      -0.0000000001     0.999977    0.00000337
   97      -16.4052841843      -0.0000000001     0.999977    0.00000313
   98      -16.4052841844      -0.0000000001     0.999977    0.00000291
   99      -16.4052841845      -0.0000000001     0.999977    0.00000271
  100      -16.4052841846      -0.0000000001     0.999977    0.00000252
  101      -16.4052841847      -0.0000000001     0.999977    0.00000234
  102      -16.4052841847      -0.0000000001     0.999977    0.00000218
  103      -16.4052841848      -0.0000000001     0.999977    0.00000202
  104      -16.4052841848      -0.0000000000     0.999977    0.00000188
  105      -16.4052841849      -0.0000000000     0.999977    0.00000175
  106      -16.4052841849      -0.0000000000     0.999977    0.00000163
  107      -16.4052841849      -0.0000000000     0.999977    0.00000151
  108      -16.4052841850      -0.0000000000     0.999977    0.00000141
  109      -16.4052841850      -0.0000000000     0.999977    0.00000131
  110      -16.4052841850      -0.0000000000     0.999977    0.00000121
  111      -16.4052841850      -0.0000000000     0.999977    0.00000113
  112      -16.4052841850      -0.0000000000     0.999977    0.00000105
  113      -16.4052841850      -0.0000000000     0.999977    0.00000098
  
--------------------------------------------------
 Final SA-REKS(2,2) energy:     -16.40528419
  
 State     Energy      FON(1)    FON(2)   Spin
  PPS  -16.47243550   1.999955  0.000045  0.00
  OSS  -16.33813287   1.000000  1.000000  0.00
 Trip  -16.38244080   1.000000  1.000000  1.00
--------------------------------------------------

 Lagrangian Wab:   0.00658697  0.00658625

--------------------------------------------------
 SSR: 2SI-2SA-REKS(2,2) Hamiltonian matrix
               PPS           OSS
   PPS   -16.47243550    0.00927090
   OSS     0.00927090  -16.33813287
--------------------------------------------------

----------------------------------------------------------------
 SSR: 2SI-2SA-REKS(2,2) states
                    E_n       C_{PPS}    C_{OSS}
 SSR state  1  -16.47307245  -0.997648   0.068542
 SSR state  2  -16.33749592  -0.068542  -0.997648
----------------------------------------------------------------

 unrelaxed SSR FONs for S0:  1.995257  0.004743

Total Energy:                      -16.4730724522 H         -448.2551 eV
Extrapolated to 0:                 -16.4730724522 H         -448.2551 eV

----------------------------------------------------------------------------------
 Solving CP-REKS equation for  1 state vector...
----------------------------------------------------------------------------------
  CG solver: Constructing Y initial guess
  CG solver: Iteration    1    eps =    0.000142359217
  CG solver: Iteration    2    eps =    0.000033967523
  CG solver: Iteration    3    eps =    0.000030269758
  CG solver: Iteration    4    eps =    0.000013046991
  CG solver: Iteration    5    eps =    0.000001452808
  CG solver: Iteration    6    eps =    0.000000810041
  CG solver: Iteration    7    eps =    0.000000118189
  CG solver: Iteration    8    eps =    0.000000058636
  CG solver: Iteration    9    eps =    0.000000015031
  CG solver: Iteration   10    eps =    0.000000002551
  Convergence reached in CG solver after   10 iterations
  CG solver: Calculating converged R, Z, Q2 matrix
----------------------------------------------------------------------------------

----------------------------------------------------------------------------------
 Solving CP-REKS equation for SI between  1 and  2 state vectors...
----------------------------------------------------------------------------------
  CG solver: Constructing Y initial guess
  CG solver: Iteration    1    eps =    0.039366980471
  CG solver: Iteration    2    eps =    0.004146747518
  CG solver: Iteration    3    eps =    0.003927014547
  CG solver: Iteration    4    eps =    0.001276006097
  CG solver: Iteration    5    eps =    0.000096238027
  CG solver: Iteration    6    eps =    0.000029991422
  CG solver: Iteration    7    eps =    0.000006152854
  CG solver: Iteration    8    eps =    0.000001103563
  CG solver: Iteration    9    eps =    0.000001126321
  CG solver: Iteration   10    eps =    0.000000102589
  CG solver: Iteration   11    eps =    0.000000010677
  CG solver: Iteration   12    eps =    0.000000002237
  Convergence reached in CG solver after   12 iterations
  CG solver: Calculating converged R, Z, Q2 matrix
----------------------------------------------------------------------------------

--------------------------------------------------
 Gradient Information
--------------------------------------------------
           1 st state (SSR)
    -0.01485100     0.03044854    -0.04147614
     0.05274129     0.04121877     0.07433938
     0.01022552    -0.01592718     0.01587806
    -0.02008499    -0.01016860    -0.01765904
    -0.00798755    -0.02184934    -0.01517122
    -0.01210344    -0.07265901     0.05533352
    -0.01702553     0.02756842    -0.02466293
     0.00515384     0.00857971    -0.03153094
     0.00683408     0.00472138    -0.00235551
     0.02418418     0.02806470     0.03534034
     0.00688964     0.00756149    -0.04141779
    -0.00109925     0.00585779     0.00263656
    -0.02290274    -0.02137178     0.00380394
    -0.00997404    -0.01204489    -0.01305823

           2 st state (SSR)
     0.01578785     0.02551291    -0.02795100
     0.01168458     0.03068788     0.06825280
     0.01265242    -0.01655666     0.01215136
    -0.02198466    -0.00901246    -0.01266032
    -0.00713341    -0.02148668    -0.02061987
     0.04602497    -0.04629589     0.04569421
    -0.05475500     0.02328186    -0.03051823
     0.00475618     0.01141122    -0.02908926
     0.00491362     0.00966737     0.00204199
     0.09331438    -0.00160189     0.08682812
     0.00233992     0.01626151    -0.03641612
    -0.07695635     0.01414274    -0.04944609
    -0.01699526    -0.02112045     0.00039679
    -0.01364922    -0.01489147    -0.00866438
--------------------------------------------------
 Coupling Information
--------------------------------------------------
 between  1 and  2 states
--------------------------------------------------
 g vector - difference gradient
    -0.01828246     0.00262420    -0.00869034
     0.02551502     0.00911277     0.00456492
    -0.00140596     0.00027710     0.00215429
     0.00113035    -0.00054235    -0.00266358
    -0.00028383     0.00000399     0.00261136
    -0.04204298    -0.02041481     0.00564760
     0.03171856     0.00844303    -0.00064590
     0.00026845    -0.00149499    -0.00134587
     0.00078467    -0.00179546    -0.00165490
    -0.02985154     0.00920793    -0.01819750
     0.00163305    -0.00323131    -0.00176307
     0.03161907    -0.00316625     0.02047470
    -0.00210650    -0.00019333     0.00108697
     0.00130409     0.00116950    -0.00157867

 h vector - derivative coupling
    -0.02040950     0.00096315    -0.01349871
     0.03470924     0.02750532     0.01081242
    -0.00131100    -0.00029428     0.00197931
     0.00124225     0.00029842    -0.00101775
     0.00106687     0.00135478    -0.00100541
    -0.09201156    -0.05148658     0.00566590
     0.09180720     0.04548333    -0.02608522
     0.00049058    -0.00047664    -0.00082176
    -0.00133761     0.00507744     0.00409028
     0.03651620    -0.04176498     0.05642901
    -0.00480505     0.00840186     0.00551562
    -0.04830687     0.00735568    -0.04210955
     0.00633975    -0.00048148    -0.00458323
    -0.00399049    -0.00193603     0.00462908

 G vector - GDV
    -0.01531942     0.00246781    -0.00676257
     0.02052836     0.00526544     0.00304329
    -0.00121345     0.00031474     0.00186335
     0.00094983    -0.00057807    -0.00249936
    -0.00042707    -0.00018133     0.00272432
    -0.02906420    -0.01318156     0.00481965
     0.01886474     0.00214328     0.00292765
     0.00019883    -0.00141576    -0.00122084
     0.00096023    -0.00247299    -0.00219875
    -0.03456510     0.01483329    -0.02574389
     0.00227486    -0.00435001    -0.00250084
     0.03792855    -0.00414248     0.02604132
    -0.00295374    -0.00012566     0.00170357
     0.00183759     0.00142329    -0.00219692

 H vector - DCV - non-adiabatic coupling
    -0.16756649     0.00968453    -0.10739606
     0.27934482     0.21016291     0.08360692
    -0.01099724    -0.00187066     0.01663517
     0.01021683     0.00163336    -0.01012316
     0.00750888     0.00990290    -0.00471189
    -0.71470270    -0.39678536     0.04709549
     0.70279477     0.34084552    -0.19124586
     0.00385530    -0.00499067    -0.00736192
    -0.00898182     0.03528763     0.02821664
     0.23669671    -0.29587162     0.39394768
    -0.03346127     0.05812949     0.03852195
    -0.32106343     0.05055107    -0.28702397
     0.04419708    -0.00371302    -0.03239133
    -0.02784144    -0.01296607     0.03223034
--------------------------------------------------


--------------------------------------------------------------------------------
DFTB+ running times                          cpu [s]             wall clock [s]
--------------------------------------------------------------------------------
SCC                                    +     0.16  ( 34.1%)      0.17  ( 34.3%)
      Dense to sparse                        0.03  (  6.3%)      0.02  (  4.8%)
      Range separated Hamiltonian            0.01  (  3.0%)      0.02  (  3.1%)
  Density matrix creation                    0.02  (  3.7%)      0.02  (  3.7%)
Post-SCC processing                    +     0.31  ( 65.6%)      0.31  ( 65.1%)
  Force calculation                          0.31  ( 65.5%)      0.31  ( 64.9%)
--------------------------------------------------------------------------------
Missing                                +     0.00  (  0.4%)      0.00  (  0.6%)
Total                                  =     0.47  (100.0%)      0.48  (100.0%)
--------------------------------------------------------------------------------
