 Fermi distribution function

Calculation with static geometry


********************************************************************************
 iSCC Total electronic   Diff electronic      SCC error    
   13   -0.52980451E+01   -0.28821390E-11    0.23815083E-08
********************************************************************************

 Total charge:     1.00000000

 Atomic gross charges (e)
 Atom           Charge
    1       0.31328082
    2      -0.20002049
    3       0.16745263
    4       0.25918860
    5       0.27941835
    6       0.18068009

Nr. of electrons (up):     12.00000000
Atom populations (up)
 Atom       Population
    1       3.68671918
    2       5.20002049
    3       0.83254737
    4       0.74081140
    5       0.72058165
    6       0.81931991

l-shell populations (up)
 Atom Sh.   l       Population
    1   1   0       1.37965472
    1   2   1       2.30706447
    2   1   0       1.50114081
    2   2   1       3.69887968
    3   1   0       0.83254737
    4   1   0       0.74081140
    5   1   0       0.72058165
    6   1   0       0.81931991

Orbital populations (up)
 Atom Sh.   l   m       Population  Label
    1   1   0   0       1.37965472  s
    1   2   1  -1       0.44934496  p_y
    1   2   1   0       0.87156839  p_z
    1   2   1   1       0.98615111  p_x
    2   1   0   0       1.50114081  s
    2   2   1  -1       1.34894688  p_y
    2   2   1   0       1.08076878  p_z
    2   2   1   1       1.26916402  p_x
    3   1   0   0       0.83254737  s
    4   1   0   0       0.74081140  s
    5   1   0   0       0.72058165  s
    6   1   0   0       0.81931991  s

Fermi level:                        -0.5104997705 H          -13.8914 eV
Band energy:                        -8.7157729260 H         -237.1682 eV
TS:                                  0.0000000000 H            0.0000 eV
Band free energy (E-TS):            -8.7157729260 H         -237.1682 eV
Extrapolated E(0K):                 -8.7157729260 H         -237.1682 eV
Input / Output electrons (q):     12.0000000000     12.0000000000

Energy H0:                          -5.4341940360 H         -147.8719 eV
Energy SCC:                          0.1361489270 H            3.7048 eV
Total Electronic energy:            -5.2980451090 H         -144.1671 eV
Repulsive energy:                    0.1452515636 H            3.9525 eV
Total energy:                       -5.1527935453 H         -140.2146 eV
Extrapolated to 0:                  -5.1527935453 H         -140.2146 eV
Total Mermin free energy:           -5.1527935453 H         -140.2146 eV
Force related energy:               -5.1527935453 H         -140.2146 eV

SCC converged

Excitation Energy:                   0.0987684676 H            2.6876 eV

Total Forces
    1      0.009119195519     -0.001387594164      0.069687025140
    2     -0.002168417620      0.014059281550     -0.069970366722
    3     -0.006425999552      0.008813873556      0.001675588463
    4     -0.007966060317     -0.013947202344     -0.000181888242
    5      0.010575103493      0.005822741435      0.001335093981
    6     -0.003133821522     -0.013361100033     -0.002545452620

Maximal derivative component:        0.699704E-01 au


