|===============================================================================
|
|  DFTB+ release 20.1
|
|  Copyright (C) 2006 - 2020  DFTB+ developers group
|
|===============================================================================
|
|  When publishing results obtained with DFTB+, please cite the following
|  reference:
|
|  * DFTB+, a software package for efficient approximate density functional
|    theory based atomistic simulations, J. Chem. Phys. 152, 124101 (2020).
|    [doi: 10.1063/1.5143190]
|
|  You should also cite additional publications crediting the parametrization
|  data you use. Please consult the documentation of the SK-files for the
|  references.
|
|===============================================================================

Reading input file 'dftb_in.hsd'
Parser version: 8

--------------------------------------------------------------------------------
Reading SK-files:
Done.


Processed input in HSD format written to 'dftb_pin.hsd'

Starting initialization...
--------------------------------------------------------------------------------
OpenMP threads:              1
Chosen random seed:          510721925
Mode:                        Static calculation
Self consistent charges:     Yes
SCC-tolerance:                 0.100000E-05
Max. scc iterations:                   1000
Shell resolved Hubbard:      No
Spin polarisation:           No
Nr. of up electrons:             6.000000
Nr. of down electrons:           6.000000
Periodic boundaries:         No
Electronic solver:           Relatively robust
Maximal SCC-cycles:                    1000
Initial charges:             Set automatically (system chrg:   0.100E+01)
Included shells:             C:  s, p
                             N:  s, p
                             H:  s
Spin coupling constants:     C   1(s)-1(s):  -0.455900E-01
                             C   1(s)-2(p):  -0.293000E-01
                             C   2(p)-1(s):  -0.293000E-01
                             C   2(p)-2(p):  -0.275500E-01
                             N   1(s)-1(s):  -0.468700E-01
                             N   1(s)-2(p):  -0.317000E-01
                             N   2(p)-1(s):  -0.317000E-01
                             N   2(p)-2(p):  -0.307200E-01
                             H   1(s)-1(s):  -0.792500E-01
Range separated hybrid:      Yes
  Screening parameter omega:   0.300000E+00
  Range separated algorithm:   MatrixBased
Extra options:
                             Mulliken analysis
                             Force calculation
Force type                   original
                             Eigenvector printing


REKS Calcuation:             Yes
SSR(2,2) Calcuation:         Yes
Energy Functional:           (PPS+OSS)/2
Number of Core Orbitals:                  5
Number of Active Orbitals:                2
Number of Basis:                         12
Number of States:                         2
State-Averaging Weight:          0.500000
                                 0.500000
State of Interest:                        1
Initial Guess:               Diagonalize H0 matrix
Newton-Raphson for FON opt:  Yes
NR max. Iterations:                      50
Level Shifting:              Yes
Shift Value:                     0.300000
W Scale Factor:              C  =    3.000000
                             N  =    3.000000
                             H  =    3.000000
Transition Dipole:           No
Gradient of Microstate:      No
CP-REKS Solver:              Preconditioned Conjugate-Gradient
CG max. Iterations:                     100
CG Tolerance:                  0.100000E-07
Memory for A and Hxc:        Direct Updating Without Saving
Non-Adiabatic Coupling:      Yes

--------------------------------------------------------------------------------

***  Geometry step: 0

  iSCC       reks energy        Diff energy         x_a       SCC error   
    1       -6.2641343826       0.0000000000     0.998997    1.19385756
    2       -6.2771589619      -0.0130245793     0.999597    0.10352047
    3       -6.2807471444      -0.0035881825     0.999776    0.04624723
    4       -6.2822824065      -0.0015352622     0.999850    0.02307283
    5       -6.2830673319      -0.0007849253     0.999884    0.01216066
    6       -6.2835295817      -0.0004622498     0.999903    0.00639079
    7       -6.2838292950      -0.0002997133     0.999914    0.00482931
    8       -6.2840342572      -0.0002049622     0.999920    0.00422145
    9       -6.2841781421      -0.0001438849     0.999925    0.00364408
   10       -6.2842803606      -0.0001022185     0.999927    0.00313930
   11       -6.2843533321      -0.0000729714     0.999929    0.00286474
   12       -6.2844054999      -0.0000521678     0.999931    0.00257512
   13       -6.2844427883      -0.0000372885     0.999932    0.00228749
   14       -6.2844694172      -0.0000266288     0.999932    0.00201287
   15       -6.2844884109      -0.0000189937     0.999933    0.00175776
   16       -6.2845019415      -0.0000135306     0.999933    0.00152547
   17       -6.2845115685      -0.0000096270     0.999934    0.00131711
   18       -6.2845184102      -0.0000068417     0.999934    0.00113239
   19       -6.2845232674      -0.0000048572     0.999934    0.00097011
   20       -6.2845267124      -0.0000034450     0.999934    0.00082861
   21       -6.2845291536      -0.0000024413     0.999934    0.00070596
   22       -6.2845308823      -0.0000017287     0.999934    0.00060017
   23       -6.2845321056      -0.0000012232     0.999934    0.00050930
   24       -6.2845329706      -0.0000008651     0.999934    0.00043152
   25       -6.2845335821      -0.0000006114     0.999934    0.00036513
   26       -6.2845340140      -0.0000004320     0.999934    0.00030859
   27       -6.2845343191      -0.0000003050     0.999934    0.00026056
   28       -6.2845345344      -0.0000002153     0.999934    0.00021981
   29       -6.2845346864      -0.0000001520     0.999934    0.00018530
   30       -6.2845347936      -0.0000001072     0.999934    0.00015612
   31       -6.2845348692      -0.0000000756     0.999934    0.00013145
   32       -6.2845349226      -0.0000000533     0.999934    0.00011064
   33       -6.2845349601      -0.0000000376     0.999934    0.00009308
   34       -6.2845349867      -0.0000000265     0.999934    0.00007828
   35       -6.2845350053      -0.0000000187     0.999934    0.00006582
   36       -6.2845350185      -0.0000000132     0.999934    0.00005532
   37       -6.2845350278      -0.0000000093     0.999934    0.00004649
   38       -6.2845350343      -0.0000000065     0.999934    0.00003906
   39       -6.2845350389      -0.0000000046     0.999934    0.00003281
   40       -6.2845350422      -0.0000000032     0.999934    0.00002756
   41       -6.2845350445      -0.0000000023     0.999934    0.00002315
   42       -6.2845350461      -0.0000000016     0.999934    0.00001944
   43       -6.2845350472      -0.0000000011     0.999934    0.00001632
   44       -6.2845350480      -0.0000000008     0.999934    0.00001370
   45       -6.2845350486      -0.0000000006     0.999934    0.00001151
   46       -6.2845350490      -0.0000000004     0.999934    0.00000966
   47       -6.2845350492      -0.0000000003     0.999934    0.00000811
   48       -6.2845350494      -0.0000000002     0.999934    0.00000681
   49       -6.2845350496      -0.0000000001     0.999934    0.00000571
   50       -6.2845350497      -0.0000000001     0.999934    0.00000480
   51       -6.2845350497      -0.0000000001     0.999934    0.00000403
   52       -6.2845350498      -0.0000000000     0.999934    0.00000338
   53       -6.2845350498      -0.0000000000     0.999934    0.00000284
   54       -6.2845350498      -0.0000000000     0.999934    0.00000238
   55       -6.2845350499      -0.0000000000     0.999934    0.00000200
   56       -6.2845350499      -0.0000000000     0.999934    0.00000168
   57       -6.2845350499      -0.0000000000     0.999934    0.00000141
   58       -6.2845350499      -0.0000000000     0.999934    0.00000118
   59       -6.2845350499      -0.0000000000     0.999934    0.00000099
  
--------------------------------------------------
 Final SA-REKS(2,2) energy:      -6.28453505
  
 State     Energy      FON(1)    FON(2)   Spin
  PPS   -6.40881639   1.999868  0.000132  0.00
  OSS   -6.16025371   1.000000  1.000000  0.00
 Trip   -6.24263836   1.000000  1.000000  1.00
--------------------------------------------------

 Lagrangian Wab:  -0.00809557 -0.00809528

--------------------------------------------------
 SSR: 2SI-2SA-REKS(2,2) Hamiltonian matrix
               PPS           OSS
   PPS    -6.40881639   -0.01135553
   OSS    -0.01135553   -6.16025371
--------------------------------------------------

----------------------------------------------------------------
 SSR: 2SI-2SA-REKS(2,2) states
                    E_n       C_{PPS}    C_{OSS}
 SSR state  1   -6.40933409  -0.998962  -0.045543
 SSR state  2   -6.15973601   0.045543  -0.998962
----------------------------------------------------------------

 unrelaxed SSR FONs for S0:  1.997794  0.002206

Total Energy:                       -6.4093340852 H         -174.4069 eV
Extrapolated to 0:                  -6.4093340852 H         -174.4069 eV

----------------------------------------------------------------------------------
 Solving CP-REKS equation for  1 state vector...
----------------------------------------------------------------------------------
  CG solver: Constructing Y initial guess
  CG solver: Iteration    1    eps =    0.000157580378
  CG solver: Iteration    2    eps =    0.000104943433
  CG solver: Iteration    3    eps =    0.000012844525
  CG solver: Iteration    4    eps =    0.000001120792
  CG solver: Iteration    5    eps =    0.000000015444
  CG solver: Iteration    6    eps =    0.000000007053
  Convergence reached in CG solver after    6 iterations
  CG solver: Calculating converged R, Z, Q2 matrix
----------------------------------------------------------------------------------

----------------------------------------------------------------------------------
 Solving CP-REKS equation for SI between  1 and  2 state vectors...
----------------------------------------------------------------------------------
  CG solver: Constructing Y initial guess
  CG solver: Iteration    1    eps =    0.003649669959
  CG solver: Iteration    2    eps =    0.005297048447
  CG solver: Iteration    3    eps =    0.000675248763
  CG solver: Iteration    4    eps =    0.000007822264
  CG solver: Iteration    5    eps =    0.000001013563
  CG solver: Iteration    6    eps =    0.000000015735
  CG solver: Iteration    7    eps =    0.000000000479
  Convergence reached in CG solver after    7 iterations
  CG solver: Calculating converged R, Z, Q2 matrix
----------------------------------------------------------------------------------

--------------------------------------------------
 Gradient Information
--------------------------------------------------
           1 st state (SSR)
    -0.00015211    -0.00155019     0.01860860
    -0.00085264     0.00545978    -0.01264031
     0.01385616     0.00625597     0.00206467
     0.01598160    -0.00478888    -0.00541135
    -0.01539141     0.00047032    -0.00295798
    -0.01344160    -0.00584700     0.00033637

           2 st state (SSR)
    -0.00049222    -0.00727905     0.12635833
     0.00229660     0.01060326    -0.13818768
    -0.01577325     0.01182261     0.01971574
    -0.01442965    -0.00778030    -0.01412208
     0.01289934     0.00578741    -0.01132238
     0.01549917    -0.01315393     0.01755806
--------------------------------------------------
 Coupling Information
--------------------------------------------------
 between  1 and  2 states
--------------------------------------------------
 g vector - difference gradient
     0.00019847     0.00303686    -0.05653476
    -0.00166369    -0.00268340     0.06499005
     0.01631685    -0.00248915    -0.00866689
     0.01685481     0.00122192     0.00440681
    -0.01574472    -0.00241472     0.00428662
    -0.01596171     0.00332849    -0.00848183

 h vector - derivative coupling
    -0.00030322    -0.00175663     0.02665530
     0.00090299     0.00110482    -0.02139536
    -0.01576491    -0.00334642    -0.00213861
    -0.01735643     0.00306468    -0.00036451
     0.01685931    -0.00278977    -0.00095216
     0.01566226     0.00372332    -0.00180465

 G vector - GDV
     0.00017005     0.00286443    -0.05387486
    -0.00157462    -0.00257174     0.06277368
     0.01481470    -0.00278332    -0.00882553
     0.01520562     0.00149571     0.00435536
    -0.01414537    -0.00265854     0.00418220
    -0.01447038     0.00365346    -0.00861085

 H vector - DCV - non-adiabatic coupling
    -0.00128214    -0.00811573     0.12695953
     0.00420926     0.00538628    -0.10905569
    -0.06884746    -0.01244420    -0.00537318
    -0.07539345     0.01178206    -0.00306083
     0.07300533    -0.01025039    -0.00536162
     0.06830846     0.01364198    -0.00410821
--------------------------------------------------


--------------------------------------------------------------------------------
DFTB+ running times                          cpu [s]             wall clock [s]
--------------------------------------------------------------------------------
SCC                                    +     0.03  ( 69.6%)      0.03  ( 60.9%)
Post-SCC processing                    +     0.01  ( 27.1%)      0.01  ( 30.4%)
  Force calculation                          0.01  ( 26.4%)      0.01  ( 21.7%)
--------------------------------------------------------------------------------
Missing                                +     0.00  (  3.3%)      0.00  (  8.7%)
Total                                  =     0.04  (100.0%)      0.05  (100.0%)
--------------------------------------------------------------------------------
