|===============================================================================
|
|  DFTB+ release 20.1
|
|  Copyright (C) 2006 - 2020  DFTB+ developers group
|
|===============================================================================
|
|  When publishing results obtained with DFTB+, please cite the following
|  reference:
|
|  * DFTB+, a software package for efficient approximate density functional
|    theory based atomistic simulations, J. Chem. Phys. 152, 124101 (2020).
|    [doi: 10.1063/1.5143190]
|
|  You should also cite additional publications crediting the parametrization
|  data you use. Please consult the documentation of the SK-files for the
|  references.
|
|===============================================================================

Reading input file 'dftb_in.hsd'
Parser version: 8

--------------------------------------------------------------------------------
Reading SK-files:
Done.


Processed input in HSD format written to 'dftb_pin.hsd'

Starting initialization...
--------------------------------------------------------------------------------
OpenMP threads:              1
Chosen random seed:          502960695
Mode:                        Static calculation
Self consistent charges:     Yes
SCC-tolerance:                 0.100000E-05
Max. scc iterations:                   1000
Shell resolved Hubbard:      No
Spin polarisation:           No
Nr. of up electrons:            16.000000
Nr. of down electrons:          16.000000
Periodic boundaries:         No
Electronic solver:           Relatively robust
Maximal SCC-cycles:                    1000
Initial charges:             Set automatically (system chrg:   0.100E+01)
Included shells:             C:  s, p
                             H:  s
                             N:  s, p
Spin coupling constants:     C   1(s)-1(s):  -0.455900E-01
                             C   1(s)-2(p):  -0.293000E-01
                             C   2(p)-1(s):  -0.293000E-01
                             C   2(p)-2(p):  -0.275500E-01
                             H   1(s)-1(s):  -0.792500E-01
                             N   1(s)-1(s):  -0.468700E-01
                             N   1(s)-2(p):  -0.317000E-01
                             N   2(p)-1(s):  -0.317000E-01
                             N   2(p)-2(p):  -0.307200E-01
Range separated hybrid:      Yes
  Screening parameter omega:   0.300000E+00
  Range separated algorithm:   MatrixBased
Extra options:
                             Mulliken analysis
                             Force calculation
Force type                   original
                             Eigenvector printing


REKS Calcuation:             Yes
SSR(2,2) Calcuation:         Yes
Energy Functional:           (PPS+OSS)/2
Number of Core Orbitals:                 15
Number of Active Orbitals:                2
Number of Basis:                         32
Number of States:                         2
State-Averaging Weight:          0.500000
                                 0.500000
State of Interest:                        1
Initial Guess:               Diagonalize H0 matrix
Newton-Raphson for FON opt:  Yes
NR max. Iterations:                      50
Level Shifting:              Yes
Shift Value:                     0.300000
W Scale Factor:              C  =    3.200000
                             H  =    3.200000
                             N  =    3.200000
Transition Dipole:           No
Gradient of Microstate:      No
CP-REKS Solver:              Preconditioned Conjugate-Gradient
CG max. Iterations:                     100
CG Tolerance:                  0.100000E-07
Memory for A and Hxc:        Direct Updating Without Saving
Non-Adiabatic Coupling:      Yes

--------------------------------------------------------------------------------

***  Geometry step: 0

  iSCC       reks energy        Diff energy         x_a       SCC error   
    1      -16.4034512722       0.0000000000     1.000000    1.19162539
    2      -16.4107788379      -0.0073275657     1.000000    0.02627429
    3      -16.4122689773      -0.0014901394     1.000000    0.01112808
    4      -16.4127005751      -0.0004315978     1.000000    0.00617565
    5      -16.4128545322      -0.0001539571     1.000000    0.00386028
    6      -16.4129180469      -0.0000635147     1.000000    0.00253540
    7      -16.4129473624      -0.0000293155     1.000000    0.00171327
    8      -16.4129621924      -0.0000148300     1.000000    0.00118592
    9      -16.4129702883      -0.0000080959     1.000000    0.00084126
   10      -16.4129749939      -0.0000047055     1.000000    0.00061240
   11      -16.4129778709      -0.0000028770     1.000000    0.00045783
   12      -16.4129797022      -0.0000018313     1.000000    0.00035143
   13      -16.4129809056      -0.0000012034     1.000000    0.00027656
   14      -16.4129817166      -0.0000008110     1.000000    0.00022259
   15      -16.4129822743      -0.0000005576     1.000000    0.00018821
   16      -16.4129826639      -0.0000003897     1.000000    0.00015988
   17      -16.4129829398      -0.0000002759     1.000000    0.00013594
   18      -16.4129831372      -0.0000001974     1.000000    0.00011573
   19      -16.4129832798      -0.0000001426     1.000000    0.00009867
   20      -16.4129833835      -0.0000001037     1.000000    0.00008426
   21      -16.4129834594      -0.0000000759     1.000000    0.00007207
   22      -16.4129835152      -0.0000000559     1.000000    0.00006237
   23      -16.4129835565      -0.0000000413     1.000000    0.00005460
   24      -16.4129835872      -0.0000000306     1.000000    0.00004789
   25      -16.4129836100      -0.0000000228     1.000000    0.00004205
   26      -16.4129836270      -0.0000000170     1.000000    0.00003696
   27      -16.4129836398      -0.0000000128     1.000000    0.00003250
   28      -16.4129836494      -0.0000000096     1.000000    0.00002859
   29      -16.4129836565      -0.0000000072     1.000000    0.00002515
   30      -16.4129836620      -0.0000000054     1.000000    0.00002213
   31      -16.4129836660      -0.0000000041     1.000000    0.00001948
   32      -16.4129836691      -0.0000000031     1.000000    0.00001713
   33      -16.4129836715      -0.0000000023     1.000000    0.00001507
   34      -16.4129836732      -0.0000000018     1.000000    0.00001326
   35      -16.4129836746      -0.0000000013     1.000000    0.00001166
   36      -16.4129836756      -0.0000000010     1.000000    0.00001025
   37      -16.4129836763      -0.0000000008     1.000000    0.00000901
   38      -16.4129836769      -0.0000000006     1.000000    0.00000792
   39      -16.4129836774      -0.0000000004     1.000000    0.00000696
   40      -16.4129836777      -0.0000000003     1.000000    0.00000611
   41      -16.4129836780      -0.0000000003     1.000000    0.00000537
   42      -16.4129836782      -0.0000000002     1.000000    0.00000472
   43      -16.4129836783      -0.0000000001     1.000000    0.00000414
   44      -16.4129836784      -0.0000000001     1.000000    0.00000364
   45      -16.4129836785      -0.0000000001     1.000000    0.00000319
   46      -16.4129836786      -0.0000000001     1.000000    0.00000280
   47      -16.4129836786      -0.0000000001     1.000000    0.00000246
   48      -16.4129836787      -0.0000000000     1.000000    0.00000216
   49      -16.4129836787      -0.0000000000     1.000000    0.00000189
   50      -16.4129836787      -0.0000000000     1.000000    0.00000166
   51      -16.4129836787      -0.0000000000     1.000000    0.00000146
   52      -16.4129836788      -0.0000000000     1.000000    0.00000128
   53      -16.4129836788      -0.0000000000     1.000000    0.00000112
   54      -16.4129836788      -0.0000000000     1.000000    0.00000098
  
--------------------------------------------------
 Final SA-REKS(2,2) energy:     -16.41298368
  
 State     Energy      FON(1)    FON(2)   Spin
  PPS  -16.47522947   2.000000  0.000000  0.00
  OSS  -16.35073789   1.000000  1.000000  0.00
 Trip  -16.36850386   1.000000  1.000000  1.00
--------------------------------------------------

 Lagrangian Wab:  -0.00179677 -0.00179683

--------------------------------------------------
 SSR: 2SI-2SA-REKS(2,2) Hamiltonian matrix
               PPS           OSS
   PPS   -16.47522947   -0.00254086
   OSS    -0.00254086  -16.35073789
--------------------------------------------------

----------------------------------------------------------------
 SSR: 2SI-2SA-REKS(2,2) states
                    E_n       C_{PPS}    C_{OSS}
 SSR state  1  -16.47528131  -0.999792  -0.020397
 SSR state  2  -16.35068605   0.020397  -0.999792
----------------------------------------------------------------

 unrelaxed SSR FONs for S0:  1.999584  0.000416

Total Energy:                      -16.4752813065 H         -448.3152 eV
Extrapolated to 0:                 -16.4752813065 H         -448.3152 eV

----------------------------------------------------------------------------------
 Solving CP-REKS equation for  1 state vector...
----------------------------------------------------------------------------------
  CG solver: Constructing Y initial guess
  CG solver: Iteration    1    eps =    0.000692289941
  CG solver: Iteration    2    eps =    0.000042594996
  CG solver: Iteration    3    eps =    0.000007392621
  CG solver: Iteration    4    eps =    0.000000375737
  CG solver: Iteration    5    eps =    0.000000187735
  CG solver: Iteration    6    eps =    0.000000042754
  CG solver: Iteration    7    eps =    0.000000005536
  Convergence reached in CG solver after    7 iterations
  CG solver: Calculating converged R, Z, Q2 matrix
----------------------------------------------------------------------------------

----------------------------------------------------------------------------------
 Solving CP-REKS equation for SI between  1 and  2 state vectors...
----------------------------------------------------------------------------------
  CG solver: Constructing Y initial guess
  CG solver: Iteration    1    eps =    0.017064855923
  CG solver: Iteration    2    eps =    0.000783164017
  CG solver: Iteration    3    eps =    0.000051295895
  CG solver: Iteration    4    eps =    0.000027490139
  CG solver: Iteration    5    eps =    0.000002562280
  CG solver: Iteration    6    eps =    0.000000549163
  CG solver: Iteration    7    eps =    0.000000228982
  CG solver: Iteration    8    eps =    0.000000018754
  CG solver: Iteration    9    eps =    0.000000002135
  Convergence reached in CG solver after    9 iterations
  CG solver: Calculating converged R, Z, Q2 matrix
----------------------------------------------------------------------------------

--------------------------------------------------
 Gradient Information
--------------------------------------------------
           1 st state (SSR)
     0.03156286     0.03353851    -0.02435367
     0.05045341    -0.06108241    -0.01144482
     0.00348091     0.00381156     0.00218754
    -0.02386409    -0.00013113     0.02832039
    -0.01245723    -0.01634262     0.01115253
     0.03614761     0.06457776    -0.01257783
    -0.05529170     0.03793374     0.06587769
    -0.00552590     0.02856186    -0.00535293
    -0.02459488    -0.05631676    -0.01011610
     0.01039896    -0.05194876    -0.06696435
    -0.02076219    -0.01116363    -0.02325617
     0.01157039     0.01106365     0.04230459
    -0.02246686     0.02356277     0.02198831
     0.02134870    -0.00606455    -0.01776520

           2 st state (SSR)
     0.01937894     0.01759572     0.00250963
     0.02978934    -0.04679021    -0.04605558
    -0.00331409     0.00710682     0.00738565
    -0.00924884    -0.00744737     0.01963109
    -0.01922065    -0.01274954     0.00782334
     0.07169557     0.04773209    -0.01115415
    -0.05729217     0.04677779     0.06680605
    -0.00189307     0.02979758    -0.00220304
    -0.02497281    -0.05514723    -0.02041414
     0.12304166    -0.02078419     0.00602076
    -0.02224917    -0.01499186    -0.02523225
    -0.11360826    -0.00372884    -0.02054137
    -0.01687503     0.02124282     0.02284437
     0.02476858    -0.00861358    -0.00742038
--------------------------------------------------
 Coupling Information
--------------------------------------------------
 between  1 and  2 states
--------------------------------------------------
 g vector - difference gradient
     0.00617503     0.00805691    -0.01343808
     0.01023293    -0.00725130     0.01725571
     0.00341028    -0.00167085    -0.00261792
    -0.00735295     0.00367935     0.00440497
     0.00340478    -0.00179191     0.00169462
    -0.01744157     0.00867072    -0.00084227
     0.00060145    -0.00468470    -0.00045613
    -0.00180459    -0.00062261    -0.00152335
     0.00013845    -0.00059002     0.00515717
    -0.05681421    -0.01571530    -0.03663881
     0.00074040     0.00195043     0.00098504
     0.06325627     0.00750370     0.03168333
    -0.00282552     0.00119817    -0.00045151
    -0.00172076     0.00126742    -0.00521276

 h vector - derivative coupling
    -0.00191067    -0.00193223    -0.00011662
     0.00263867     0.00243149     0.00156987
    -0.00024369     0.00053514     0.00040918
     0.00096127    -0.00044537    -0.00138912
    -0.00049627    -0.00015009    -0.00070149
    -0.00850613    -0.00590071     0.00318071
     0.00978987     0.00634466    -0.00020682
    -0.00032684     0.00010378    -0.00129603
     0.00124133     0.00011680    -0.00009455
     0.01092512     0.00294073     0.00283857
     0.00009079    -0.00085040     0.00009368
    -0.01506192    -0.00248172    -0.00573685
     0.00066824    -0.00091188     0.00056643
     0.00023024     0.00019980     0.00088303

 G vector - GDV
     0.00609196     0.00797140    -0.01343165
     0.01033204    -0.00714610     0.01730538
     0.00339750    -0.00164763    -0.00259905
    -0.00730762     0.00365812     0.00434465
     0.00338171    -0.00179654     0.00166460
    -0.01777398     0.00842284    -0.00071184
     0.00100023    -0.00442203    -0.00046418
    -0.00181642    -0.00061786    -0.00157494
     0.00018896    -0.00058476     0.00514902
    -0.05632135    -0.01558229    -0.03649255
     0.00074349     0.00191412     0.00098804
     0.06258933     0.00739624     0.03142298
    -0.00279591     0.00115998    -0.00042803
    -0.00170994     0.00127451    -0.00517241

 H vector - DCV - non-adiabatic coupling
    -0.01734362    -0.01813251     0.00346372
     0.01781057     0.02187255     0.00694067
    -0.00307057     0.00483838     0.00413828
     0.01011564    -0.00477596    -0.01258171
    -0.00509428    -0.00061706    -0.00618022
    -0.06250385    -0.05015794     0.02578282
     0.07831110     0.05241333    -0.00150923
    -0.00203031     0.00103607    -0.00989458
     0.00990932     0.00112980    -0.00244644
     0.10620981     0.02872693     0.03475698
     0.00048571    -0.00745809     0.00042883
    -0.14149293    -0.02235797    -0.05637698
     0.00628376    -0.00770490     0.00469019
     0.00240964     0.00118738     0.00878767
--------------------------------------------------


--------------------------------------------------------------------------------
DFTB+ running times                          cpu [s]             wall clock [s]
--------------------------------------------------------------------------------
Global initialisation                  +     0.00  (  0.6%)      0.01  (  2.8%)
SCC                                    +     0.09  ( 25.4%)      0.09  ( 25.2%)
      Dense to sparse                        0.02  (  4.5%)      0.02  (  4.5%)
Post-SCC processing                    +     0.25  ( 73.7%)      0.25  ( 71.4%)
  Force calculation                          0.25  ( 73.6%)      0.25  ( 71.1%)
--------------------------------------------------------------------------------
Missing                                +     0.00  (  0.3%)      0.00  (  0.6%)
Total                                  =     0.34  (100.0%)      0.36  (100.0%)
--------------------------------------------------------------------------------
