 Fermi distribution function

Calculation with static geometry


********************************************************************************
 iSCC Total electronic   Diff electronic      SCC error    
    9   -0.54565098E+01   -0.47961635E-13    0.61618380E-06
********************************************************************************

 Total charge:     1.00000000

 Atomic gross charges (e)
 Atom           Charge
    1       0.15797929
    2      -0.01769731
    3       0.16488636
    4       0.26787528
    5       0.26602569
    6       0.16093069

Nr. of electrons (up):     12.00000000
Atom populations (up)
 Atom       Population
    1       3.84202071
    2       5.01769731
    3       0.83511364
    4       0.73212472
    5       0.73397431
    6       0.83906931

l-shell populations (up)
 Atom Sh.   l       Population
    1   1   0       1.27649575
    1   2   1       2.56552496
    2   1   0       1.40977378
    2   2   1       3.60792353
    3   1   0       0.83511364
    4   1   0       0.73212472
    5   1   0       0.73397431
    6   1   0       0.83906931

Orbital populations (up)
 Atom Sh.   l   m       Population  Label
    1   1   0   0       1.27649575  s
    1   2   1  -1       0.60687260  p_y
    1   2   1   0       0.90235086  p_z
    1   2   1   1       1.05630150  p_x
    2   1   0   0       1.40977378  s
    2   2   1  -1       1.31785582  p_y
    2   2   1   0       1.12586270  p_z
    2   2   1   1       1.16420500  p_x
    3   1   0   0       0.83511364  s
    4   1   0   0       0.73212472  s
    5   1   0   0       0.73397431  s
    6   1   0   0       0.83906931  s

Fermi level:                        -0.4924304948 H          -13.3997 eV
Band energy:                        -9.0506940190 H         -246.2819 eV
TS:                                  0.0000000000 H            0.0000 eV
Band free energy (E-TS):            -9.0506940190 H         -246.2819 eV
Extrapolated E(0K):                 -9.0506940190 H         -246.2819 eV
Input / Output electrons (q):     12.0000000000     12.0000000000

Energy H0:                          -5.5939426846 H         -152.2189 eV
Energy SCC:                          0.1374328897 H            3.7397 eV
Total Electronic energy:            -5.4565097949 H         -148.4792 eV
Repulsive energy:                    0.2291180833 H            6.2346 eV
Total energy:                       -5.2273917116 H         -142.2446 eV
Extrapolated to 0:                  -5.2273917116 H         -142.2446 eV
Total Mermin free energy:           -5.2273917116 H         -142.2446 eV
Force related energy:               -5.2273917116 H         -142.2446 eV

SCC converged

Excitation Energy:                   0.1632622216 H            4.4426 eV

Total Forces
    1     -0.011549855011     -0.004810519539     -0.080588741912
    2      0.002616032191      0.015259803955      0.067217735352
    3      0.006431959565     -0.000255619146     -0.000761152475
    4      0.007209888286     -0.002478437460      0.007431486855
    5     -0.006611001286     -0.007813485068      0.002769100443
    6      0.001902976256      0.000098257259      0.003931571737

Maximal derivative component:        0.805887E-01 au


