     6
  Step:   300            Position(A)                                  Velocity(au)
C        -0.06352657     0.01917588     0.01669838     0.00012771    -0.00012967     0.00008167
N        -0.00839689    -0.05886457     1.30256647    -0.00027718     0.00002270    -0.00013559
H         0.26275268     0.95750608    -0.43809989    -0.00044095     0.00068674     0.00093421
H        -0.06532232    -0.98030318     1.74384081     0.00106551     0.00023980     0.00023420
H        -0.17219255     0.80377606     1.83793362     0.00174657     0.00034246     0.00008203
H        -0.36448597    -0.86125199    -0.55148673    -0.00004114    -0.00003931    -0.00033942
