     6
  Step:     0            Position(A)                                  Velocity(au)
C        -0.04321474     0.02948403    -0.00433189     0.00001757     0.00005034     0.00003184
N        -0.03270573    -0.06750104     1.31307857     0.00001706     0.00000172    -0.00000138
H         0.92663568    -0.02651915    -0.47480478    -0.00057379    -0.00008745     0.00061453
H         0.79916102    -0.07972058     1.84939783    -0.00038131    -0.00021992    -0.00058713
H        -0.96921837    -0.01897420     1.89154580     0.00035629     0.00008007    -0.00023514
H        -1.00007680     0.04212095    -0.56948045     0.00015242    -0.00039645    -0.00015237
     6
  Step:     1            Position(A)                                  Velocity(au)
C        -0.04314493     0.02976927    -0.00418809     0.00000749     0.00005410     0.00002104
N        -0.03269193    -0.06749808     1.31312625    -0.00001235    -0.00000063     0.00001837
H         0.92380478    -0.02702270    -0.47181650    -0.00045504    -0.00009721     0.00047497
H         0.79756587    -0.08090605     1.84658644    -0.00019483    -0.00021433    -0.00043676
H        -0.96668871    -0.01854500     1.88995163     0.00056591     0.00007723    -0.00034578
H        -0.99920372     0.03994066    -0.57043855     0.00016643    -0.00040164    -0.00019833
     6
  Step:     2            Position(A)                                  Velocity(au)
C        -0.04313290     0.03007535    -0.00410188    -0.00000343     0.00005813     0.00001079
N        -0.03284074    -0.06750787     1.31327935    -0.00004219    -0.00000296     0.00003734
H         0.92166202    -0.02758172    -0.46961319    -0.00032462    -0.00010799     0.00032921
H         0.79703145    -0.08206328     1.84462395     0.00000342    -0.00021017    -0.00027977
H        -0.96303280    -0.01813006     1.88776635     0.00076882     0.00007518    -0.00045158
H        -0.99825771     0.03773090    -0.57164829     0.00017962    -0.00040847    -0.00024518
     6
  Step:     3            Position(A)                                  Velocity(au)
C        -0.04318235     0.03040367    -0.00407032    -0.00001492     0.00006242     0.00000100
N        -0.03315243    -0.06753043     1.31353374    -0.00007185    -0.00000533     0.00005568
H         0.92026188    -0.02820132    -0.46822348    -0.00018531    -0.00011966     0.00017836
H         0.79760319    -0.08319981     1.84353307     0.00020747    -0.00020727    -0.00012025
H        -0.95829783    -0.01772446     1.88502315     0.00096212     0.00007414    -0.00055053
H        -0.99724337     0.03548267    -0.57311441     0.00019201    -0.00041696    -0.00029312
     6
  Step:     4            Position(A)                                  Velocity(au)
C        -0.04329551     0.03075561    -0.00409097    -0.00002670     0.00006696    -0.00000842
N        -0.03362377    -0.06756593     1.31388614    -0.00010063    -0.00000775     0.00007352
H         0.91964246    -0.02888580    -0.46766932    -0.00004025    -0.00013204     0.00002375
H         0.79929256    -0.08432217     1.84331347     0.00041092    -0.00020542     0.00003752
H        -0.95254738    -0.01732211     1.88176654     0.00114230     0.00007432    -0.00064025
H        -0.99616518     0.03318680    -0.57484281     0.00020359    -0.00042707    -0.00034230
     6
  Step:     5            Position(A)                                  Velocity(au)
C        -0.04347296     0.03113245    -0.00416193    -0.00003845     0.00007171    -0.00001756
N        -0.03424766    -0.06761476     1.31433398    -0.00012776    -0.00001026     0.00009095
H         0.91982380    -0.02963844    -0.46796497     0.00010704    -0.00014489    -0.00013303
H         0.80207576    -0.08543562     1.84394140     0.00060710    -0.00020434     0.00018914
H        -0.94586485    -0.01691553     1.87805448     0.00130504     0.00007601    -0.00071790
H        -0.99502750     0.03083433    -0.57684010     0.00021435    -0.00043871    -0.00039273
     6
  Step:     6            Position(A)                                  Velocity(au)
C        -0.04371351     0.03153531    -0.00428188    -0.00004981     0.00007663    -0.00002651
N        -0.03501283    -0.06767750     1.31487501    -0.00015241    -0.00001290     0.00010795
H         0.92080629    -0.03046114    -0.46911571     0.00025271    -0.00015792    -0.00029007
H         0.80589340    -0.08654384     1.84536997     0.00078934    -0.00020370     0.00033033
H        -0.93835805    -0.01649569     1.87396108     0.00144520     0.00007950    -0.00078010
H        -0.99383463     0.02841685    -0.57911287     0.00022428    -0.00045169    -0.00044427
     6
  Step:     7            Position(A)                                  Velocity(au)
C        -0.04401412     0.03196499    -0.00444997    -0.00006044     0.00008164    -0.00003534
N        -0.03590352    -0.06775493     1.31550684    -0.00017372    -0.00001570     0.00012443
H         0.92256937    -0.03135416    -0.47111644     0.00039268    -0.00017079    -0.00044516
H         0.81065154    -0.08764873     1.84753027     0.00095127    -0.00020318     0.00045702
H        -0.93016348    -0.01605184     1.86957911     0.00155693     0.00008512    -0.00082312
H        -0.99259079     0.02592693    -0.58166689     0.00023339    -0.00046578    -0.00049662
     6
  Step:     8            Position(A)                                  Velocity(au)
C        -0.04436985     0.03242195    -0.00466571    -0.00006997     0.00008667    -0.00004409
N        -0.03689941    -0.06784804     1.31622635    -0.00019082    -0.00001869     0.00014019
H         0.92507076    -0.03231590    -0.47395018     0.00052280    -0.00018312    -0.00059585
H         0.81622417    -0.08875036     1.85033327     0.00108715    -0.00020243     0.00056563
H        -0.92144974    -0.01557129     1.86502192     0.00163396     0.00009323    -0.00084302
H        -0.99130004     0.02335846    -0.58450619     0.00024169    -0.00048069    -0.00054931
     6
  Step:     9            Position(A)                                  Velocity(au)
C        -0.04477397     0.03290621    -0.00492880    -0.00007810     0.00009163    -0.00005278
N        -0.03797577    -0.06795794     1.31702919    -0.00020295    -0.00002190     0.00015494
H         0.92824671    -0.03334274    -0.47758702     0.00063914    -0.00019453    -0.00073957
H         0.82245745    -0.08984698     1.85367278     0.00119229    -0.00020114     0.00065326
H        -0.91241945    -0.01503936     1.86042429     0.00167017     0.00010421    -0.00083598
H        -0.98996615     0.02070683    -0.58763216     0.00024927    -0.00049614    -0.00060176
     6
  Step:    10            Position(A)                                  Velocity(au)
C        -0.04521817     0.03341733    -0.00523899    -0.00008454     0.00009645    -0.00006138
N        -0.03910393    -0.06808591     1.31790936    -0.00020945    -0.00002533     0.00016836
H         0.93201348    -0.03442905    -0.48198381     0.00073822    -0.00020469    -0.00087386
H         0.82917550    -0.09093527     1.85742939     0.00126329    -0.00019907     0.00071789
H        -0.90330737    -0.01443930     1.85594105     0.00166023     0.00011841    -0.00079870
H        -0.98859229     0.01796911    -0.59104286     0.00025629    -0.00051184    -0.00065331
     6
  Step:    11            Position(A)                                  Velocity(au)
C        -0.04569286     0.03395444    -0.00559593    -0.00008913     0.00010104    -0.00006988
N        -0.04025216    -0.06823329     1.31885900    -0.00020990    -0.00002902     0.00018013
H         0.93627014    -0.03556739    -0.48708471     0.00081726    -0.00021328    -0.00099655
H         0.83618774    -0.09201059     1.86147522     0.00129838    -0.00019604     0.00075851
H        -0.89437504    -0.01375243     1.85174349     0.00160034     0.00013615    -0.00072889
H        -0.98718066     0.01514383    -0.59473272     0.00026297    -0.00052759    -0.00070331
     6
  Step:    12            Position(A)                                  Velocity(au)
C        -0.04618760     0.03451629    -0.00599909    -0.00009175     0.00010537    -0.00007825
N        -0.04138691    -0.06840150     1.31986853    -0.00020415    -0.00003295     0.00018998
H         0.94090255    -0.03674880    -0.49282292     0.00087441    -0.00022011    -0.00110595
H         0.84329752    -0.09306749     1.86567946     0.00129740    -0.00019196     0.00077522
H        -0.88590110    -0.01295848     1.84801317     0.00148890     0.00015769    -0.00062561
H        -0.98573205     0.01223069    -0.59869253     0.00026965    -0.00054328    -0.00075121
     6
  Step:    13            Position(A)                                  Velocity(au)
C        -0.04669164     0.03510141    -0.00644769    -0.00009242     0.00010942    -0.00008644
N        -0.04247441    -0.06859199     1.32092705    -0.00019234    -0.00003715     0.00019777
H         0.94578845    -0.03796332    -0.49912344     0.00090882    -0.00022505    -0.00120102
H         0.85031045    -0.09410013     1.86991376     0.00126168    -0.00018683     0.00076902
H        -0.87816780    -0.01203595     1.84493347     0.00132695     0.00018319    -0.00048957
H        -0.98424538     0.00923003    -0.60290993     0.00027675    -0.00055889    -0.00079658
     6
  Step:    14            Position(A)                                  Velocity(au)
C        -0.04719444     0.03570824    -0.00694073    -0.00009123     0.00011319    -0.00009443
N        -0.04348220    -0.06880618     1.32202298    -0.00017489    -0.00004160     0.00020346
H         0.95080302    -0.03920048    -0.50590652     0.00092061    -0.00022811    -0.00128136
H         0.85704192    -0.09510274     1.87405698     0.00119376    -0.00018071     0.00074173
H        -0.87144571    -0.01096286     1.84267998     0.00111834     0.00021270    -0.00032321
H        -0.98271725     0.00614230    -0.60737019     0.00028472    -0.00057451    -0.00083913
     6
  Step:    15            Position(A)                                  Velocity(au)
C        -0.04768606     0.03633526    -0.00747704    -0.00008831     0.00011672    -0.00010221
N        -0.04438081    -0.06904549     1.32314490    -0.00015248    -0.00004631     0.00020717
H         0.95582370    -0.04044984    -0.51309112     0.00091061    -0.00022932    -0.00134712
H         0.86332326    -0.09607003     1.87799908     0.00109702    -0.00017373     0.00069565
H        -0.86597718    -0.00971743     1.84141021     0.00086967     0.00024609    -0.00013074
H        -0.98114173     0.00296747    -0.61205697     0.00029407    -0.00059030    -0.00087872
     6
  Step:    16            Position(A)                                  Velocity(au)
C        -0.04815755     0.03698112    -0.00805537    -0.00008389     0.00012004    -0.00010976
N        -0.04514512    -0.06931123     1.32428235    -0.00012600    -0.00005125     0.00020917
H         0.96073381    -0.04170133    -0.52059770     0.00088023    -0.00022881    -0.00139887
H         0.86900560    -0.09699741     1.88164353     0.00097519    -0.00016603     0.00063336
H        -0.86196143    -0.00827908     1.84125413     0.00058990     0.00028309     0.00008214
H        -0.97951020    -0.00029530    -0.61695318     0.00030528    -0.00060641    -0.00091531
     6
  Step:    17            Position(A)                                  Velocity(au)
C        -0.04860113     0.03764470    -0.00867433    -0.00007816     0.00012320    -0.00011708
N        -0.04575527    -0.06960458     1.32542660    -0.00009646    -0.00005640     0.00020980
H         0.96542557    -0.04294573    -0.52835053     0.00083118    -0.00022670    -0.00143740
H         0.87396105    -0.09788120     1.88490807     0.00083215    -0.00015776     0.00055748
H        -0.85954229    -0.00662936     1.84230627     0.00028981     0.00032322     0.00030852
H        -0.97781162    -0.00364754    -0.62204153     0.00031878    -0.00062302    -0.00094884
     6
  Step:    18            Position(A)                                  Velocity(au)
C        -0.04901025     0.03832514    -0.00933257    -0.00007136     0.00012623    -0.00012415
N        -0.04619744    -0.06992655     1.32657112    -0.00006497    -0.00006171     0.00020948
H         0.96980134    -0.04417443    -0.53627863     0.00076526    -0.00022309    -0.00146350
H         0.87808376    -0.09871845     1.88772521     0.00067172    -0.00014903     0.00047057
H        -0.85879984    -0.00475298     1.84461982    -0.00001866     0.00036580     0.00054055
H        -0.97603252    -0.00709198    -0.62730435     0.00033495    -0.00064024    -0.00097919
     6
  Step:    19            Position(A)                                  Velocity(au)
C        -0.04937957     0.03902174    -0.01002864    -0.00006368     0.00012914    -0.00013094
N        -0.04646406    -0.07027781     1.32771183    -0.00003267    -0.00006712     0.00020864
H         0.97377365    -0.04537944    -0.54431565     0.00068423    -0.00021808    -0.00147783
H         0.88128879    -0.09950695     1.89004149     0.00049755    -0.00013996     0.00037508
H        -0.85974584    -0.00263887     1.84820306    -0.00032302     0.00040995     0.00076992
H        -0.97415765    -0.01063189    -0.63272341     0.00035404    -0.00065808    -0.00100611
     6
  Step:    20            Position(A)                                  Velocity(au)
C        -0.04970484     0.03973387    -0.01076090    -0.00005531     0.00013193    -0.00013739
N        -0.04655379    -0.07065869     1.32884704    -0.00000065    -0.00007253     0.00020767
H         0.97726500    -0.04655331    -0.55239908     0.00058982    -0.00021172    -0.00148084
H         0.88351114    -0.10024512     1.89181664     0.00031319    -0.00013063     0.00027332
H        -0.86232336    -0.00028112     1.85301827    -0.00061096     0.00045462     0.00098823
H        -0.97217064    -0.01427049    -0.63827920     0.00037611    -0.00067640    -0.00102918
     6
  Step:    21            Position(A)                                  Velocity(au)
C        -0.04998286     0.04046085    -0.01152736    -0.00004642     0.00013454    -0.00014341
N        -0.04647118    -0.07106901     1.32997710     0.00003002    -0.00007784     0.00020685
H         0.98020753    -0.04768891    -0.56046907     0.00048372    -0.00020402    -0.00147273
H         0.88470515    -0.10093190     1.89302298     0.00012224    -0.00012113     0.00016762
H        -0.86641033     0.00232020     1.85898292    -0.00087103     0.00049858     0.00118741
H        -0.97005494    -0.01801025    -0.64395002     0.00040108    -0.00069491    -0.00104782
     6
  Step:    22            Position(A)                                  Velocity(au)
C        -0.05021130     0.04120178    -0.01232548    -0.00003718     0.00013693    -0.00014885
N        -0.04622624    -0.07150799     1.33110383     0.00005840    -0.00008293     0.00020639
H         0.98254249    -0.04877923    -0.56846689     0.00036764    -0.00019500    -0.00145349
H         0.88484484    -0.10156664     1.89364541    -0.00007146    -0.00011152     0.00006037
H        -0.87182653     0.00515848     1.86597312    -0.00109325     0.00054055     0.00136015
H        -0.96779473    -0.02185207    -0.64971108     0.00042867    -0.00071318    -0.00106127
     6
  Step:    23            Position(A)                                  Velocity(au)
C        -0.05038868     0.04195541    -0.01315202    -0.00002774     0.00013899    -0.00015356
N        -0.04583379    -0.07197423     1.33222981     0.00008363    -0.00008767     0.00020633
H         0.98422027    -0.04981727    -0.57633376     0.00024340    -0.00018463    -0.00142299
H         0.88392520    -0.10214913     1.89368187    -0.00026371    -0.00010189    -0.00004587
H        -0.87834309     0.00822021     1.87382887    -0.00126957     0.00057919     0.00150029
H        -0.96537606    -0.02579453    -0.65553371     0.00045836    -0.00073067    -0.00106872
     6
  Step:    24            Position(A)                                  Velocity(au)
C        -0.05051429     0.04272001    -0.01400281    -0.00001825     0.00014064    -0.00015735
N        -0.04531277    -0.07246557     1.33335759     0.00010501    -0.00009190     0.00020659
H         0.98520112    -0.05079596    -0.58401030     0.00011303    -0.00017293    -0.00138113
H         0.88196429    -0.10267960     1.89314436    -0.00044988    -0.00009234    -0.00014830
H        -0.88569419     0.01148503     1.88236096    -0.00139434     0.00061325     0.00160313
H        -0.96278801    -0.02983323    -0.66138481     0.00048946    -0.00074675    -0.00106932
     6
  Step:    25            Position(A)                                  Velocity(au)
C        -0.05058820     0.04349328    -0.01487269    -0.00000885     0.00014175    -0.00016004
N        -0.04468553    -0.07297915     1.33448886     0.00012198    -0.00009550     0.00020694
H         0.98545630    -0.05170828    -0.59143659    -0.00002115    -0.00015992    -0.00132794
H         0.87900568    -0.10315883     1.89206014    -0.00062490    -0.00008297    -0.00024394
H        -0.89359045     0.01492617     1.89135933    -0.00146450     0.00064159     0.00166566
H        -0.96002375    -0.03396035    -0.66722689     0.00052108    -0.00076075    -0.00106230
     6
  Step:    26            Position(A)                                  Velocity(au)
C        -0.05061125     0.04427238    -0.01575540     0.00000029     0.00014224    -0.00016142
N        -0.04397697    -0.07351139     1.33562380     0.00013415    -0.00009834     0.00020706
H         0.98496945    -0.05254734    -0.59855296    -0.00015663    -0.00014573    -0.00126371
H         0.87512082    -0.10358826     1.89047292    -0.00078342    -0.00007396    -0.00032964
H        -0.90173240     0.01851125     1.90060207    -0.00147963     0.00066330     0.00168668
H        -0.95708154    -0.03816442    -0.67301839     0.00055219    -0.00077197    -0.00104706
     6
  Step:    27            Position(A)                                  Velocity(au)
C        -0.05058507     0.04505388    -0.01664370     0.00000902     0.00014202    -0.00016134
N        -0.04321377    -0.07405811     1.33676059     0.00014128    -0.00010034     0.00020656
H         0.98373789    -0.05330715    -0.60530130    -0.00029066    -0.00013047    -0.00118906
H         0.87041048    -0.10397023     1.88844354    -0.00092003    -0.00006545    -0.00040228
H        -0.90982401     0.02220353     1.90986461    -0.00144181     0.00067774     0.00166684
H        -0.95396541    -0.04242988    -0.67871464     0.00058169    -0.00077980    -0.00102326
     6
  Step:    28            Position(A)                                  Velocity(au)
C        -0.05051202     0.04583391    -0.01752939     0.00001723     0.00014102    -0.00015967
N        -0.04242353    -0.07461462     1.33789499     0.00014333    -0.00010141     0.00020503
H         0.98177355    -0.05398188    -0.61162690    -0.00042047    -0.00011427    -0.00110500
H         0.86500495    -0.10430784     1.88604983    -0.00102963    -0.00005760    -0.00045893
H        -0.91758529     0.02596312     1.91892923    -0.00135536     0.00068456     0.00160847
H        -0.95068581    -0.04673849    -0.68426930     0.00060840    -0.00078385    -0.00099088
     6
  Step:    29            Position(A)                                  Velocity(au)
C        -0.05039517     0.04660825    -0.01840362     0.00002478     0.00013923    -0.00015634
N        -0.04163396    -0.07517589     1.33902041     0.00014040    -0.00010154     0.00020207
H         0.97910349    -0.05456661    -0.61748063    -0.00054330    -0.00009734    -0.00101297
H         0.85906190    -0.10460511     1.88338523    -0.00110785    -0.00005059    -0.00049712
H        -0.92476280     0.02974876     1.92759318    -0.00122643     0.00068378     0.00151542
H        -0.94725959    -0.05106953    -0.68963610     0.00063128    -0.00078385    -0.00095028
     6
  Step:    30            Position(A)                                  Velocity(au)
C        -0.05023820     0.04737257    -0.01925716     0.00003157     0.00013667    -0.00015136
N        -0.04087193    -0.07573678     1.34012812     0.00013277    -0.00010075     0.00019740
H         0.97576956    -0.05505763    -0.62282127    -0.00065666    -0.00007996    -0.00091481
H         0.85276198    -0.10486696     1.88055609    -0.00115149    -0.00004458    -0.00051507
H        -0.93113864     0.03351964     1.93567625    -0.00106248     0.00067580     0.00139276
H        -0.94370947    -0.05540086    -0.69477091     0.00064944    -0.00077978    -0.00090225
     6
  Step:    31            Position(A)                                  Velocity(au)
C        -0.05004531     0.04812267    -0.02008085     0.00003755     0.00013340    -0.00014480
N        -0.04016272    -0.07629227     1.34120780     0.00012086    -0.00009909     0.00019082
H         0.97182701    -0.05545261    -0.62761770    -0.00075852    -0.00006239    -0.00081269
H         0.84630211    -0.10509916     1.87767771    -0.00115889    -0.00003970    -0.00051188
H        -0.93653629     0.03723738     1.94302650    -0.00087176     0.00066138     0.00124643
H        -0.94006303    -0.05971031    -0.69963397     0.00066229    -0.00077192    -0.00084795
     6
  Step:    32            Position(A)                                  Velocity(au)
C        -0.04982103     0.04885476    -0.02086600     0.00004268     0.00012957    -0.00013683
N        -0.03952911    -0.07683774     1.34224823     0.00010523    -0.00009670     0.00018231
H         0.96734196    -0.05575080    -0.63185071    -0.00084752    -0.00004492    -0.00070899
H         0.83988614    -0.10530807     1.87486885    -0.00113024    -0.00003603    -0.00048774
H        -0.94082437     0.04086796     1.94952471    -0.00066267     0.00064163     0.00108282
H        -0.93635114    -0.06397733    -0.70419204     0.00066955    -0.00076089    -0.00078890
     6
  Step:    33            Position(A)                                  Velocity(au)
C        -0.04956999     0.04956575    -0.02160478     0.00004698     0.00012534    -0.00012766
N        -0.03899068    -0.07736923     1.34323822     0.00008654    -0.00009372     0.00017197
H         0.96238781    -0.05595296    -0.63551401    -0.00092304    -0.00002782    -0.00060606
H         0.83371411    -0.10550049     1.87224559    -0.00106760    -0.00003363    -0.00044386
H        -0.94391671     0.04438347     1.95508627    -0.00044312     0.00061789     0.00090826
H        -0.93260599    -0.06818468    -0.70842024     0.00067135    -0.00074757    -0.00072681
     6
  Step:    34            Position(A)                                  Velocity(au)
C        -0.04929673     0.05025350    -0.02229060     0.00005051     0.00012090    -0.00011753
N        -0.03856332    -0.07788366     1.34416736     0.00006547    -0.00009035     0.00016003
H         0.95704108    -0.05606122    -0.63861421    -0.00098521    -0.00001126    -0.00050606
H         0.82797202    -0.10568335     1.86991544    -0.00097456    -0.00003247    -0.00038239
H        -0.94576951     0.04776348     1.95966070    -0.00022003     0.00059166     0.00072858
H        -0.92885904    -0.07232001    -0.71230307     0.00066811    -0.00073304    -0.00066343
     6
  Step:    35            Position(A)                                  Velocity(au)
C        -0.04900548     0.05091695    -0.02291822     0.00005336     0.00011647    -0.00010668
N        -0.03825898    -0.07837899     1.34502669     0.00004270    -0.00008678     0.00014679
H         0.95137734    -0.05607879    -0.64116968    -0.00103477     0.00000462    -0.00041077
H         0.82282264    -0.10586342     1.86797214    -0.00085591    -0.00003252    -0.00030609
H        -0.94637574     0.05099573     1.96322869     0.00000105     0.00056442     0.00054867
H        -0.92513928    -0.07637694    -0.71583457     0.00066047    -0.00071845    -0.00060033
     6
  Step:    36            Position(A)                                  Velocity(au)
C        -0.04869999     0.05155612    -0.02348373     0.00005561     0.00011221    -0.00009532
N        -0.03808571    -0.07885422     1.34580908     0.00001887    -0.00008318     0.00013255
H         0.94546789    -0.05600952    -0.64320837    -0.00107279     0.00001979    -0.00032145
H         0.81839918    -0.10604708     1.86649204    -0.00071707    -0.00003368    -0.00021814
H        -0.94575778     0.05407610     1.96579719     0.00021601     0.00053751     0.00037235
H        -0.92147209    -0.08035537    -0.71901737     0.00064910    -0.00070488    -0.00053878
     6
  Step:    37            Position(A)                                  Velocity(au)
C        -0.04838349     0.05217204    -0.02398434     0.00005737     0.00010827    -0.00008358
N        -0.03804796    -0.07930932     1.34650925    -0.00000548    -0.00007969     0.00011759
H         0.93937797    -0.05585748    -0.64476514    -0.00110040     0.00003425    -0.00023890
H         0.81480206    -0.10624010     1.86553220    -0.00056360    -0.00003582    -0.00012184
H        -0.94395967     0.05700786     1.96739348     0.00042198     0.00051206     0.00020237
H        -0.91787895    -0.08426117    -0.72186096     0.00063459    -0.00069323    -0.00047966
     6
  Step:    38            Position(A)                                  Velocity(au)
C        -0.04805868     0.05276651    -0.02441807     0.00005871     0.00010475    -0.00007155
N        -0.03814694    -0.07974511     1.34712362    -0.00002982    -0.00007645     0.00010215
H         0.93316640    -0.05562663    -0.64587907    -0.00111854     0.00004808    -0.00016352
H         0.81209861    -0.10644751     1.86512997    -0.00040097    -0.00003881    -0.00002049
H        -0.94104048     0.05980051     1.96805948     0.00061695     0.00048898     0.00004064
H        -0.91437796    -0.08810506    -0.72437952     0.00061734    -0.00068414    -0.00042344
     6
  Step:    39            Position(A)                                  Velocity(au)
C        -0.04772781     0.05334184    -0.02478339     0.00005971     0.00010169    -0.00005926
N        -0.03838097    -0.08016303     1.34765001    -0.00005369    -0.00007351     0.00008640
H         0.92688669    -0.05532051    -0.64659125    -0.00112780     0.00006138    -0.00009543
H         0.81032422    -0.10667355     1.86530342    -0.00023441    -0.00004251     0.00008269
H        -0.93706983     0.06246852     1.96784733     0.00079936     0.00046893    -0.00011143
H        -0.91098480    -0.09190133    -0.72658977     0.00059755    -0.00067801    -0.00037030
     6
  Step:    40            Position(A)                                  Velocity(au)
C        -0.04739282     0.05390063    -0.02507893     0.00006038     0.00009912    -0.00004669
N        -0.03874573    -0.08056496     1.34808721    -0.00007664    -0.00007095     0.00007047
H         0.92058888    -0.05494213    -0.64694333    -0.00112837     0.00007422    -0.00003463
H         0.80948437    -0.10692159     1.86605213    -0.00006892    -0.00004675     0.00018452
H        -0.93212582     0.06503015     1.96681676     0.00096761     0.00045245    -0.00025263
H        -0.90771388    -0.09566639    -0.72850917     0.00057523    -0.00067498    -0.00032014
     6
  Step:    41            Position(A)                                  Velocity(au)
C        -0.04705549     0.05444555    -0.02530331     0.00006073     0.00009700    -0.00003382
N        -0.03923435    -0.08095314     1.34843477    -0.00009819    -0.00006881     0.00005445
H         0.91432187    -0.05449403    -0.64697690    -0.00112010     0.00008669     0.00001890
H         0.80955677    -0.10719416     1.86735812     0.00009077    -0.00005139     0.00028194
H        -0.92629511     0.06750674     1.96503418     0.00111990     0.00044000    -0.00038169
H        -0.90457939    -0.09941749    -0.73015463     0.00055025    -0.00067504    -0.00027275
     6
  Step:    42            Position(A)                                  Velocity(au)
C        -0.04671756     0.05497916    -0.02545496     0.00006077     0.00009532    -0.00002062
N        -0.03983745    -0.08132998     1.34869264    -0.00011789    -0.00006710     0.00003839
H         0.90813519    -0.05397827    -0.64673323    -0.00110261     0.00009885     0.00006517
H         0.81049363    -0.10749295     1.86918691     0.00024024    -0.00005627     0.00037205
H        -0.91967428     0.06992222     1.96257300     0.00125406     0.00043201    -0.00049713
H        -0.90159598    -0.10317177    -0.73154172     0.00052243    -0.00067805    -0.00022785
     6
  Step:    43            Position(A)                                  Velocity(au)
C        -0.04638083     0.05550389    -0.02553223     0.00006046     0.00009404    -0.00000707
N        -0.04054317    -0.08169810     1.34886103    -0.00013525    -0.00006586     0.00002233
H         0.90208005    -0.05339652    -0.64625329    -0.00107547     0.00011077     0.00010421
H         0.81222402    -0.10781892     1.87148882     0.00037542    -0.00006126     0.00045215
H        -0.91237184     0.07230312     1.95951479     0.00136755     0.00042894    -0.00059722
H        -0.89877907    -0.10694558    -0.73268431     0.00049162    -0.00068381    -0.00018512
     6
  Step:    44            Position(A)                                  Velocity(au)
C        -0.04604719     0.05602192    -0.02553335     0.00005978     0.00009311     0.00000682
N        -0.04133716    -0.08206027     1.34894024    -0.00014984    -0.00006512     0.00000628
H         0.89620980    -0.05274998    -0.64557774    -0.00103829     0.00012248     0.00013598
H         0.81465649    -0.10817220     1.87420059     0.00049289    -0.00006625     0.00051993
H        -0.90451024     0.07467854     1.95595070     0.00145758     0.00043135    -0.00068004
H        -0.89614470    -0.11075419    -0.73359441     0.00045770    -0.00069206    -0.00014427
     6