     6
  Step:     0            Position(A)                                  Velocity(au)
C        -0.04204126     0.02425563    -0.00540023     0.00011705     0.00004821     0.00003639
N        -0.04072428    -0.05652392     1.31199677     0.00015544     0.00016889     0.00002419
H         0.96602723    -0.00700334    -0.48967704    -0.00025164    -0.00024699    -0.00015951
H         0.80159661    -0.12390768     1.81133855    -0.00155216    -0.00118084    -0.00053750
H        -0.94564135    -0.06261612     1.94314216    -0.00065371    -0.00073886     0.00032583
H        -0.96803534     0.02019386    -0.54038171    -0.00109733    -0.00075481    -0.00039869
     6
  Step:     1            Position(A)                                  Velocity(au)
C        -0.04136480     0.02454783    -0.00547842     0.00012897     0.00005889    -0.00006495
N        -0.03996114    -0.05560283     1.31238388     0.00012168     0.00016840     0.00011620
H         0.96446537    -0.00840990    -0.49055466    -0.00031602    -0.00026935    -0.00016199
H         0.79381810    -0.13048901     1.80881116    -0.00126946    -0.00123060    -0.00037407
H        -0.94870120    -0.06670885     1.94446091    -0.00046062    -0.00075867     0.00015269
H        -0.97430082     0.01599248    -0.54274362    -0.00118164    -0.00078331    -0.00045757
     6
  Step:     2            Position(A)                                  Velocity(au)
C        -0.04063041     0.02489987    -0.00611071     0.00013812     0.00006998    -0.00016567
N        -0.03939314    -0.05468174     1.31326794     0.00008455     0.00016880     0.00020552
H         0.96257012    -0.00994993    -0.49144916    -0.00037262    -0.00029550    -0.00016599
H         0.78770930    -0.13736978     1.80724636    -0.00094602    -0.00128942    -0.00018817
H        -0.95068028    -0.07091558     1.94481247    -0.00026062    -0.00078000    -0.00002612
H        -0.98096185     0.01162482    -0.54538729    -0.00124148    -0.00081473    -0.00050169
     6
  Step:     3            Position(A)                                  Velocity(au)
C        -0.03985359     0.02531353    -0.00729110     0.00014436     0.00008128    -0.00026473
N        -0.03903602    -0.05375590     1.31463261     0.00004515     0.00017000     0.00029153
H         0.96038827    -0.01164315    -0.49237092    -0.00041990    -0.00032498    -0.00017224
H         0.78346710    -0.14459740     1.80675223    -0.00059272    -0.00135597     0.00001390
H        -0.95155283    -0.07524334     1.94417516    -0.00005820    -0.00080226    -0.00020703
H        -0.98788469     0.00707795    -0.54823291    -0.00127679    -0.00084781    -0.00053140
     6
  Step:     4            Position(A)                                  Velocity(au)
C        -0.03905045     0.02578951    -0.00900805     0.00014758     0.00009259    -0.00036103
N        -0.03889899    -0.05282118     1.31645861     0.00000475     0.00017182     0.00037365
H         0.95797441    -0.01350668    -0.49333428    -0.00045645    -0.00035721    -0.00018140
H         0.78122221    -0.15221040     1.80739848    -0.00022265    -0.00142800     0.00022445
H        -0.95131730    -0.07969605     1.94254660     0.00014208    -0.00082474    -0.00038635
H        -0.99493595     0.00234586    -0.55120326    -0.00128751    -0.00088110    -0.00054711
     6
  Step:     5            Position(A)                                  Velocity(au)
C        -0.03823763     0.02632740    -0.01124424     0.00014768     0.00010367    -0.00045334
N        -0.03898406    -0.05187454     1.31872395    -0.00003525     0.00017401     0.00045125
H         0.95539031    -0.01555451    -0.49435722    -0.00048092    -0.00039151    -0.00019405
H         0.78102916    -0.16023361     1.80920990     0.00014942    -0.00150234     0.00043470
H        -0.94999708    -0.08427399     1.93994472     0.00033531    -0.00084660    -0.00056001
H        -1.00198262    -0.00256985    -0.55422365    -0.00127369    -0.00091303    -0.00054939
     6
  Step:     6            Position(A)                                  Velocity(au)
C        -0.03743215     0.02692558    -0.01397585     0.00014459     0.00011428    -0.00054026
N        -0.03928530    -0.05091439     1.32140347    -0.00007332     0.00017625     0.00052355
H         0.95270439    -0.01779698    -0.49546073    -0.00049212    -0.00042709    -0.00021061
H         0.78285957    -0.16867333     1.81216198     0.00050775    -0.00157497     0.00063526
H        -0.94764291    -0.08897333     1.93640990     0.00051597    -0.00086698    -0.00072344
H        -1.00889327    -0.00765934    -0.55722355    -0.00123564    -0.00094193    -0.00053903
     6
  Step:     7            Position(A)                                  Velocity(au)
C        -0.03665132     0.02758115    -0.01717152     0.00013829     0.00012413    -0.00062018
N        -0.03978847    -0.04994090     1.32446795    -0.00010789     0.00017818     0.00058959
H         0.94999111    -0.02024023    -0.49666785    -0.00048907    -0.00046304    -0.00023128
H         0.78659979    -0.17751303     1.81617949     0.00083662    -0.00164125     0.00081681
H        -0.94433621    -0.09378585     1.93200764     0.00067796    -0.00088497    -0.00087161
H        -1.01553918    -0.01290403    -0.56013749    -0.00117412    -0.00096608    -0.00051706
     6
  Step:     8            Position(A)                                  Velocity(au)
C        -0.03591237     0.02828978    -0.02079146     0.00012886     0.00013297    -0.00069140
N        -0.04047099    -0.04895620     1.32788290    -0.00013746     0.00017945     0.00064821
H         0.94732962    -0.02288570    -0.49800241    -0.00047115    -0.00049838    -0.00025600
H         0.79205388    -0.18671031     1.82113852     0.00112153    -0.00169624     0.00097083
H        -0.94019225    -0.09869899     1.92683106     0.00081476    -0.00089977    -0.00099919
H        -1.02179664    -0.01827637    -0.56290597    -0.00109050    -0.00098382    -0.00048474
     6
  Step:     9            Position(A)                                  Velocity(au)
C        -0.03523202     0.02904571    -0.02478682     0.00011648     0.00014052    -0.00075226
N        -0.04130245    -0.04796440     1.33160754    -0.00016069     0.00017971     0.00069820
H         0.94480176    -0.02572959    -0.49948750    -0.00043830    -0.00053211    -0.00028442
H         0.79895261    -0.19619595     1.82687252     0.00135036    -0.00173527     0.00109042
H        -0.93536225    -0.10369622     1.92100226     0.00091980    -0.00091078    -0.00110091
H        -1.02755023    -0.02374012    -0.56547656    -0.00098693    -0.00099370    -0.00044358
     6
  Step:    10            Position(A)                                  Velocity(au)
C        -0.03462586     0.02984182    -0.02909997     0.00010149     0.00014658    -0.00080136
N        -0.04224570    -0.04697138     1.33559427    -0.00017654     0.00017871     0.00073841
H         0.94248870    -0.02876271    -0.50114377    -0.00039126    -0.00056329    -0.00031589
H         0.80696818    -0.20587573     1.83318189     0.00151466    -0.00175449     0.00117101
H        -0.93003341    -0.10875826     1.91467191     0.00098698    -0.00091776    -0.00117202
H        -1.03269690    -0.02925148    -0.56780515    -0.00086647    -0.00099469    -0.00039540
     6
  Step:    11            Position(A)                                  Velocity(au)
C        -0.03410754     0.03066984    -0.03366589     0.00008435     0.00015101    -0.00083781
N        -0.04325850    -0.04598424     1.33978916    -0.00018440     0.00017635     0.00076806
H         0.94046664    -0.03197085    -0.50298757    -0.00033160    -0.00059119    -0.00034948
H         0.81573501    -0.21563573     1.83984734     0.00161055    -0.00175162     0.00121093
H        -0.92442655    -0.11386506     1.90801625     0.00101152    -0.00092102    -0.00120907
H        -1.03715071    -0.03476126    -0.56985756    -0.00073308    -0.00098637    -0.00034230
     6
  Step:    12            Position(A)                                  Velocity(au)
C        -0.03368799     0.03152084    -0.03841512     0.00006568     0.00015381    -0.00086155
N        -0.04429598    -0.04501061     1.34413390    -0.00018420     0.00017268     0.00078697
H         0.93880186    -0.03533587    -0.50502947    -0.00026177    -0.00061548    -0.00038413
H         0.82487496    -0.22535098     1.84664552     0.00163925    -0.00172637     0.00121163
H        -0.91878686    -0.11899856     1.90122891     0.00099107    -0.00092146    -0.00121071
H        -1.04084765    -0.04021837    -0.57161094    -0.00059141    -0.00096916    -0.00028656
     6
  Step:    13            Position(A)                                  Velocity(au)
C        -0.03337475     0.03238590    -0.04327824     0.00004614     0.00015512    -0.00087352
N        -0.04531366    -0.04405767     1.34856938    -0.00017640     0.00016792     0.00079581
H         0.93754603    -0.03883774    -0.50727334    -0.00018487    -0.00063632    -0.00041881
H         0.83402407    -0.23489679     1.85336551     0.00160665    -0.00168069     0.00117742
H        -0.91336924    -0.12414582     1.89450833     0.00092612    -0.00092068    -0.00117813
H        -1.04374909    -0.04557420    -0.57305473    -0.00044636    -0.00094438    -0.00023051
     6
  Step:    14            Position(A)                                  Velocity(au)
C        -0.03317164     0.03325693    -0.04819126     0.00004385     0.00025804    -0.00145532
N        -0.04627019    -0.04313126     1.35304034    -0.00026908     0.00027005     0.00132319
H         0.93673291    -0.04245734    -0.50971669    -0.00017307    -0.00108777    -0.00075264
H         0.84285599    -0.24416062     1.85982275     0.00252996    -0.00268997     0.00185259
H        -0.90842203    -0.12930252     1.88804365     0.00136272    -0.00153051    -0.00185302
H        -1.04584312    -0.05078751    -0.57419069    -0.00050282    -0.00151932    -0.00029293
     6
  Step:    15            Position(A)                                  Velocity(au)
C        -0.03296976     0.03467323    -0.05602297     0.00002796     0.00024179    -0.00130769
N        -0.04772523    -0.04165129     1.36020530    -0.00024041     0.00025225     0.00120393
H         0.93619571    -0.04844211    -0.51431996    -0.00002018    -0.00102506    -0.00086707
H         0.85666020    -0.25889566     1.86994987     0.00231264    -0.00250415     0.00170477
H        -0.90119892    -0.13765209     1.87805446     0.00115817    -0.00142081    -0.00165314
H        -1.04851909    -0.05916145    -0.57596979    -0.00044299    -0.00143661    -0.00033238
     6
  Step:    16            Position(A)                                  Velocity(au)
C        -0.03285434     0.03600050    -0.06302919     0.00001341     0.00022548    -0.00115902
N        -0.04899807    -0.04026910     1.36670091    -0.00020458     0.00023439     0.00108209
H         0.93650391    -0.05408832    -0.51955509     0.00012217    -0.00096301    -0.00096928
H         0.86909674    -0.27257439     1.87916629     0.00204427    -0.00230648     0.00152789
H        -0.89528066    -0.14542402     1.86928595     0.00090229    -0.00132006    -0.00141893
H        -1.05086962    -0.06708832    -0.57796210    -0.00038559    -0.00135451    -0.00036606
     6
  Step:    17            Position(A)                                  Velocity(au)
C        -0.03281724     0.03723840    -0.06920868     0.00000050     0.00021106    -0.00102094
N        -0.05005264    -0.03898472     1.37251589    -0.00016508     0.00021860     0.00096829
H         0.93758565    -0.05939797    -0.52534708     0.00025095    -0.00090937    -0.00106564
H         0.87991716    -0.28513563     1.88733219     0.00175658    -0.00211930     0.00134359
H        -0.89093393    -0.15266989     1.86191178     0.00061361    -0.00123955    -0.00117122
H        -1.05290582    -0.07457121    -0.58013429    -0.00033313    -0.00128461    -0.00039692
     6
  Step:    18            Position(A)                                  Velocity(au)
C        -0.03284864     0.03839732    -0.07462311    -0.00001076     0.00019929    -0.00089735
N        -0.05087270    -0.03778665     1.37769690    -0.00012384     0.00020568     0.00086638
H         0.93935368    -0.06441521    -0.53165664     0.00036565    -0.00086685    -0.00116061
H         0.88904464    -0.29664137     1.89442423     0.00146510    -0.00195175     0.00116212
H        -0.88831243    -0.15950056     1.85598547     0.00030402    -0.00118282    -0.00092129
H        -1.05465269    -0.08167652    -0.58246962    -0.00028565    -0.00123153    -0.00042709
     6
  Step:    19            Position(A)                                  Velocity(au)
C        -0.03293894     0.03949170    -0.07935467    -0.00002049     0.00018994    -0.00078685
N        -0.05145281    -0.03665922     1.38231181    -0.00008174     0.00019537     0.00077551
H         0.94171997    -0.06919915    -0.53846971     0.00046588    -0.00083419    -0.00125479
H         0.89648259    -0.30720338     1.90047188     0.00117379    -0.00180278     0.00098547
H        -0.88749651    -0.16604369     1.85149502    -0.00001796    -0.00114730    -0.00067414
H        -1.05613558    -0.08849571    -0.58496320    -0.00024164    -0.00119416    -0.00045714
     6
  Step:    20            Position(A)                                  Velocity(au)
C        -0.03307923     0.04053472    -0.08347739    -0.00002874     0.00018241    -0.00068639
N        -0.05179251    -0.03558816     1.38642349    -0.00003945     0.00018702     0.00069315
H         0.94459606    -0.07380216    -0.54577648     0.00055035    -0.00080846    -0.00134598
H         0.90225306    -0.31692768     1.90551345     0.00088256    -0.00166745     0.00081259
H        -0.88851449    -0.17241089     1.84839948    -0.00034299    -0.00112765    -0.00043333
H        -1.05737178    -0.09511414    -0.58761373    -0.00019922    -0.00116893    -0.00048664
     6
  Step:    21            Position(A)                                  Velocity(au)
C        -0.03326108     0.04153620    -0.08704795    -0.00003552     0.00017607    -0.00059323
N        -0.05189499    -0.03456307     1.39008092     0.00000222     0.00017990     0.00061711
H         0.94788846    -0.07826074    -0.55355596     0.00061739    -0.00078679    -0.00143105
H         0.90637471    -0.32589283     1.90957967     0.00059148    -0.00154100     0.00064246
H        -0.89134083    -0.17868288     1.84663810    -0.00065966    -0.00111810    -0.00020338
H        -1.05836846    -0.10159754    -0.59041761    -0.00015681    -0.00115215    -0.00051475
     6
  Step:    22            Position(A)                                  Velocity(au)
C        -0.03347627     0.04250261    -0.09010780    -0.00004084     0.00017046    -0.00050558
N        -0.05176766    -0.03357750     1.39332081     0.00004232     0.00017344     0.00054598
H         0.95149642    -0.08259590    -0.56177098     0.00066555    -0.00076695    -0.00150715
H         0.90886386    -0.33415099     1.91269403     0.00030184    -0.00142019     0.00047495
H        -0.89588731    -0.18490763     1.84612633    -0.00095546    -0.00111340     0.00001021
H        -1.05912441    -0.10799145    -0.59336694    -0.00011331    -0.00114090    -0.00054072
     6
  Step:    23            Position(A)                                  Velocity(au)
C        -0.03371674     0.04343783    -0.09268818    -0.00004473     0.00016525    -0.00042236
N        -0.05142288    -0.03262819     1.39617187     0.00007983     0.00016721     0.00047898
H         0.95531323    -0.08681679    -0.57036960     0.00069395    -0.00074742    -0.00157207
H         0.90974202    -0.34173632     1.91487813     0.00001603    -0.00130323     0.00031074
H        -0.90199986    -0.19110386     1.84675203    -0.00121837    -0.00110905     0.00020193
H        -1.05963252    -0.11432533    -0.59644983    -0.00006798    -0.00113303    -0.00056397
     6
  Step:    24            Position(A)                                  Velocity(au)
C        -0.03397472     0.04434398    -0.09481418    -0.00004725     0.00016021    -0.00034296
N        -0.05087807    -0.03171429     1.39865818     0.00011385     0.00016088     0.00041572
H         0.95922923    -0.09092446    -0.57928872     0.00070240    -0.00072718    -0.00162429
H         0.90904248    -0.34867306     1.91615660    -0.00026291    -0.00118938     0.00015105
H        -0.90946379    -0.19726587     1.84837643    -0.00143820    -0.00110135     0.00036700
H        -1.05988195    -0.12061688    -0.59965133    -0.00002041    -0.00112697    -0.00058411
     6
  Step:    25            Position(A)                                  Velocity(au)
C        -0.03424287     0.04522196    -0.09650734    -0.00004848     0.00015521    -0.00026706
N        -0.05015506    -0.03083658     1.40080129     0.00014362     0.00015426     0.00035597
H         0.96313510    -0.09491468    -0.58845768     0.00069130    -0.00070562    -0.00166289
H         0.90681430    -0.35498118     1.91656017    -0.00053157    -0.00107854    -0.00000260
H        -0.91801558    -0.20336842     1.85083898    -0.00160739    -0.00108739     0.00050198
H        -1.05985977    -0.12687527    -0.60295445     0.00002961    -0.00112159    -0.00060089
     6
  Step:    26            Position(A)                                  Velocity(au)
C        -0.03451444     0.04607189    -0.09778733    -0.00004856     0.00015014    -0.00019452
N        -0.04927921    -0.02999696     1.40262112     0.00016859     0.00014720     0.00029957
H         0.96692535    -0.09878009    -0.59780150     0.00066167    -0.00068241    -0.00168748
H         0.90312457    -0.36068030     1.91612763    -0.00078641    -0.00097113    -0.00014851
H        -0.92735867    -0.20937167     1.85396489    -0.00172154    -0.00106513     0.00060494
H        -1.05955228    -0.13310339    -0.60634092     0.00008208    -0.00111602    -0.00061417
     6
  Step:    27            Position(A)                                  Velocity(au)
C        -0.03478343     0.04689339    -0.09867281    -0.00004762     0.00014495    -0.00012526
N        -0.04827821    -0.02919783     1.40413635     0.00018845     0.00013968     0.00024639
H         0.97050122    -0.10251171    -0.60724374     0.00061500    -0.00065743    -0.00169811
H         0.89805945    -0.36579238     1.91490683    -0.00102386    -0.00086789    -0.00028492
H        -0.93718083    -0.21522609     1.85757355    -0.00177941    -0.00103334     0.00067556
H        -1.05894597    -0.13929951    -0.60979177     0.00013687    -0.00110965    -0.00062392
     6
  Step:    28            Position(A)                                  Velocity(au)
C        -0.03504464     0.04768577    -0.09918198    -0.00004582     0.00013961    -0.00005926
N        -0.04718091    -0.02844170     1.40536447     0.00020309     0.00013173     0.00019622
H         0.97377293    -0.10610011    -0.61670880     0.00055312    -0.00063072    -0.00169524
H         0.89172452    -0.37034367     1.91295524    -0.00124044    -0.00076983    -0.00041005
H        -0.94717121    -0.22087721     1.86148678    -0.00178261    -0.00099159     0.00071489
H        -1.05802834    -0.14545860    -0.61328782     0.00019371    -0.00110206    -0.00063017
     6
  Step:    29            Position(A)                                  Velocity(au)
C        -0.03529374     0.04844826    -0.09933285    -0.00004332     0.00013413     0.00000347
N        -0.04601635    -0.02773074     1.40632167     0.00021254     0.00012344     0.00014885
H         0.97666148    -0.10953621    -0.62612408     0.00047808    -0.00060245    -0.00167964
H         0.88424438    -0.37436620     1.91034002    -0.00143279    -0.00067816    -0.00052216
H        -0.95703420    -0.22626966     1.86553548    -0.00173494    -0.00094008     0.00072506
H        -1.05678853    -0.15157344    -0.61681019     0.00025228    -0.00109301    -0.00063305
     6
  Step:    30            Position(A)                                  Velocity(au)
C        -0.03552723     0.04918008    -0.09914335    -0.00004026     0.00012852     0.00006295
N        -0.04481303    -0.02706648     1.40702273     0.00021697     0.00011496     0.00010402
H         0.97909909    -0.11281190    -0.63542132     0.00039195    -0.00057286    -0.00165229
H         0.87576211    -0.37789896     1.90713793    -0.00159778    -0.00059425    -0.00061960
H        -0.96649984    -0.23135044     1.86956455    -0.00164176    -0.00087951     0.00070893
H        -1.05521777    -0.15763561    -0.62034055     0.00031216    -0.00108242    -0.00063273
     6
  Step:    31            Position(A)                                  Velocity(au)
C        -0.03574237     0.04988056    -0.09863133    -0.00003677     0.00012282     0.00011921
N        -0.04359834    -0.02644959     1.40748094     0.00021662     0.00010646     0.00006147
H         0.98102948    -0.11592034    -0.64453783     0.00029681    -0.00054220    -0.00161434
H         0.86643814    -0.38098875     1.90343496    -0.00173255    -0.00051952    -0.00070083
H        -0.97533062    -0.23607127     1.87343608    -0.00150935    -0.00081092     0.00066980
H        -1.05330967    -0.16363633    -0.62386155     0.00037294    -0.00107031    -0.00062941
     6
  Step:    32            Position(A)                                  Velocity(au)
C        -0.03593713     0.05054922    -0.09781442    -0.00003298     0.00011706     0.00017232
N        -0.04239817    -0.02587970     1.40770796     0.00021182     0.00009813     0.00002089
H         0.98240787    -0.11885621    -0.65341744     0.00019470    -0.00051078    -0.00156704
H         0.85644814    -0.38369039     1.89932532    -0.00183478    -0.00045537    -0.00076457
H        -0.98332566    -0.24039029     1.87703131    -0.00134460    -0.00073557     0.00061125
H        -1.05106034    -0.16956714    -0.62735700     0.00043418    -0.00105683    -0.00062334
     6
  Step:    33            Position(A)                                  Velocity(au)
C        -0.03611010     0.05118578    -0.09670993    -0.00002899     0.00011128     0.00022236
N        -0.04123651    -0.02535539     1.40771387     0.00020291     0.00009017    -0.00001801
H         0.98320043    -0.12161576    -0.66201094     0.00008748    -0.00047888    -0.00151169
H         0.84597968    -0.38606633     1.89490976    -0.00190268    -0.00040311    -0.00080982
H        -0.99032340    -0.24427313     1.88025178    -0.00115449    -0.00065485     0.00053690
H        -1.04846844    -0.17542041    -0.63081202     0.00049544    -0.00104218    -0.00061478
     6
  Step:    34            Position(A)                                  Velocity(au)
C        -0.03626039     0.05179022    -0.09533463    -0.00002488     0.00010553     0.00026945
N        -0.04013532    -0.02487416     1.40750710     0.00019024     0.00008274    -0.00005553
H         0.98338344    -0.12419678    -0.67027621    -0.00002314    -0.00044675    -0.00144954
H         0.83522903    -0.38818592     1.89029397    -0.00193487    -0.00036392    -0.00083581
H        -0.99620079    -0.24769327     1.88301900    -0.00094555    -0.00057008     0.00045015
H        -1.04553512    -0.18118972    -0.63421317     0.00055630    -0.00102658    -0.00060398
     6
  Step:    35            Position(A)                                  Velocity(au)
C        -0.03638756     0.05236273    -0.09370470    -0.00002072     0.00009984     0.00031372
N        -0.03911468    -0.02443253     1.40709456     0.00017417     0.00007603    -0.00009193
H         0.98294235    -0.12659843    -0.67817802    -0.00013563    -0.00041461    -0.00138177
H         0.82439964    -0.39012522     1.88558782    -0.00193047    -0.00033887    -0.00084198
H        -1.00086938    -0.25063132     1.88527237    -0.00072367    -0.00048248     0.00035404
H        -1.04226392    -0.18687006    -0.63754840     0.00061636    -0.00101029    -0.00059120
     6
  Step:    36            Position(A)                                  Velocity(au)
C        -0.03649152     0.05290375    -0.09183558    -0.00001657     0.00009425     0.00035532
N        -0.03819274    -0.02402618     1.40648179     0.00015505     0.00007015    -0.00012744
H         0.98187068    -0.12882106    -0.68568757    -0.00024869    -0.00038265    -0.00130944
H         0.81369781    -0.39196541     1.88090304    -0.00188950    -0.00032862    -0.00082830
H        -1.00427214    -0.25307453     1.88696772    -0.00049416    -0.00039317     0.00025136
H        -1.03866067    -0.19245785    -0.64080706     0.00067523    -0.00099357    -0.00057667
     6
  Step:    37            Position(A)                                  Velocity(au)
C        -0.03657240     0.05341389    -0.08974199    -0.00001247     0.00008880     0.00039436
N        -0.03738548    -0.02365015     1.40567326     0.00013327     0.00006520    -0.00016224
H         0.98016883    -0.13086600    -0.69278181    -0.00036116    -0.00035101    -0.00123350
H         0.80332665    -0.39379024     1.87635003    -0.00181301    -0.00033340    -0.00079529
H        -1.00638058    -0.25501622     1.88807574    -0.00026184    -0.00030316     0.00014465
H        -1.03473334    -0.19795096    -0.64397978     0.00073252    -0.00097662    -0.00056058
     6
  Step:    38            Position(A)                                  Velocity(au)
C        -0.03663054     0.05389395    -0.08743793    -0.00000843     0.00008350     0.00043097
N        -0.03670654    -0.02329910     1.40467260     0.00010929     0.00006122    -0.00019644
H         0.97784321    -0.13273528    -0.69944278    -0.00047206    -0.00031979    -0.00115475
H         0.79348029    -0.39568324     1.87203449    -0.00170301    -0.00035290    -0.00074401
H        -1.00719196    -0.25645518     1.88858071    -0.00003103    -0.00021336     0.00003617
H        -1.03049204    -0.20334852    -0.64705831     0.00078786    -0.00095965    -0.00054312
     6
  Step:    39            Position(A)                                  Velocity(au)
C        -0.03666642     0.05434486    -0.08493683    -0.00000449     0.00007838     0.00046523
N        -0.03616695    -0.02296759     1.40348303     0.00008357     0.00005820    -0.00023008
H         0.97490548    -0.13443151    -0.70565690    -0.00058049    -0.00028906    -0.00107389
H         0.78433864    -0.39772498     1.86805457    -0.00156256    -0.00038630    -0.00067612
H        -1.00672651    -0.25739509     1.88847905     0.00019436    -0.00012459    -0.00007198
H        -1.02594894    -0.20865077    -0.65003542     0.00084086    -0.00094281    -0.00052444
     6
  Step:    40            Position(A)                                  Velocity(au)
C        -0.03668061     0.05476767    -0.08225163    -0.00000066     0.00007345     0.00049719
N        -0.03577489    -0.02265028     1.40210768     0.00005666     0.00005610    -0.00026314
H         0.97137200    -0.13595768    -0.71141432    -0.00068562    -0.00025888    -0.00099150
H         0.77606106    -0.39998963     1.86449721    -0.00139581    -0.00043212    -0.00059391
H        -1.00502527    -0.25784405     1.88777827     0.00041072    -0.00003761    -0.00017789
H        -1.02111831    -0.21385881    -0.65290464     0.00089109    -0.00092620    -0.00050464
     6
  Step:    41            Position(A)                                  Velocity(au)
C        -0.03667374     0.05516352    -0.07939506     0.00000306     0.00006873     0.00052685
N        -0.03553535    -0.02234229     1.40055006     0.00002917     0.00005481    -0.00029548
H         0.96726346    -0.13731700    -0.71670832    -0.00078665    -0.00022927    -0.00090808
H         0.76878071    -0.40254151     1.86143474    -0.00120790    -0.00048830    -0.00050028
H        -1.00214855    -0.25781432     1.88649624     0.00061465     0.00004683    -0.00027972
H        -1.01601665    -0.21897434    -0.65566020     0.00093814    -0.00090988    -0.00048382
     6
  Step:    42            Position(A)                                  Velocity(au)
C        -0.03664652     0.05553362    -0.07637984     0.00000664     0.00006422     0.00055418
N        -0.03544982    -0.02203943     1.39881449     0.00000174     0.00005419    -0.00032694
H         0.96260471    -0.13851286    -0.72153485    -0.00088281    -0.00020025    -0.00082406
H         0.76259902    -0.40543169     1.85892162    -0.00100490    -0.00055214    -0.00039868
H        -0.99817500    -0.25732214     1.88466080     0.00080282     0.00012800    -0.00037567
H        -1.01066276    -0.22399943    -0.65829678     0.00098152    -0.00089387    -0.00046204
     6
  Step:    43            Position(A)                                  Velocity(au)
C        -0.03659973     0.05587923    -0.07321894     0.00001008     0.00005994     0.00057907
N        -0.03551592    -0.02173841     1.39690648    -0.00002490     0.00005405    -0.00035722
H         0.95742482    -0.13954873    -0.72589216    -0.00097328    -0.00017185    -0.00073984
H         0.75758145    -0.40869491     1.85699164    -0.00079358    -0.00062048    -0.00029299
H        -0.99320139    -0.25638780     1.88230957     0.00097197     0.00020514    -0.00046393
H        -1.00507794    -0.22893623    -0.66080944     0.00102075    -0.00087816    -0.00043935
     6
  Step:    44            Position(A)                                  Velocity(au)
C        -0.03653420     0.05620166    -0.06992591     0.00001335     0.00005589     0.00060139
N        -0.03572729    -0.02143704     1.39483309    -0.00005002     0.00005419    -0.00038604
H         0.95175710    -0.14042820    -0.72978067    -0.00105725    -0.00014409    -0.00065583
H         0.75375433    -0.41234720     1.85565610    -0.00058107    -0.00068983    -0.00018736
H        -0.98734203    -0.25503578     1.87949008     0.00111893     0.00027747    -0.00054273
H        -0.99928609    -0.23378681    -0.66319353     0.00105533    -0.00086270    -0.00041581
     6