     6
  Step:   120            Position(A)                                  Velocity(au)
C        -0.03521550     0.06087406    -0.20633293     0.00000657    -0.00001714    -0.00001197
N        -0.04176553     0.01230874     1.51474111    -0.00004010     0.00018115     0.00009283
H         0.90309846    -0.32240910    -0.63557793    -0.00011733    -0.00058982     0.00065749
H         0.77214993    -0.54315037     1.82172769    -0.00007501    -0.00077920    -0.00072766
H        -0.87224851    -0.57737269     1.80897504     0.00091101    -0.00102135    -0.00129066
H        -1.01590153    -0.12326347    -0.69380298    -0.00023972     0.00007734     0.00021336
