    14
  Step:   600            Position(A)                                  Velocity(au)
C        -4.76132997     0.11847909     0.95568740    -0.00046696    -0.00004580    -0.00018361
C        -4.42951681    -0.48347616    -0.16092961     0.00068002    -0.00017749     0.00038879
H        -4.83629386     1.16111212     1.05685840    -0.00059587     0.00133162     0.00055957
H        -5.29283899    -0.45169212     1.66636978     0.00100627     0.00090240    -0.00164659
H        -4.43046900    -1.56724355    -0.37311484    -0.00018804     0.00093141    -0.00202256
C        -4.07571645     0.63436741    -1.20999354     0.00008067    -0.00014924    -0.00024677
C        -2.95862568     1.29667088    -0.63512439    -0.00016783     0.00018787    -0.00001388
H        -4.39241654     0.40903165    -2.20164432    -0.00038492     0.00154870     0.00105382
H        -2.61185918     2.26507299    -1.04358121    -0.00299931    -0.00151339     0.00013896
C        -2.24287082     0.50834273     0.40014985     0.00028655     0.00065547     0.00061305
H        -2.66500499    -0.42534225     0.74412511     0.00014194     0.00083862     0.00067981
N        -1.04321639     0.99820856     0.77976264    -0.00028532    -0.00078256    -0.00036760
H        -0.47399954     0.63809681     1.61282878     0.00170300     0.00022498     0.00077610
H        -0.70702313     2.02275118     0.46493708     0.00036707     0.00100049    -0.00107487
