     6
  Step:   600            Position(A)                                  Velocity(au)
C         0.01029498    -0.10449674     0.04804826     0.00040361     0.00010225    -0.00112317
N        -0.05298622     0.06582502     1.28521668    -0.00035252    -0.00007375     0.00137808
H         0.96117337    -0.23162229    -0.27991833     0.00217834     0.00021654    -0.00290070
H         0.75199214     0.12007895     1.84263530     0.00162340    -0.00005901    -0.00180736
H        -1.27673013     0.17839245     1.15772992    -0.00182308     0.00531627     0.00453750
H        -1.03572612    -0.40650331    -0.26032738    -0.00188942    -0.00566744    -0.00559593
