     6
  Step:     0            Position(A)                                  Velocity(au)
C        -0.03627105     0.00172683    -0.00103463     0.00002583    -0.00002488     0.00009093
N        -0.05278475    -0.04923686     1.31783205     0.00001980    -0.00010407    -0.00008464
H         0.93312451     0.06399105    -0.48553746    -0.00038129     0.00035286    -0.00013382
H         0.90569039    -0.15374536     1.82795692    -0.00042198     0.00053185    -0.00074183
H        -0.86983892    -0.03284990     1.82238112    -0.00058324     0.00077789     0.00007081
H        -1.01618983     0.11646201    -0.57348889     0.00080357     0.00007999     0.00089761
     6
  Step:     1            Position(A)                                  Velocity(au)
C        -0.03606961     0.00144654    -0.00021440     0.00001198    -0.00002652     0.00005913
N        -0.05218394    -0.05039347     1.31700509     0.00008389    -0.00010752    -0.00006382
H         0.92970425     0.06808026    -0.48829288    -0.00023580     0.00039593    -0.00037049
H         0.89887170    -0.14782385     1.81913122    -0.00079513     0.00054687    -0.00085000
H        -0.87976721    -0.02429540     1.82601302    -0.00116771     0.00078975     0.00055204
H        -1.00677205     0.11730864    -0.56382061     0.00089004     0.00007762     0.00085077
     6
  Step:     2            Position(A)                                  Velocity(au)
C        -0.03600890     0.00114656     0.00025902     0.00000071    -0.00002848     0.00002773
N        -0.05094941    -0.05158912     1.31643590     0.00013218    -0.00011089    -0.00003694
H         0.92796593     0.07265276    -0.49364253    -0.00008173     0.00044059    -0.00060245
H         0.88829533    -0.14178162     1.80936144    -0.00109260     0.00055269    -0.00090543
H        -0.89538492    -0.01557266     1.83445799    -0.00158811     0.00080562     0.00092719
H        -0.99671854     0.11816006    -0.55487662     0.00091721     0.00008127     0.00076362
     6
  Step:     3            Position(A)                                  Velocity(au)
C        -0.03605411     0.00082353     0.00039225    -0.00000684    -0.00003072    -0.00000284
N        -0.04929231    -0.05281932     1.31619706     0.00015933    -0.00011355    -0.00000400
H         0.92791624     0.07771909    -0.50147252     0.00006500     0.00048546    -0.00081850
H         0.87496889    -0.13573265     1.79932329    -0.00128195     0.00054723    -0.00089054
H        -0.91451009    -0.00667085     1.84629701    -0.00179738     0.00081957     0.00116426
H        -0.98670633     0.11908664    -0.54711492     0.00088167     0.00009159     0.00063427
     6
  Step:     4            Position(A)                                  Velocity(au)
C        -0.03615850     0.00047452     0.00019699    -0.00000974    -0.00003319    -0.00003209
N        -0.04746371    -0.05407317     1.31634838     0.00016325    -0.00011502     0.00003298
H         0.92938786     0.08327320    -0.51154882     0.00018953     0.00052898    -0.00100849
H         0.86025019    -0.12980984     1.78987920    -0.00133424     0.00052935    -0.00079026
H        -0.93470595     0.00235697     1.85992832    -0.00179193     0.00082672     0.00125924
H        -0.97743027     0.12016385    -0.54100069     0.00078415     0.00010877     0.00046368
     6
  Step:     5            Position(A)                                  Velocity(au)
C        -0.03626720     0.00009735    -0.00030982    -0.00000754    -0.00003581    -0.00005962
N        -0.04572094    -0.05533558     1.31691864     0.00014458    -0.00011506     0.00007096
H         0.93206260     0.08929144    -0.52353525     0.00027988     0.00056958    -0.00116436
H         0.84577980    -0.12415216     1.78203476    -0.00123104     0.00049933    -0.00059590
H        -0.95371197     0.01141513     1.87384532    -0.00159899     0.00082434     0.00122813
H        -0.96955160     0.12146621    -0.53697105     0.00063085     0.00013229     0.00025650
     6
  Step:     6            Position(A)                                  Velocity(au)
C        -0.03632349    -0.00030883    -0.00110724    -0.00000040    -0.00003842    -0.00008514
N        -0.04430072    -0.05659037     1.31790084     0.00010623    -0.00011371     0.00010704
H         0.93551083     0.09573388    -0.53702138     0.00032803     0.00060594    -0.00128081
H         0.83331881    -0.11888595     1.77684277    -0.00097352     0.00045934    -0.00031010
H        -0.96968682     0.02039109     1.88679606    -0.00126019     0.00081185     0.00109658
H        -0.96362924     0.12305799    -0.53538930     0.00043422     0.00016074     0.00002154
     6
  Step:     7            Position(A)                                  Velocity(au)
C        -0.03627594    -0.00074306    -0.00217251     0.00001093    -0.00004083    -0.00010863
N        -0.04339695    -0.05782325     1.31926037     0.00005299    -0.00011124     0.00013942
H         0.93923896     0.10254746    -0.55155537     0.00033008     0.00063702    -0.00135542
H         0.82448216    -0.11410326     1.77525077    -0.00058965     0.00041331     0.00004925
H        -0.98128098     0.02917594     1.89783502    -0.00081923     0.00079016     0.00089201
H        -0.96005226     0.12498281    -0.53649984     0.00021226     0.00019180    -0.00022864
     6
  Step:     8            Position(A)                                  Velocity(au)
C        -0.03608448    -0.00120205    -0.00348382     0.00002521    -0.00004282    -0.00013025
N        -0.04314147    -0.05902399     1.32095086    -0.00000880    -0.00010807     0.00016774
H         0.94273191     0.10966996    -0.56667386     0.00028582     0.00066213    -0.00138837
H         0.82041912    -0.10984397     1.77792017    -0.00013457     0.00036628     0.00044881
H        -0.98760909     0.03767742     1.90631049    -0.00031585     0.00076117     0.00063972
H        -0.95898572     0.12725396    -0.54039116    -0.00001344     0.00022242    -0.00047895
     6
  Step:     9            Position(A)                                  Velocity(au)
C        -0.03572452    -0.00167992    -0.00502197     0.00004101    -0.00004417    -0.00015025
N        -0.04358950    -0.06018748     1.32292996    -0.00007200    -0.00010467     0.00019277
H         0.94549181     0.11703288    -0.58192870     0.00019807     0.00068105    -0.00138192
H         0.82153820    -0.10609022     1.78506928     0.00031964     0.00032314     0.00084519
H        -0.98819089     0.04582795     1.91183019     0.00021512     0.00072740     0.00036220
H        -0.96034637     0.12984863    -0.54697769    -0.00022100     0.00024920    -0.00071371
     6
  Step:    10            Position(A)                                  Velocity(au)
C        -0.03518722    -0.00216840    -0.00677091     0.00005701    -0.00004468    -0.00016885
N        -0.04471663    -0.06131382     1.32516802    -0.00012971    -0.00010147     0.00021559
H         0.94706507     0.12456922    -0.59690594     0.00007174     0.00069399    -0.00133975
H         0.82741187    -0.10277458     1.79641030     0.00070137     0.00028744     0.00119441
H        -0.98290286     0.05359078     1.91423440     0.00074181     0.00069209     0.00008034
H        -0.96382058     0.13270568    -0.55600493    -0.00039175     0.00026889    -0.00091882
     6
  Step:    11            Position(A)                                  Velocity(au)
C        -0.03447726    -0.00265736    -0.00871590     0.00007214    -0.00004421    -0.00018602
N        -0.04642718    -0.06240736     1.32764647    -0.00017621    -0.00009884     0.00023674
H         0.94706118     0.13221519    -0.61123834    -0.00008674     0.00070139    -0.00126655
H         0.83688198    -0.09980203     1.81119939     0.00095640     0.00026054     0.00146156
H        -0.97196245     0.06096870     1.91358783     0.00123207     0.00065944    -0.00018460
H        -0.96891674     0.13573116    -0.56707871    -0.00051273     0.00027889    -0.00108346
     6
  Step:    12            Position(A)                                  Velocity(au)
C        -0.03360896    -0.00313567    -0.01084051     0.00008571    -0.00004273    -0.00020147
N        -0.04857152    -0.06347607     1.33034716    -0.00020741    -0.00009710     0.00025558
H         0.94516746     0.13991340    -0.62461416    -0.00026976     0.00070396    -0.00116763
H         0.84833500    -0.09707469     1.82838465     0.00105788     0.00024185     0.00162682
H        -0.95594902     0.06801721     1.91019586     0.00165061     0.00063516    -0.00040906
H        -0.97503764     0.13880696    -0.57970780    -0.00057782     0.00027747    -0.00120097
     6
  Step:    13            Position(A)                                  Velocity(au)
C        -0.03260227    -0.00359223    -0.01312339     0.00009733    -0.00004028    -0.00021462
N        -0.05096458    -0.06453156     1.33323778    -0.00022073    -0.00009664     0.00027024
H         0.94115970     0.14761564    -0.63678243    -0.00046884     0.00070267    -0.00104870
H         0.86002507    -0.09451106     1.84678927     0.00100597     0.00022939     0.00168617
H        -0.93585213     0.07486394     1.90463879     0.00195784     0.00062691    -0.00056636
H        -0.98155772     0.14180142    -0.59335216    -0.00058739     0.00026385    -0.00126886
     6
  Step:    14            Position(A)                                  Velocity(au)
C        -0.03147968    -0.00401686    -0.01553579     0.00010682    -0.00003697    -0.00022477
N        -0.05340044    -0.06559022     1.33625910    -0.00021475    -0.00009796     0.00027797
H         0.93491072     0.15528559    -0.64755638    -0.00067468     0.00069874    -0.00091579
H         0.87034261    -0.09205635     1.86527274     0.00082060     0.00022059     0.00164778
H        -0.91311760     0.08173213     1.89780573     0.00211213     0.00064445    -0.00062812
H        -0.98788788     0.14457921    -0.60746652    -0.00054668     0.00023802    -0.00128812
     6
  Step:    15            Position(A)                                  Velocity(au)
C        -0.03026530    -0.00440100    -0.01804063     0.00011403    -0.00003297    -0.00023113
N        -0.05566270    -0.06667473     1.33931882    -0.00018906    -0.00010168     0.00027590
H         0.92639972     0.16290199    -0.65681713    -0.00087714     0.00069377    -0.00077531
H         0.87797732    -0.08968531     1.88283766     0.00053201     0.00021291     0.00152712
H        -0.88964519     0.08896261     1.89089737     0.00207757     0.00069861    -0.00056930
H        -0.99351744     0.14700859    -0.62153234    -0.00046402     0.00020048    -0.00126225
     6
  Step:    16            Position(A)                                  Velocity(au)
C        -0.02898495    -0.00473820    -0.02059221     0.00011872    -0.00002849    -0.00023300
N        -0.05753652    -0.06781460     1.34229493    -0.00014470    -0.00010832     0.00026200
H         0.91572165     0.17046311    -0.66451769    -0.00106518     0.00068976    -0.00063404
H         0.88198143    -0.08739858     1.89868138     0.00017360     0.00020415     0.00134274
H        -0.86766681     0.09701563     1.88535131     0.00183682     0.00079885    -0.00037682
H        -0.99803921     0.14896507    -0.63508063    -0.00034903     0.00015195    -0.00119622
     6
  Step:    17            Position(A)                                  Velocity(au)
C        -0.02766815    -0.00502437    -0.02313794     0.00012045    -0.00002376    -0.00022984
N        -0.05882833    -0.06904440     1.34505062    -0.00008494    -0.00011810     0.00023603
H         0.90309689     0.17799173    -0.67068793    -0.00122703     0.00068921    -0.00049920
H         0.88177506    -0.08521917     1.91221259    -0.00022211     0.00019244     0.00111386
H        -0.84946133     0.10643899     1.88265368     0.00140561     0.00094935    -0.00005998
H        -1.00115317     0.15033272    -0.64770186    -0.00021136     0.00009317    -0.00109569
     6
  Step:    18            Position(A)                                  Velocity(au)
C        -0.02634985    -0.00525794    -0.02562047     0.00011867    -0.00001899    -0.00022135
N        -0.05939483    -0.07039824     1.34745850    -0.00001580    -0.00013059     0.00020003
H         0.88887804     0.18554095    -0.67543873    -0.00135063     0.00069518    -0.00037821
H         0.87712226    -0.08318857     1.92304930    -0.00062466     0.00017622     0.00085957
H        -0.83691638     0.11778440     1.88403910     0.00084077     0.00114481     0.00034320
H        -1.00266305     0.15100330    -0.65905090    -0.00005991     0.00002469    -0.00096645
     6
  Step:    19            Position(A)                                  Velocity(au)
C        -0.02507209    -0.00543975    -0.02798041     0.00011271    -0.00001440    -0.00020745
N        -0.05917407    -0.07190131     1.34942656     0.00005440    -0.00014460     0.00015799
H         0.87354933     0.19320001    -0.67896202    -0.00142440     0.00071118    -0.00027821
H         0.86810934    -0.08136400     1.93101741    -0.00100511     0.00015414     0.00059915
H        -0.83106783     0.13148392     1.89016173     0.00023304     0.00136881     0.00076967
H        -1.00246373     0.15087294    -0.66884490     0.00009750    -0.00005327    -0.00081410
     6
  Step:    20            Position(A)                                  Velocity(au)
C        -0.02388420    -0.00557297    -0.03015878     0.00010196    -0.00001019    -0.00018829
N        -0.05820473    -0.07356153     1.35091494     0.00011664    -0.00015836     0.00011466
H         0.85771651     0.20109935    -0.68152508    -0.00143839     0.00074112    -0.00020535
H         0.85513357    -0.07981650     1.93615682    -0.00133512     0.00012497     0.00035281
H        -0.83181819     0.14772976     1.90087713    -0.00031626     0.00159685     0.00114693
H        -1.00053012     0.14983798    -0.67686089     0.00025397    -0.00014093    -0.00064398
     6
  Step:    21            Position(A)                                  Velocity(au)
C        -0.02284148    -0.00566271    -0.03209953     0.00008604    -0.00000650    -0.00016429
N        -0.05662245    -0.07536574     1.35193491     0.00016321    -0.00017009     0.00007387
H         0.84208185     0.20941332    -0.68345438    -0.00138584     0.00078900    -0.00016352
H         0.83890109    -0.07863013     1.93873588    -0.00158655     0.00008749     0.00014228
H        -0.83798668     0.16641799     1.91525307    -0.00072428     0.00180360     0.00141375
H        -0.99690762     0.14778982    -0.68293325     0.00040349    -0.00023909    -0.00046123
     6
  Step:    22            Position(A)                                  Velocity(au)
C        -0.02200199    -0.00571524    -0.03375303     0.00006491    -0.00000337    -0.00013630
N        -0.05463428    -0.07728250     1.35253107     0.00018918    -0.00017847     0.00003763
H         0.82739857     0.21836020    -0.68510244    -0.00126498     0.00085852    -0.00015295
H         0.82042470    -0.07790238     1.93926946    -0.00173253     0.00004033    -0.00000983
H        -0.84766323     0.18718698     1.93180551    -0.00094563     0.00197074     0.00153503
H        -0.99170309     0.14460739    -0.68695125     0.00054065    -0.00034934    -0.00027084
     6
  Step:    23            Position(A)                                  Velocity(au)
C        -0.02142135    -0.00573654    -0.03508144     0.00003910    -0.00000067    -0.00010579
N        -0.05248370    -0.07927016     1.35275811     0.00019277    -0.00018303     0.00000607
H         0.81440797     0.22819507    -0.68680036    -0.00108048     0.00095281    -0.00016864
H         0.80099865    -0.07774773     1.93852091    -0.00175063    -0.00001851    -0.00008208
H        -0.85867423     0.20953175     1.94883477    -0.00097421     0.00209156     0.00150472
H        -0.98507982     0.14014737    -0.68885837     0.00066066    -0.00047455    -0.00007768
     6
  Step:    24            Position(A)                                  Velocity(au)
C        -0.02114662    -0.00572983    -0.03606743     0.00000260     0.00000759    -0.00012770
N        -0.05041716    -0.08128660     1.35266396     0.00017762    -0.00018903     0.00001772
H         0.80376097     0.23920464    -0.68879170    -0.00085436     0.00115506    -0.00012684
H         0.78212636    -0.07830723     1.93747382    -0.00166093    -0.00017296    -0.00006365
H        -0.86897594     0.23294380     1.96472408    -0.00079961     0.00227881     0.00130868
H        -0.97724999     0.13422564    -0.68865056     0.00081576    -0.00072453     0.00015727
     6
  Step:    25            Position(A)                                  Velocity(au)
C        -0.02136457    -0.00557053    -0.03787507    -0.00004155     0.00002133    -0.00020565
N        -0.04859803    -0.08340563     1.35314585     0.00014591    -0.00019642     0.00007418
H         0.79571720     0.25346420    -0.68957518    -0.00060495     0.00145582    -0.00001696
H         0.76466261    -0.08153163     1.93712848    -0.00146304    -0.00041684     0.00004173
H        -0.87616716     0.25938512     1.97746469    -0.00045842     0.00252475     0.00096976
H        -0.96723346     0.12429684    -0.68541776     0.00099386    -0.00108847     0.00042522
     6
  Step:    26            Position(A)                                  Velocity(au)
C        -0.02205559    -0.00526310    -0.04056632    -0.00008218     0.00003463    -0.00028634
N        -0.04722505    -0.08558370     1.35428682     0.00009808    -0.00020005     0.00013533
H         0.79052653     0.27105341    -0.68916280    -0.00034207     0.00176319     0.00009504
H         0.75011953    -0.08742639     1.93838664    -0.00113754    -0.00066304     0.00022439
H        -0.87900476     0.28817744     1.98593932    -0.00002257     0.00271518     0.00054595
H        -0.95550741     0.11041328    -0.67934795     0.00111848    -0.00144801     0.00066611
     6
  Step:    27            Position(A)                                  Velocity(au)
C        -0.02316244    -0.00481300    -0.04413926    -0.00011573     0.00004744    -0.00036372
N        -0.04645230    -0.08778218     1.35610652     0.00003879    -0.00020030     0.00019602
H         0.78823384     0.29203736    -0.68749603    -0.00008519     0.00207430     0.00021530
H         0.73977667    -0.09603689     1.94203749    -0.00071691    -0.00091478     0.00046590
H        -0.87666103     0.31878495     1.98940846     0.00047308     0.00286205     0.00006984
H        -0.94276463     0.09261891    -0.67084528     0.00116900    -0.00180344     0.00085917
     6
  Step:    28            Position(A)                                  Velocity(au)
C        -0.02458744    -0.00422535    -0.04852335    -0.00013857     0.00005991    -0.00043219
N        -0.04637636    -0.08996569     1.35857516    -0.00002629    -0.00019746     0.00025297
H         0.78866273     0.31643276    -0.68445264     0.00014544     0.00238355     0.00034942
H         0.73443570    -0.10743885     1.94857908    -0.00025323    -0.00117386     0.00073256
H        -0.86865532     0.35079032     1.98746718     0.00099976     0.00297538    -0.00043044
H        -0.92993325     0.07095964    -0.66055187     0.00112459    -0.00215501     0.00098316
     6
  Step:    29            Position(A)                                  Velocity(au)
C        -0.02619397    -0.00350232    -0.05359426    -0.00014754     0.00007248    -0.00048751
N        -0.04702744    -0.09210210     1.36164079    -0.00009107    -0.00019194     0.00030491
H         0.79141555     0.34418198    -0.67985174     0.00033073     0.00268350     0.00050164
H         0.73423685    -0.12171734     1.95806370     0.00019103    -0.00144001     0.00098150
H        -0.85478926     0.38387717     1.97999184     0.00153360     0.00306448    -0.00093083
H        -0.91816200     0.04547387    -0.64933672     0.00096831    -0.00250446     0.00101991
     6
  Step:    30            Position(A)                                  Velocity(au)
C        -0.02781510    -0.00263960    -0.05918862    -0.00014067     0.00008586    -0.00052690
N        -0.04836876    -0.09416483     1.36524560    -0.00014983    -0.00018441     0.00035148
H         0.79589800     0.37513948    -0.67347825     0.00045459     0.00296591     0.00067360
H         0.73861482    -0.13894182     1.97005124     0.00055641    -0.00171024     0.00117119
H        -0.83510493     0.41783167     1.96710358     0.00205350     0.00313939    -0.00140977
H        -0.90874965     0.01616983    -0.63823934     0.00069392    -0.00285564     0.00095936
     6
  Step:    31            Position(A)                                  Velocity(au)
C        -0.02927142    -0.00162405    -0.06512120    -0.00011808     0.00010084    -0.00054927
N        -0.05030536    -0.09613633     1.36933009    -0.00019799    -0.00017587     0.00039230
H         0.80136050     0.40906693    -0.66511554     0.00050539     0.00322250     0.00086381
H         0.74640944    -0.15913202     1.98368570     0.00079867    -0.00197877     0.00127134
H        -0.80986503     0.45255743     1.94915050     0.00253972     0.00321225    -0.00184691
H        -0.90298124    -0.01699871    -0.62834883     0.00031454    -0.00321379     0.00080538
     6
  Step:    32            Position(A)                                  Velocity(au)
C        -0.03039830    -0.00043351    -0.07120487    -0.00008254     0.00011806    -0.00055537
N        -0.05270007    -0.09801225     1.37382798    -0.00023252    -0.00016768     0.00042640
H         0.80695448     0.44563794    -0.65458084     0.00047698     0.00344584     0.00106783
H         0.75608717    -0.18223112     1.99786416     0.00089496    -0.00223811     0.00126817
H        -0.77954359     0.48810581     1.92669899     0.00297379     0.00329813    -0.00222296
H        -0.90186851    -0.05413797    -0.62062022    -0.00013108    -0.00358259     0.00057944
     6
  Step:    33            Position(A)                                  Velocity(au)
C        -0.03107708     0.00095868    -0.07727089    -0.00003933     0.00013749    -0.00054756
N        -0.05539208    -0.09980462     1.37865838    -0.00025211    -0.00016136     0.00045224
H         0.81179534     0.48445124    -0.64175468     0.00036867     0.00362983     0.00127915
H         0.76598839    -0.20809502     2.01142932     0.00084333    -0.00248054     0.00116405
H        -0.74480772     0.52471036     1.90051898     0.00334048     0.00341424    -0.00252126
H        -0.90584884    -0.09537465    -0.61567239    -0.00058048    -0.00395967     0.00031854
     6
  Step:    34            Position(A)                                  Velocity(au)
C        -0.03125868     0.00257442    -0.08318388     0.00000489     0.00015819    -0.00052907
N        -0.05821537    -0.10154231     1.38372150    -0.00025707    -0.00015823     0.00046818
H         0.81501989     0.52504749    -0.62659703     0.00018459     0.00377007     0.00149036
H         0.77453664    -0.23649766     2.02333000     0.00065739    -0.00269951     0.00097322
H        -0.70646411     0.56279887     1.87154159     0.00363227     0.00357623    -0.00273109
H        -0.91456772    -0.14076333    -0.61365155    -0.00096021    -0.00433305     0.00006612
     6
  Step:    35            Position(A)                                  Velocity(au)
C        -0.03097013     0.00441936    -0.08884534     0.00004379     0.00017825    -0.00050293
N        -0.06101588    -0.10326617     1.38890062    -0.00024921    -0.00015883     0.00047306
H         0.81583353     0.56692876    -0.60915016    -0.00006739     0.00386391     0.00169420
H         0.78037004    -0.26715201     2.03272036     0.00035991    -0.00289053     0.00071644
H        -0.66534494     0.60294713     1.84077109     0.00385392     0.00379117    -0.00285137
H        -0.92685525    -0.19016843    -0.61422586    -0.00120503    -0.00468151    -0.00014000
     6
  Step:    36            Position(A)                                  Velocity(au)
C        -0.03030075     0.00647404    -0.09418650     0.00007288     0.00019529    -0.00047129
N        -0.06366741    -0.10501706     1.39407059    -0.00023168    -0.00016229     0.00046662
H         0.81354570     0.60957783    -0.58953326    -0.00037688     0.00391026     0.00188424
H         0.78241046    -0.29973362     2.03900357    -0.00002213    -0.00305147     0.00041680
H        -0.62215225     0.64573795     1.80916244     0.00402459     0.00404876    -0.00289240
H        -0.94093016    -0.24318028    -0.61671442    -0.00127460    -0.00497953    -0.00027694
     6
  Step:    37            Position(A)                                  Velocity(au)
C        -0.02937569     0.00869180    -0.09915574     0.00009012     0.00020700    -0.00043525
N        -0.06608421    -0.10681656     1.39910886    -0.00020837    -0.00016581     0.00044949
H         0.80758856     0.65247326    -0.56792884    -0.00073229     0.00390937     0.00205544
H         0.77988581    -0.33390886     2.04183860    -0.00046095    -0.00318310     0.00009720
H        -0.57729930     0.69152149     1.77749423     0.00417421     0.00431517    -0.00287353
H        -0.95473955    -0.29910528    -0.62028437    -0.00115923    -0.00520403    -0.00033889
     6
  Step:    38            Position(A)                                  Velocity(au)
C        -0.02832918     0.01100261    -0.10370839     0.00009550     0.00021154    -0.00039539
N        -0.06822597    -0.10864443     1.40390411    -0.00018316    -0.00016472     0.00042287
H         0.79752555     0.69510277    -0.54456659    -0.00112147     0.00386231     0.00220436
H         0.77232625    -0.36937007     2.04113009    -0.00092957    -0.00328992    -0.00022046
H        -0.53083335     0.74014050     1.74629855     0.00433298     0.00453483    -0.00281580
H        -0.96629054    -0.35702845    -0.62412820    -0.00087471    -0.00533891    -0.00033293
     6
  Step:    39            Position(A)                                  Velocity(au)
C        -0.02728639     0.01331957    -0.10780556     0.00009021     0.00020752    -0.00035289
N        -0.07009115    -0.11042023     1.40835996    -0.00015861    -0.00015297     0.00038819
H         0.78305417     0.73696875    -0.51970424    -0.00153162     0.00376972     0.00232977
H         0.75954965    -0.40588220     2.03701559    -0.00140274    -0.00338203    -0.00051528
H        -0.48250709     0.79072958     1.71589331     0.00451561     0.00464035    -0.00273198
H        -0.97387552    -0.41590414    -0.62756775    -0.00045208    -0.00537520    -0.00027182
     6
  Step:    40            Position(A)                                  Velocity(au)
C        -0.02635572     0.01554249    -0.11142855     0.00007572     0.00019342    -0.00031288
N        -0.07169583    -0.11199096     1.41239658    -0.00013412    -0.00012251     0.00034823
H         0.76401844     0.77757259    -0.49359848    -0.00194077     0.00362020     0.00243506
H         0.74163853    -0.44335842     2.02985745    -0.00185290    -0.00347803    -0.00076823
H        -0.43204577     0.84165701     1.68653130     0.00468861     0.00455465    -0.00261326
H        -0.97618059    -0.47462116    -0.63007474     0.00006652    -0.00529928    -0.00016431
     6
  Step:    41            Position(A)                                  Velocity(au)
C        -0.02562988     0.01755106    -0.11465046     0.00005536     0.00017244    -0.00027839
N        -0.07302520    -0.11310039     1.41597821    -0.00010978    -0.00007193     0.00030699
H         0.74059617     0.81616755    -0.46643258    -0.00225439     0.00332701     0.00250237
H         0.71901381    -0.48197072     2.02020916    -0.00217314    -0.00352623    -0.00099587
H        -0.37993484     0.89037124     1.65872320     0.00469969     0.00418926    -0.00244709
H        -0.97242031    -0.53183611    -0.63116234     0.00059378    -0.00504533    -0.00000801
     6
  Step:    42            Position(A)                                  Velocity(au)
C        -0.02514467     0.01931488    -0.11751884     0.00000280     0.00007113    -0.00045531
N        -0.07409754    -0.11356455     1.41911249     0.00001651     0.00013782     0.00034169
H         0.71469936     0.85035729    -0.43885430    -0.00291451     0.00329183     0.00293875
H         0.69409696    -0.52050153     2.00807086    -0.00321806    -0.00459141    -0.00083228
H        -0.32923099     0.93330513     1.63299659     0.00448891     0.00338223    -0.00170790
H        -0.96319054    -0.58499747    -0.63024987     0.00138087    -0.00484547     0.00027882
     6
  Step:    43            Position(A)                                  Velocity(au)
C        -0.02526133     0.01997324    -0.12200411    -0.00002638     0.00004525    -0.00036452
N        -0.07392364    -0.11180611     1.42241200     0.00001554     0.00019255     0.00025791
H         0.68074613     0.88514184    -0.40695278    -0.00328824     0.00306683     0.00287597
H         0.65756209    -0.57057846     1.99824479    -0.00343985    -0.00459347    -0.00092312
H        -0.27842751     0.96788046     1.61483340     0.00478765     0.00286794    -0.00158593
H        -0.94453246    -0.63656234    -0.62656538     0.00203882    -0.00455635     0.00039277
     6
  Step:    44            Position(A)                                  Velocity(au)
C        -0.02572176     0.02030471    -0.12549345    -0.00005934     0.00001267    -0.00027121
N        -0.07375757    -0.10935205     1.42475485     0.00001536     0.00026209     0.00016665
H         0.64276280     0.91745013    -0.37593684    -0.00364377     0.00283658     0.00277235
H         0.61884364    -0.62099250     1.98787590    -0.00361803    -0.00464072    -0.00094279
H        -0.22449202     0.99604678     1.59830141     0.00505305     0.00222757    -0.00141304
H        -0.91858736    -0.68467633    -0.62165728     0.00270231    -0.00421660     0.00049945
     6