     6
  Step:     0            Position(A)                                  Velocity(au)
C        -0.04051991     0.02828272    -0.00110314     0.00008970    -0.00005942    -0.00015289
N        -0.04115399    -0.05703346     1.30957321     0.00015653     0.00012473     0.00011669
H         0.91971202    -0.06759477    -0.47677965    -0.00059879     0.00026850     0.00047568
H         0.82765777    -0.13057207     1.87593583    -0.00088508    -0.00070580    -0.00123537
H        -0.90477865    -0.06511543     1.86030895    -0.00160865    -0.00051099     0.00106390
H        -1.00080093     0.04904250    -0.55256882    -0.00015147    -0.00007693    -0.00010396
     6
  Step:     1            Position(A)                                  Velocity(au)
C        -0.04004743     0.02796733    -0.00198195     0.00008209    -0.00005593    -0.00016755
N        -0.04029176    -0.05635673     1.31028074     0.00015612     0.00012289     0.00014167
H         0.91674977    -0.06617195    -0.47457113    -0.00047574     0.00025122     0.00032741
H         0.82275955    -0.13441447     1.86916673    -0.00089029    -0.00070095    -0.00122773
H        -0.91368184    -0.06791781     1.86624495    -0.00162467    -0.00051356     0.00109211
H        -1.00164881     0.04861880    -0.55330456    -0.00015688    -0.00007799    -0.00016398
     6
  Step:     2            Position(A)                                  Velocity(au)
C        -0.03962184     0.02767087    -0.00293615     0.00007262    -0.00005248    -0.00018034
N        -0.03944599    -0.05568901     1.31112309     0.00015048     0.00012137     0.00016569
H         0.91450728    -0.06484637    -0.47319766    -0.00033709     0.00023299     0.00017129
H         0.81791769    -0.13824070     1.86250403    -0.00086323    -0.00069972    -0.00119535
H        -0.92255301    -0.07073389     1.87225696    -0.00159740    -0.00051552     0.00109198
H        -1.00251721     0.04818926    -0.55436278    -0.00015866    -0.00007903    -0.00022160
     6
  Step:     3            Position(A)                                  Velocity(au)
C        -0.03925267     0.02739301    -0.00395551     0.00006158    -0.00004913    -0.00019128
N        -0.03864495    -0.05502845     1.31209406     0.00013983     0.00012022     0.00018842
H         0.91306068    -0.06362219    -0.47269657    -0.00018675     0.00021425     0.00000975
H         0.81331253    -0.14207202     1.85608507    -0.00080319    -0.00070267    -0.00113808
H        -0.93116349    -0.07355960     1.87819540    -0.00153048    -0.00051669     0.00106592
H        -1.00338516     0.04775396    -0.55572974    -0.00015647    -0.00008006    -0.00027658
     6
  Step:     4            Position(A)                                  Velocity(au)
C        -0.03894774     0.02713311    -0.00503007     0.00004931    -0.00004591    -0.00020047
N        -0.03791528    -0.05437303     1.31318563     0.00012455     0.00011946     0.00020954
H         0.91246293    -0.06250104    -0.47309096    -0.00002917     0.00019549    -0.00015457
H         0.80912537    -0.14593265     1.85004577    -0.00071072    -0.00071031    -0.00105672
H        -0.93930675    -0.07638998     1.88392534    -0.00142830    -0.00051695     0.00101685
H        -1.00423006     0.04731282    -0.55739041    -0.00015008    -0.00008114    -0.00032874
     6
  Step:     5            Position(A)                                  Velocity(au)
C        -0.03871281     0.02689031    -0.00615037     0.00003619    -0.00004289    -0.00020800
N        -0.03728128    -0.05372052     1.31438832     0.00010511     0.00011913     0.00022888
H         0.91274130    -0.06148181    -0.47438888     0.00013091     0.00017720    -0.00031892
H         0.80553100    -0.14984913     1.84451519    -0.00058771    -0.00072299    -0.00095302
H        -0.94680166    -0.07921957     1.88932873    -0.00129559    -0.00051625     0.00094791
H        -1.00502839     0.04686556    -0.55932905    -0.00013938    -0.00008229    -0.00037801
     6
  Step:     6            Position(A)                                  Velocity(au)
C        -0.03855145     0.02666344    -0.00730769     0.00002264    -0.00004011    -0.00021404
N        -0.03676436    -0.05306857     1.31569183     0.00008208     0.00011925     0.00024631
H         0.91389633    -0.06056066    -0.47658309     0.00028866     0.00015987    -0.00048061
H         0.80268994    -0.15384943     1.83961023    -0.00043745    -0.00074086    -0.00082963
H        -0.95349344    -0.08204293     1.89430498    -0.00113715    -0.00051463     0.00086229
H        -1.00575625     0.04641179    -0.56152965    -0.00012435    -0.00008353    -0.00042440
     6
  Step:     7            Position(A)                                  Velocity(au)
C        -0.03846493     0.02645112    -0.00849417     0.00000905    -0.00003760    -0.00021874
N        -0.03638248    -0.05241475     1.31708549     0.00005613     0.00011981     0.00026183
H         0.91590214    -0.05973124    -0.47965161     0.00043943     0.00014391    -0.00063706
H         0.80074089    -0.15796168     1.83543061    -0.00026454    -0.00076380    -0.00069006
H        -0.95925370    -0.08485481     1.89877101    -0.00095762    -0.00051212     0.00076307
H        -1.00638999     0.04595095    -0.56397634    -0.00010506    -0.00008488    -0.00046796
     6
  Step:     8            Position(A)                                  Velocity(au)
C        -0.03845231     0.02625176    -0.00970281    -0.00000417    -0.00003540    -0.00022225
N        -0.03614977    -0.05175669     1.31855878     0.00002797     0.00012080     0.00027550
H         0.91870791    -0.05898489    -0.48355870     0.00057892     0.00012971    -0.00078592
H         0.79979335    -0.16221274     1.83205436    -0.00007484    -0.00079141    -0.00053854
H        -0.96397905    -0.08765042     1.90266030    -0.00076135    -0.00050880     0.00065312
H        -1.00690664     0.04548236    -0.56665368    -0.00008169    -0.00008637    -0.00050879
