     6
  Step:     0            Position(A)                                  Velocity(au)
C        -0.03342168    -0.00325513     0.03811967    -0.00003820     0.00011495    -0.00002711
N        -0.04914484    -0.04249570     1.27661421    -0.00017452    -0.00008109     0.00001462
H         0.86297244     0.05785114    -0.49502483    -0.00012897    -0.00060574     0.00053673
H         0.81574290    -0.13688611     1.87881099     0.00106582     0.00037924     0.00083442
H        -0.84187895    -0.07531398     1.84413025     0.00182729     0.00011565    -0.00075503
H        -0.96858527     0.11389442    -0.53039100     0.00011634    -0.00013202    -0.00049618
     6
  Step:     1            Position(A)                                  Velocity(au)
C        -0.03366066    -0.00263030     0.03773199    -0.00004927     0.00011366    -0.00011405
N        -0.05004329    -0.04294174     1.27692942    -0.00015147    -0.00008210     0.00009936
H         0.86291383     0.05461800    -0.49262977     0.00011041    -0.00057730     0.00033708
H         0.82142548    -0.13481471     1.88321417     0.00100154     0.00037976     0.00076714
H        -0.83262150    -0.07472651     1.84049784     0.00153070     0.00009813    -0.00055287
H        -0.96813336     0.11322164    -0.53331714     0.00004939    -0.00011415    -0.00057295
     6
  Step:     2            Position(A)                                  Velocity(au)
C        -0.03396060    -0.00201186     0.03687211    -0.00006036     0.00011265    -0.00019945
N        -0.05080163    -0.04339368     1.27770103    -0.00012369    -0.00008325     0.00018117
H         0.86418008     0.05153645    -0.49133774     0.00035245    -0.00055070     0.00013550
H         0.82669798    -0.13273215     1.88720214     0.00091773     0.00038318     0.00068423
H        -0.82513579    -0.07424058     1.83808283     0.00118396     0.00007874    -0.00031288
H        -0.96804507     0.11264581    -0.53665808    -0.00001595    -0.00009667    -0.00064778
     6
  Step:     3            Position(A)                                  Velocity(au)
C        -0.03432075    -0.00139826     0.03555076    -0.00007118     0.00011196    -0.00028263
N        -0.05139604    -0.04385223     1.27891077    -0.00009205    -0.00008455     0.00025947
H         0.86676832     0.04859526    -0.49114786     0.00059108    -0.00052645    -0.00006400
H         0.83146215    -0.13062410     1.89069721     0.00081764     0.00038907     0.00058863
H        -0.81967317    -0.07386535     1.83707605     0.00079704     0.00005793    -0.00004208
H        -0.96830775     0.11216438    -0.54040152    -0.00007836    -0.00007975    -0.00072030
     6
  Step:     4            Position(A)                                  Velocity(au)
C        -0.03473883    -0.00078780     0.03378206    -0.00008143     0.00011153    -0.00036288
N        -0.05180799    -0.04431803     1.28053783    -0.00005752    -0.00008592     0.00033378
H         0.87064248     0.04578067    -0.49203746     0.00082012    -0.00050466    -0.00025757
H         0.83563741    -0.12847838     1.89363780     0.00070399     0.00039686     0.00048291
H        -0.81642160    -0.07360720     1.83762280     0.00038226     0.00003621     0.00025026
H        -0.96890178     0.11177393    -0.54453323    -0.00013658    -0.00006347    -0.00078979
     6
  Step:     5            Position(A)                                  Velocity(au)
C        -0.03521094    -0.00017904     0.03158390    -0.00009078     0.00011126    -0.00043921
N        -0.05202485    -0.04479144     1.28255954    -0.00002128    -0.00008727     0.00040356
H         0.87573357     0.04307855    -0.49396350     0.00103304    -0.00048507    -0.00044126
H         0.83915784    -0.12628583     1.89597617     0.00057915     0.00040576     0.00036942
H        -0.81549441    -0.07346953     1.83981174    -0.00004547     0.00001415     0.00055246
H        -0.96980073     0.11147053    -0.54903516    -0.00018923    -0.00004792    -0.00085501
     6
  Step:     6            Position(A)                                  Velocity(au)
C        -0.03573146     0.00042883     0.02897938    -0.00009884     0.00011096    -0.00051019
N        -0.05204067    -0.04527228     1.28495074     0.00001534    -0.00008844     0.00046797
H         0.88193862     0.04047647    -0.49686257     0.00122281    -0.00046710    -0.00061081
H         0.84197036    -0.12404151     1.89767737     0.00044555     0.00041474     0.00025064
H        -0.81691878    -0.07345246     1.84366388    -0.00046872    -0.00000759     0.00085063
H        -0.97097102     0.11124990    -0.55388261    -0.00023482    -0.00003317    -0.00091405
     6
  Step:     7            Position(A)                                  Velocity(au)
C        -0.03629292     0.00103553     0.02599920    -0.00010525     0.00011037    -0.00057391
N        -0.05185699    -0.04575956     1.28768210     0.00005079    -0.00008925     0.00052576
H         0.88911872     0.03796552    -0.50064956     0.00138197    -0.00044989    -0.00076154
H         0.84403498    -0.12174596     1.89871977     0.00030607     0.00042257     0.00012947
H        -0.82062513    -0.07355258     1.84912291    -0.00086801    -0.00002828     0.00112910
H        -0.97237114     0.11110742    -0.55904059    -0.00027168    -0.00001932    -0.00096435
     6
  Step:     8            Position(A)                                  Velocity(au)
C        -0.03688589     0.00163942     0.02268430    -0.00010960     0.00010920    -0.00062801
N        -0.05148353    -0.04625120     1.29071766     0.00008345    -0.00008944     0.00057524
H         0.89709720     0.03554176    -0.50521569     0.00150314    -0.00043242    -0.00088851
H         0.84532752    -0.11940646     1.89909748     0.00016442     0.00042783     0.00000948
H        -0.82643980    -0.07376270     1.85604874    -0.00122302    -0.00004718     0.00137162
H        -0.97395098     0.11103796    -0.56446040    -0.00029812    -0.00000652    -0.00100290
     6
  Step:     9            Position(A)                                  Velocity(au)
C        -0.03749902     0.00223724     0.01908824    -0.00011159     0.00010717    -0.00066999
N        -0.05093865    -0.04674384     1.29401237     0.00011167    -0.00008880     0.00061450
H         0.90566010     0.03320697    -0.51042719     0.00157990    -0.00041370    -0.00098705
H         0.84584433    -0.11703787     1.89882405     0.00002537     0.00042914    -0.00010502
H        -0.83408389    -0.07407180     1.86421691    -0.00151459    -0.00006355     0.00156304
H        -0.97565185     0.11103565    -0.57007705    -0.00031270     0.00000504    -0.00102664
     6
  Step:    10            Position(A)                                  Velocity(au)
C        -0.03811945     0.00282417     0.01527803    -0.00011105     0.00010407    -0.00069768
N        -0.05024907    -0.04723283     1.29751056     0.00013404    -0.00008714     0.00064175
H         0.91456197     0.03096853    -0.51612686     0.00160822    -0.00039300    -0.00105362
H         0.84560797    -0.11466258     1.89793650    -0.00010547     0.00042536    -0.00020926
H        -0.84318260    -0.07446521     1.87332708    -0.00172753    -0.00007677     0.00169171
H        -0.97740770     0.11109366    -0.57580919    -0.00031452     0.00001515    -0.00103317
     6
  Step:    11            Position(A)                                  Velocity(au)
C        -0.03873353     0.00339422     0.01133217    -0.00010802     0.00009983    -0.00070998
N        -0.04944856    -0.04771252     1.30114666     0.00014961    -0.00008438     0.00065596
H         0.92353857     0.02883802    -0.52214016     0.00158793    -0.00037005    -0.00108691
H         0.84467182    -0.11230912     1.89649774    -0.00022229     0.00041597    -0.00029865
H        -0.85328875    -0.07492530     1.88302351    -0.00185367    -0.00008649     0.00175196
H        -0.97914836     0.11120411    -0.58156270    -0.00030364     0.00002365    -0.00102165
     6
  Step:    12            Position(A)                                  Velocity(au)
C        -0.03932801     0.00394104     0.00733487    -0.00010286     0.00009459    -0.00070756
N        -0.04857531    -0.04817690     1.30484935     0.00015815    -0.00008066     0.00065756
H         0.93232743     0.02682843    -0.52828700     0.00152395    -0.00034534    -0.00108897
H         0.84312103    -0.11000877     1.89459529    -0.00032018     0.00040136    -0.00036978
H        -0.86392113    -0.07543284     1.89292766    -0.00189436    -0.00009270     0.00174606
H        -0.98080476     0.11135827    -0.58723920    -0.00028132     0.00003047    -0.00099364
     6
  Step:    13            Position(A)                                  Velocity(au)
C        -0.03989158     0.00445909     0.00336636    -0.00009619     0.00008872    -0.00069323
N        -0.04766809    -0.04862060     1.30854957     0.00016028    -0.00007628     0.00064884
H         0.94069533     0.02495016    -0.53439988     0.00142626    -0.00032008    -0.00106560
H         0.84106722    -0.10779054     1.89233466    -0.00039635     0.00038299    -0.00042138
H        -0.87461567    -0.07596892     1.90268086    -0.00186104    -0.00009584     0.00168450
H        -0.98231547     0.11154714    -0.59274925    -0.00024993     0.00003571    -0.00095344
     6
  Step:    14            Position(A)                                  Velocity(au)
C        -0.04041640     0.00494488    -0.00050881    -0.00008879     0.00008275    -0.00067146
N        -0.04676175    -0.04903994     1.31219079     0.00015729    -0.00007168     0.00063362
H         0.94846515     0.02320688    -0.54034398     0.00130777    -0.00029594    -0.00102533
H         0.83863649    -0.10567532     1.88982752    -0.00045071     0.00036307    -0.00045453
H        -0.88497822    -0.07651722     1.91198729    -0.00177232    -0.00009670     0.00158333
H        -0.98363269     0.11176237    -0.59802712    -0.00021241     0.00003967    -0.00090726
     6
  Step:    15            Position(A)                                  Velocity(au)
C        -0.04089887     0.00539777    -0.00425074    -0.00008138     0.00007716    -0.00064700
N        -0.04588373    -0.04943374     1.31573738     0.00015068    -0.00006731     0.00061604
H         0.95553074     0.02159298    -0.54603129     0.00118054    -0.00027448    -0.00097690
H         0.83595428    -0.10367179     1.88717844    -0.00048522     0.00034383    -0.00047189
H        -0.89472104    -0.07706590     1.92064226    -0.00164810    -0.00009621     0.00145909
H        -0.98472511     0.11199719    -0.60304124    -0.00017136     0.00004274    -0.00086132
     6
  Step:    16            Position(A)                                  Velocity(au)
C        -0.04133924     0.00581985    -0.00784559    -0.00007441     0.00007227    -0.00062330
N        -0.04505306    -0.04980317     1.31917652     0.00014165    -0.00006343     0.00059916
H         0.96185211     0.02009429    -0.55142180     0.00105263    -0.00025659    -0.00092680
H         0.83313426    -0.10177634     1.88447644    -0.00050217     0.00032677    -0.00047611
H        -0.90366720    -0.07760820     1.92853300    -0.00150372    -0.00009513     0.00132409
H        -0.98557588     0.11224706    -0.60779426    -0.00012844     0.00004531    -0.00081995
     6
  Step:    17            Position(A)                                  Velocity(au)
C        -0.04174022     0.00621488    -0.01129845    -0.00006803     0.00006813    -0.00060182
N        -0.04428209    -0.05015096     1.32251208     0.00013086    -0.00006013     0.00058419
H         0.96743284     0.01869171    -0.55651058     0.00092725    -0.00024233    -0.00087805
H         0.83027619    -0.09997706     1.88179505    -0.00050292     0.00031233    -0.00046872
H        -0.91172366    -0.07814150     1.93561378    -0.00134775    -0.00009391     0.00118468
H        -0.98617735     0.11250955    -0.61231241    -0.00008435     0.00004766    -0.00078474
     6
  Step:    18            Position(A)                                  Velocity(au)
C        -0.04210526     0.00658698    -0.01462216    -0.00006217     0.00006463    -0.00058232
N        -0.04357957    -0.05048022     1.32575463     0.00011851    -0.00005731     0.00057083
H         0.97229312     0.01736565    -0.56130882     0.00080431    -0.00023120    -0.00083101
H         0.82747131    -0.09825942     1.87919860    -0.00048756     0.00030022    -0.00045001
H        -0.91884309    -0.07866560     1.94187273    -0.00118348    -0.00009272     0.00104282
H        -0.98652568     0.11278375    -0.61663061    -0.00003930     0.00004994    -0.00075522
     6
  Step:    19            Position(A)                                  Velocity(au)
C        -0.04243735     0.00693965    -0.01782835    -0.00005668     0.00006161    -0.00056386
N        -0.04295314    -0.05079361     1.32891309     0.00010463    -0.00005484     0.00055806
H         0.97645197     0.01609918    -0.56582912     0.00068262    -0.00022250    -0.00078482
H         0.82480895    -0.09661055     1.87674881    -0.00045571     0.00028981    -0.00041978
H        -0.92499471    -0.07918122     1.94730743    -0.00101199    -0.00009159     0.00089865
H        -0.98661807     0.11306952    -0.62078105     0.00000654     0.00005219    -0.00073001
     6
  Step:    20            Position(A)                                  Velocity(au)
C        -0.04273868     0.00727548    -0.02092326    -0.00005143     0.00005890    -0.00054542
N        -0.04241030    -0.05109303     1.33199089     0.00008925    -0.00005258     0.00054484
H         0.97992143     0.01487918    -0.57007911     0.00056127    -0.00021563    -0.00073856
H         0.82237880    -0.09502078     1.87450753    -0.00040716     0.00028055    -0.00037793
H        -0.93015206    -0.07968913     1.95191514    -0.00083423    -0.00009050     0.00075236
H        -0.98645265     0.11336696    -0.62478852     0.00005284     0.00005445    -0.00070781
     6
  Step:    21            Position(A)                                  Velocity(au)
C        -0.04301062     0.00759614    -0.02390768    -0.00004632     0.00005638    -0.00052630
N        -0.04195841    -0.05137969     1.33498588     0.00007247    -0.00005045     0.00053042
H         0.98270791     0.01369572    -0.57406110     0.00043995    -0.00021015    -0.00069170
H         0.82027069    -0.09348352     1.87253634    -0.00034238     0.00027206    -0.00032487
H        -0.93429303    -0.08018997     1.95569330    -0.00065178    -0.00008946     0.00060473
H        -0.98602913     0.11367646    -0.62867029     0.00009913     0.00005678    -0.00068763
     6
  Step:    22            Position(A)                                  Velocity(au)
C        -0.04325399     0.00790270    -0.02677840    -0.00003868     0.00005625    -0.00055173
N        -0.04160407    -0.05165426     1.33789187     0.00005347    -0.00005014     0.00055013
H         0.98481588     0.01254129    -0.57777424     0.00028097    -0.00026506    -0.00061317
H         0.81856978    -0.09199412     1.87089330    -0.00027314     0.00033053    -0.00027202
H        -0.93740310    -0.08068442     1.95864279    -0.00045291    -0.00014771     0.00044057
H        -0.98534985     0.11399865    -0.63243846     0.00016298     0.00010878    -0.00062562
     6
  Step:    23            Position(A)                                  Velocity(au)
C        -0.04344040     0.00822112    -0.03003817    -0.00002819     0.00005869    -0.00062589
N        -0.04136427    -0.05193682     1.34109851     0.00003247    -0.00005184     0.00060795
H         0.98582981     0.01075060    -0.58087419     0.00008363    -0.00035706    -0.00049950
H         0.81723570    -0.08981094     1.86951388    -0.00020429     0.00043008    -0.00022775
H        -0.93932549    -0.08183126     1.96058860    -0.00023700    -0.00024019     0.00025729
H        -0.98421818     0.11488515    -0.63562179     0.00024239     0.00018816    -0.00052016
     6
  Step:    24            Position(A)                                  Velocity(au)
C        -0.04356706     0.00855462    -0.03373021    -0.00001735     0.00006126    -0.00070074
N        -0.04124344    -0.05223005     1.34464440     0.00001085    -0.00005366     0.00066622
H         0.98574479     0.00857542    -0.58332218    -0.00011133    -0.00041825    -0.00038230
H         0.81630072    -0.08721717     1.86836369    -0.00012714     0.00049501    -0.00018376
H        -0.94003550    -0.08335220     1.96150054    -0.00002124    -0.00029905     0.00007394
H        -0.98265767     0.11608849    -0.63821592     0.00031575     0.00023801    -0.00041578
     6
  Step:    25            Position(A)                                  Velocity(au)
C        -0.04363323     0.00890196    -0.03782588    -0.00000646     0.00006343    -0.00076785
N        -0.04124371    -0.05253319     1.34850253    -0.00001084    -0.00005520     0.00071730
H         0.98459258     0.00610238    -0.58512288    -0.00029803    -0.00046579    -0.00026711
H         0.81582270    -0.08430963     1.86747172    -0.00004036     0.00054478    -0.00013409
H        -0.93956153    -0.08515472     1.96141039     0.00018597    -0.00034381    -0.00010090
H        -0.98070905     0.11753025    -0.64024260     0.00038009     0.00027612    -0.00031596
     6
  Step:    26            Position(A)                                  Velocity(au)
C        -0.04363894     0.00926060    -0.04227662     0.00000431     0.00006499    -0.00082411
N        -0.04136413    -0.05284446     1.35262816    -0.00003194    -0.00005630     0.00075851
H         0.98242759     0.00339103    -0.58629522    -0.00047181    -0.00050296    -0.00015675
H         0.81585153    -0.08115361     1.86687117     0.00005360     0.00058329    -0.00007906
H        -0.93796558    -0.08717894     1.96037750     0.00037796    -0.00037862    -0.00026198
H        -0.97842709     0.11916181    -0.64173271     0.00043280     0.00030633    -0.00022264
     6
  Step:    27            Position(A)                                  Velocity(au)
C        -0.04358518     0.00962698    -0.04702010     0.00001473     0.00006580    -0.00086747
N        -0.04160003    -0.05316135     1.35696492    -0.00005168    -0.00005687     0.00078820
H         0.97932879     0.00049105    -0.58687170    -0.00062796    -0.00053111    -0.00005394
H         0.81642064    -0.07780208     1.86658970     0.00015096     0.00061221    -0.00002031
H        -0.93534482    -0.08937880     1.95848762     0.00054810    -0.00040537    -0.00040433
H        -0.97588044     0.12094789    -0.64272650     0.00047163     0.00033045    -0.00013770
     6
  Step:    28            Position(A)                                  Velocity(au)
C        -0.04347412     0.00999695    -0.05198416     0.00002457     0.00006581    -0.00089686
N        -0.04194249    -0.05348085     1.36144863    -0.00006931    -0.00005685     0.00080561
H         0.97540034    -0.00255246    -0.58689885    -0.00076219    -0.00055111     0.00003869
H         0.81754084    -0.07430257     1.86664390     0.00024729     0.00063258     0.00003979
H        -0.93183203    -0.09171526     1.95585275     0.00069029    -0.00042528    -0.00052355
H        -0.97314929     0.12285975    -0.64327371     0.00049498     0.00034956    -0.00006293
     6
  Step:    29            Position(A)                                  Velocity(au)
C        -0.04330926     0.01036603    -0.05709147     0.00003361     0.00006504    -0.00091232
N        -0.04237832    -0.05379971     1.36601161    -0.00008414    -0.00005625     0.00081100
H         0.97076970    -0.00569774    -0.58643718    -0.00087126    -0.00056392     0.00011887
H         0.81919758    -0.07069845     1.86703654     0.00033814     0.00064549     0.00009868
H        -0.92759309    -0.09415455     1.95260834     0.00079973    -0.00043953    -0.00061634
H        -0.97032206     0.12487326    -0.64343322     0.00050216     0.00036460     0.00000022
     6
  Step:    30            Position(A)                                  Velocity(au)
C        -0.04309538     0.01072990    -0.06226556     0.00004166     0.00006358    -0.00091511
N        -0.04289066    -0.05411473     1.37058811    -0.00009568    -0.00005514     0.00080565
H         0.96558175    -0.00890754    -0.58555928    -0.00095350    -0.00057084     0.00018496
H         0.82135145    -0.06702821     1.86775599     0.00041968     0.00065235     0.00015402
H        -0.92281956    -0.09666849     1.94890695     0.00087353    -0.00044945    -0.00068101
H        -0.96749026     0.12696856    -0.64327121     0.00049353     0.00037659     0.00005090
     6
  Step:    31            Position(A)                                  Velocity(au)
C        -0.04283824     0.01108480    -0.06743716     0.00004863     0.00006158    -0.00090742
N        -0.04346007    -0.05442308     1.37511984    -0.00010370    -0.00005363     0.00079166
H         0.95998996    -0.01215134    -0.58434608    -0.00100897    -0.00057353     0.00023620
H         0.82394221    -0.06332338     1.86877782     0.00048918     0.00065485     0.00020403
H        -0.91771745    -0.09923571     1.94490928     0.00091100    -0.00045659    -0.00071758
H        -0.96474248     0.12913080    -0.64285781     0.00047040     0.00038669     0.00008895
     6
  Step:    32            Position(A)                                  Velocity(au)
C        -0.04254425     0.01142784    -0.07254936     0.00005447     0.00005924    -0.00089190
N        -0.04406591    -0.05472251     1.37956007    -0.00010816    -0.00005184     0.00077145
H         0.95414710    -0.01540742    -0.58288240    -0.00103897    -0.00057380     0.00027256
H         0.82689535    -0.05960672     1.87006831     0.00054514     0.00065480     0.00024765
H        -0.91249517    -0.10184306     1.94077460     0.00091319    -0.00046259    -0.00072747
H        -0.96215915     0.13135090    -0.64226311     0.00043465     0.00039604     0.00011492
     6
  Step:    33            Position(A)                                  Velocity(au)
C        -0.04222007     0.01175719    -0.07755999     0.00005917     0.00005672    -0.00087112
N        -0.04468763    -0.05501145     1.38387553    -0.00010918    -0.00004988     0.00074727
H         0.94819803    -0.01866376    -0.58125258    -0.00104546    -0.00057330     0.00029458
H         0.83012937    -0.05589160     1.87158859     0.00058703     0.00065379     0.00028444
H        -0.90735305    -0.10448592     1.93665273     0.00088231    -0.00046891    -0.00071294
H        -0.95980936     0.13362572    -0.64155347     0.00038829     0.00040570     0.00012983
     6
  Step:    34            Position(A)                                  Velocity(au)
C        -0.04187240     0.01207190    -0.08244097     0.00006275     0.00005414    -0.00084706
N        -0.04530566    -0.05528890     1.38804543    -0.00010697    -0.00004782     0.00072090
H         0.94227583    -0.02191729    -0.57953738    -0.00103037    -0.00057333     0.00030304
H         0.83356119    -0.05218283     1.87329811     0.00061493     0.00065300     0.00031437
H        -0.90247647    -0.10716760     1.93267913     0.00082106    -0.00047671    -0.00067651
H        -0.95775004     0.13595764    -0.64078890     0.00033321     0.00041646     0.00013493
     6
  Step:    35            Position(A)                                  Velocity(au)
C        -0.04150783     0.01237173    -0.08717529     0.00006520     0.00005159    -0.00082110
N        -0.04590188    -0.05555427     1.39205866    -0.00010177    -0.00004570     0.00069349
H         0.93650201    -0.02517180    -0.57781264    -0.00099521    -0.00057479     0.00029874
H         0.83710963    -0.04847918     1.87515710     0.00062923     0.00065313     0.00033769
H        -0.89803295    -0.10989724     1.92897345     0.00073229    -0.00048677    -0.00062071
H        -0.95602698     0.13835309    -0.64002187     0.00027102     0.00042881     0.00013152
     6
  Step:    36            Position(A)                                  Velocity(au)
C        -0.04113297     0.01265695    -0.09175337     0.00006650     0.00004911    -0.00079401
N        -0.04645984    -0.05580720     1.39591060    -0.00009384    -0.00004353     0.00066575
H         0.93098873    -0.02843624    -0.57614923    -0.00094118    -0.00057825     0.00028245
H         0.84069750    -0.04477541     1.87712802     0.00063050     0.00065451     0.00035476
H        -0.89417122    -0.11268829     1.92563936     0.00061915    -0.00049954    -0.00054812
H        -0.95467627     0.14082099    -0.63929722     0.00020319     0.00044297     0.00012090
     6
  Step:    37            Position(A)                                  Velocity(au)
C        -0.04075448     0.01292810    -0.09617005     0.00006664     0.00004675    -0.00076623
N        -0.04696495    -0.05604741     1.39960044    -0.00008351    -0.00004131     0.00063805
H         0.92584008    -0.03172239    -0.57461292    -0.00086941    -0.00058399     0.00025500
H         0.84425208    -0.04106467     1.87917596     0.00061944     0.00065720     0.00036601
H        -0.89101911    -0.11555616     1.92276423     0.00048525    -0.00051515    -0.00046146
H        -0.95372515     0.14337122    -0.63865223     0.00013115     0.00045895     0.00010432
     6
  Step:    38            Position(A)                                  Velocity(au)
C        -0.04037902     0.01318588    -0.10042250     0.00006560     0.00004451    -0.00073801
N        -0.04740468    -0.05627461     1.40312950    -0.00007114    -0.00003904     0.00061064
H         0.92115231    -0.03504343    -0.57326416    -0.00078117    -0.00059211     0.00021728
H         0.84770578    -0.03733990     1.88126906     0.00059691     0.00066109     0.00037194
H        -0.88868112    -0.11851663     1.92041845     0.00033488    -0.00053352    -0.00036375
H        -0.95319239     0.14601352    -0.63811692     0.00005637     0.00047661     0.00008301
     6
  Step:    39            Position(A)                                  Velocity(au)
C        -0.04001325     0.01343109    -0.10450928     0.00006339     0.00004242    -0.00070950
N        -0.04776884    -0.05648854     1.40650044    -0.00005717    -0.00003671     0.00058369
H         0.91701309    -0.03841307    -0.57215770    -0.00067810    -0.00060266     0.00017036
H         0.85099695    -0.03359452     1.88337876     0.00056398     0.00066608     0.00037313
H        -0.88723508    -0.12158472     1.91865400     0.00017298    -0.00055442    -0.00025832
H        -0.95308819     0.14875679    -0.63771423    -0.00001964     0.00049577     0.00005818
     6
  Step:    40            Position(A)                                  Velocity(au)
C        -0.03966364     0.01366460    -0.10842990     0.00006006     0.00004047    -0.00068088
N        -0.04804994    -0.05668897     1.40971696    -0.00004209    -0.00003435     0.00055737
H         0.91349927    -0.04184504    -0.57134152    -0.00056229    -0.00061560     0.00011548
H         0.85407080    -0.02982262     1.88548013     0.00052189     0.00067201     0.00037021
H        -0.88672885    -0.12477381     1.91750307     0.00000505    -0.00057752    -0.00014874
H        -0.95341406     0.15160874    -0.63746034    -0.00009533     0.00051619     0.00003098
     6
  Step:    41            Position(A)                                  Velocity(au)
C        -0.03933623     0.01388731    -0.11218474     0.00005570     0.00003868    -0.00065227
N        -0.04824336    -0.05687576     1.41278364    -0.00002642    -0.00003196     0.00053184
H         0.91067437    -0.04535268    -0.57085586    -0.00043630    -0.00063082     0.00005411
H         0.85688016    -0.02601895     1.88755211     0.00047202     0.00067880     0.00036388
H        -0.88717817    -0.12809502     1.91697732    -0.00016313    -0.00060235    -0.00003864
H        -0.95416279     0.15457571    -0.63736495    -0.00016913     0.00053760     0.00000255
     6
  Step:    42            Position(A)                                  Velocity(au)
C        -0.03903645     0.01410017    -0.11577500     0.00005043     0.00003705    -0.00062384
N        -0.04834744    -0.05704888     1.41570589    -0.00001068    -0.00002958     0.00050724
H         0.90858618    -0.04894861    -0.57073223    -0.00030308    -0.00064817    -0.00001217
H         0.85938606    -0.02217880     1.88957767     0.00041583     0.00068634     0.00035483
H        -0.88856586    -0.13155670     1.91706792    -0.00032576    -0.00062839     0.00006838
H        -0.95531861     0.15766251    -0.63743164    -0.00023955     0.00055973    -0.00002609
     6
  Step:    43            Position(A)                                  Velocity(au)
C        -0.03876891     0.01430412    -0.11920269     0.00004442     0.00003558    -0.00059573
N        -0.04836346    -0.05720847     1.41848986     0.00000462    -0.00002723     0.00048369
H         0.90726489    -0.05264435    -0.57099274    -0.00016589    -0.00066742    -0.00008161
H         0.86155803    -0.01829797     1.89154380     0.00035483     0.00069454     0.00034377
H        -0.89084278    -0.13516406     1.91774662    -0.00047728    -0.00065504     0.00016902
H        -0.95685764     0.16087238    -0.63765842    -0.00030517     0.00058228    -0.00005398
     6
  Step:    44            Position(A)                                  Velocity(au)
C        -0.03853722     0.01450007    -0.12247059     0.00003785     0.00003426    -0.00056806
N        -0.04829548    -0.05735487     1.42114226     0.00001901    -0.00002494     0.00046128
H         0.90672164    -0.05644991    -0.57164953    -0.00002825    -0.00068824    -0.00015243
H         0.86337416    -0.01437264     1.89344142     0.00029055     0.00070334     0.00033138
H        -0.89393021    -0.13891892     1.91896757    -0.00061272    -0.00068169     0.00026032
H        -0.95874847     0.16420695    -0.63803828    -0.00036467     0.00060496    -0.00008026
     6