    14
  Step:   600            Position(A)                                  Velocity(au)
C        -5.95165410    -1.00319118    -0.00240481     0.00011459     0.00008969    -0.00026796
C        -4.67436814    -0.64728029     0.15409440     0.00028116    -0.00029963    -0.00004221
H        -6.75542530    -0.25624638    -0.35178782     0.00045919    -0.00060957    -0.00234305
H        -6.39164075    -1.99283115     0.22812753    -0.00196760     0.00016644     0.00143335
H        -3.91041093    -1.47126561     0.36709289    -0.00192486    -0.00156738     0.00177208
C        -4.00004426     0.66388838     0.03319262     0.00030145     0.00030441    -0.00019141
C        -2.63168684     0.66189804    -0.24729313     0.00040024    -0.00017749     0.00069480
H        -4.52785116     1.71526085     0.34189430    -0.00263501    -0.00101399    -0.00236728
H        -2.40733729    -0.21129645    -0.98182926    -0.00113830     0.00132234    -0.00107796
C        -1.78130201     1.65170255     0.34790852     0.00042146     0.00064643     0.00097558
H        -2.23913975     2.19103398     1.16477237     0.00167513     0.00190048     0.00061275
N        -0.50319121     1.72055565     0.04422066    -0.00066283    -0.00052048    -0.00041881
H         0.27022389     2.10339066     0.64043838    -0.00067374    -0.00188124    -0.00284552
H        -0.14838944     0.84060960    -0.41202550    -0.00268320     0.00220211    -0.00329224
