     6
  Step:     0            Position(A)                                  Velocity(au)
C        -0.03286874     0.00929082     0.00938639    -0.00005898     0.00005941     0.00021916
N        -0.04022959    -0.05149971     1.31118497    -0.00011786     0.00011483    -0.00024922
H         0.90136667     0.03029095    -0.55710187    -0.00087389    -0.00064520     0.00071512
H         0.81116334    -0.11569921     1.83675081     0.00133517    -0.00060323     0.00124761
H        -0.96747502    -0.05032470     1.79472725     0.00128790    -0.00077065    -0.00093158
H        -1.00728255     0.07090308    -0.51487186     0.00059140    -0.00028461    -0.00017941
     6
  Step:     1            Position(A)                                  Velocity(au)
C        -0.03354799     0.00994979     0.01147811    -0.00006544     0.00006118     0.00016103
N        -0.04165491    -0.05024673     1.30873453    -0.00013116     0.00011376    -0.00019304
H         0.89247669     0.02331393    -0.55023132    -0.00072096    -0.00063126     0.00052151
H         0.82697340    -0.12246068     1.85172426     0.00145305    -0.00062559     0.00141908
H        -0.95268443    -0.05878749     1.78479161     0.00134593    -0.00077851    -0.00084410
H        -1.00109305     0.06783966    -0.51765301     0.00052439    -0.00027468    -0.00033283
     6
  Step:     2            Position(A)                                  Velocity(au)
C        -0.03430040     0.01062935     0.01290933    -0.00007212     0.00006319     0.00009903
N        -0.04309900    -0.04901089     1.30696185    -0.00012186     0.00011185    -0.00012708
H         0.88559434     0.01648100    -0.54569274    -0.00051428    -0.00061949     0.00029398
H         0.84295166    -0.12938517     1.86779593     0.00137919    -0.00063260     0.00145528
H        -0.93803025    -0.06735604     1.77626094     0.00125797    -0.00079175    -0.00067219
H        -0.99581049     0.06489387    -0.52215312     0.00042982    -0.00026338    -0.00049120
     6
  Step:     3            Position(A)                                  Velocity(au)
C        -0.03512573     0.01133209     0.01364464    -0.00007850     0.00006541     0.00003442
N        -0.04432076    -0.04779986     1.30595444    -0.00009226     0.00010945    -0.00005500
H         0.88122577     0.00976140    -0.54379986    -0.00027178    -0.00061097     0.00004494
H         0.85714581    -0.13630008     1.88356126     0.00114707    -0.00062446     0.00137524
H        -0.92516402    -0.07610845     1.77008606     0.00102469    -0.00081377    -0.00041701
H        -0.99168998     0.06207766    -0.52839895     0.00031745    -0.00025127    -0.00064900
     6
  Step:     4            Position(A)                                  Velocity(au)
C        -0.03601767     0.01206039     0.01366229    -0.00008402     0.00006782    -0.00003159
N        -0.04511742    -0.04661643     1.30575864    -0.00004679     0.00010702     0.00001980
H         0.87964867     0.00311485    -0.54470969    -0.00001596    -0.00060627    -0.00021023
H         0.86804607    -0.14304652     1.89788189     0.00079811    -0.00060301     0.00120466
H        -0.91561316    -0.08515888     1.76713814     0.00067015    -0.00084714    -0.00009321
H        -0.98886560     0.05939682    -0.53635117     0.00019902    -0.00023888    -0.00079993
     6
  Step:     5            Position(A)                                  Velocity(au)
C        -0.03696378     0.01281577     0.01295365    -0.00008819     0.00007030    -0.00009776
N        -0.04534438    -0.04545870     1.30638750     0.00000863     0.00010488     0.00009479
H         0.88087656    -0.00350186    -0.54839897     0.00022924    -0.00060532    -0.00045511
H         0.87460591    -0.14949211     1.90991555     0.00037263    -0.00057091     0.00096987
H        -0.91050316    -0.09464117     1.76804694     0.00024223    -0.00089228     0.00027049
H        -0.98733610     0.05685165    -0.54589897     0.00008678    -0.00022665    -0.00093755
     6
  Step:     6            Position(A)                                  Velocity(au)
C        -0.03794690     0.01359824     0.01152349    -0.00009069     0.00007268    -0.00016284
N        -0.04492870    -0.04432194     1.30783243     0.00006726     0.00010320     0.00016840
H         0.88466371    -0.01012774    -0.55466620     0.00044216    -0.00060748    -0.00067468
H         0.87619814    -0.15553620     1.91909970    -0.00009334    -0.00053117     0.00069530
H        -0.91031381    -0.10467915     1.77305565    -0.00019502    -0.00094670     0.00063551
H        -0.98696706     0.05443832    -0.55686197    -0.00000789    -0.00021489    -0.00105594
     6
  Step:     7            Position(A)                                  Velocity(au)
C        -0.03894772     0.01440576     0.00939131    -0.00009146     0.00007477    -0.00022535
N        -0.04387296    -0.04320094     1.31007162     0.00012252     0.00010194     0.00023947
H         0.89054967    -0.01679162    -0.56315894     0.00060641    -0.00061165    -0.00085716
H         0.87256393    -0.16111237     1.92512652    -0.00056755    -0.00048707     0.00040356
H        -0.91476969    -0.11535213     1.78194992    -0.00057586    -0.00100516     0.00096152
H        -0.98750878     0.05215060    -0.56899967    -0.00007584    -0.00020371    -0.00115030
     6
  Step:     8            Position(A)                                  Velocity(au)
C        -0.03994781     0.01523392     0.00659343    -0.00009070     0.00007634    -0.00028370
N        -0.04224827    -0.04209177     1.31307124     0.00016883     0.00010098     0.00030661
H         0.89793019    -0.02350868    -0.57341820     0.00071239    -0.00061654    -0.00099506
H         0.86378199    -0.16619189     1.92792827    -0.00101894    -0.00044243     0.00011693
H        -0.92291175    -0.12666899     1.79409070    -0.00084797    -0.00106089     0.00121535
H        -0.98862618     0.04998186    -0.58202689    -0.00011088    -0.00019307    -0.00121738
     6
  Step:     9            Position(A)                                  Velocity(au)
C        -0.04093197     0.01607590     0.00318474    -0.00008877     0.00007720    -0.00033617
N        -0.04017947    -0.04099190     1.31677935     0.00020202     0.00010025     0.00036776
H         0.90613450    -0.03027971    -0.58492787     0.00075731    -0.00062093    -0.00108534
H         0.85027276    -0.17079137     1.92768466    -0.00141471    -0.00040196    -0.00014072
H        -0.93332062    -0.13856105     1.80853810    -0.00098215    -0.00110735     0.00137700
H        -0.98993447     0.04792682    -0.59563216    -0.00011015    -0.00018279    -0.00125566
     6
  Step:    10            Position(A)                                  Velocity(au)
C        -0.04188977     0.01692279    -0.00076086    -0.00008608     0.00007716    -0.00038109
N        -0.03782862    -0.03989864     1.32111664     0.00021931     0.00009990     0.00042003
H         0.91449775    -0.03709279    -0.59716199     0.00074400    -0.00062379    -0.00112863
H         0.83283258    -0.17498552     1.92484986    -0.00171850    -0.00037174    -0.00034278
H        -0.94439811    -0.15089441     1.82421511    -0.00097349    -0.00113972     0.00144085
H        -0.99103591     0.04598305    -0.60949682    -0.00007404    -0.00017255    -0.00126530
     6
  Step:    11            Position(A)                                  Velocity(au)
C        -0.04281511     0.01776400    -0.00515223    -0.00008298     0.00007611    -0.00041703
N        -0.03538154    -0.03880637     1.32596833     0.00021896     0.00010032     0.00046006
H         0.92241100    -0.04392622    -0.60961881     0.00067915    -0.00062432    -0.00112829
H         0.81267721    -0.17892381     1.92018569    -0.00189134    -0.00035926    -0.00046054
H        -0.95461756    -0.16349462     1.84005941    -0.00083598    -0.00115550     0.00141304
H        -0.99155415     0.04415206    -0.62331305    -0.00000582    -0.00016199    -0.00124800
     6
  Step:    12            Position(A)                                  Velocity(au)
C        -0.04370514     0.01858783    -0.00988410    -0.00007967     0.00007396    -0.00044295
N        -0.03303847    -0.03770391     1.33118123     0.00020006     0.00010210     0.00048456
H         0.92935537    -0.05075096    -0.62184541     0.00057154    -0.00062213    -0.00108927
H         0.79145599    -0.18284507     1.91477457    -0.00189643    -0.00037296    -0.00046668
H        -0.96268687    -0.17617315     1.85512810    -0.00059481    -0.00115447     0.00130711
H        -0.99116316     0.04243929    -0.63679923     0.00008893    -0.00015066    -0.00120666
     6
  Step:    13            Position(A)                                  Velocity(au)
C        -0.04455805     0.01938199    -0.01484254    -0.00007615     0.00007068    -0.00045831
N        -0.03100492    -0.03657263     1.33656908     0.00016283     0.00010590     0.00049122
H         0.93491449    -0.05753654    -0.63344859     0.00043069    -0.00061720    -0.00101726
H         0.77118927    -0.18708292     1.90997622    -0.00170934    -0.00042039    -0.00034261
H        -0.96763022    -0.18875089     1.86865497    -0.00027964    -0.00113828     0.00114006
H        -0.98960856     0.04085605    -0.64971094     0.00020295    -0.00013805    -0.00114505
     6
  Step:    14            Position(A)                                  Velocity(au)
C        -0.04537107     0.02013409    -0.01991051    -0.00007158     0.00006967    -0.00053621
N        -0.02947633    -0.03538711     1.34192750     0.00010873     0.00011375     0.00053268
H         0.93877752    -0.06425333    -0.64409982     0.00020193    -0.00077745    -0.00084461
H         0.75406081    -0.19204189     1.90727940    -0.00133233    -0.00035136    -0.00007033
H        -0.96880462    -0.20107518     1.88006899     0.00010890    -0.00130831     0.00089458
H        -0.98672334     0.03941917    -0.66184929     0.00036342     0.00002616    -0.00099244
     6
  Step:    15            Position(A)                                  Velocity(au)
C        -0.04612398     0.02090614    -0.02657310    -0.00006175     0.00007197    -0.00070444
N        -0.02862624    -0.03408410     1.34822242     0.00003871     0.00012301     0.00063586
H         0.93933206    -0.07454477    -0.65192606    -0.00011616    -0.00103218    -0.00056304
H         0.74204203    -0.19476951     1.90843760    -0.00080430    -0.00022787     0.00028020
H        -0.96524772    -0.21737258     1.88822558     0.00056392    -0.00157965     0.00058012
H        -0.98165815     0.04142829    -0.67142243     0.00055431     0.00027260    -0.00073926
     6
  Step:    16            Position(A)                                  Velocity(au)
C        -0.04672194     0.02170858    -0.03532151    -0.00004567     0.00007404    -0.00088799
N        -0.02862939    -0.03269594     1.35583814    -0.00004112     0.00013119     0.00075002
H         0.93623622    -0.08683425    -0.65641729    -0.00044622    -0.00119712    -0.00025752
H         0.73646512    -0.19702689     1.91340925    -0.00018451    -0.00020699     0.00063746
H        -0.95646785    -0.23563300     1.89276034     0.00102829    -0.00173764     0.00025153
H        -0.97459674     0.04538287    -0.67802195     0.00071802     0.00043630    -0.00047267
     6
  Step:    17            Position(A)                                  Velocity(au)
C        -0.04712302     0.02252598    -0.04599963    -0.00002609     0.00007459    -0.00105216
N        -0.02952590    -0.03121399     1.36463058    -0.00011980     0.00014002     0.00084908
H         0.92957009    -0.10073397    -0.65755989    -0.00075802    -0.00133503     0.00003955
H         0.73800556    -0.19929783     1.92238325     0.00045331    -0.00021293     0.00098527
H        -0.94275196    -0.25538688     1.89372830     0.00144563    -0.00186667    -0.00005932
H        -0.96595009     0.05097313    -0.68176308     0.00083473     0.00057999    -0.00022705
     6
  Step:    18            Position(A)                                  Velocity(au)
C        -0.04729274     0.02334040    -0.05833946    -0.00000369     0.00007354    -0.00118938
N        -0.03125026    -0.02963273     1.37441338    -0.00018796     0.00014925     0.00093127
H         0.91965305    -0.11604048    -0.65555202    -0.00102934    -0.00145944     0.00030949
H         0.74638215    -0.20168519     1.93496394     0.00102458    -0.00021554     0.00127071
H        -0.92484195    -0.27647005     1.89146266     0.00177470    -0.00199173    -0.00032709
H        -0.95633540     0.05807131    -0.68298901     0.00088597     0.00071626    -0.00002177
     6
  Step:    19            Position(A)                                  Velocity(au)
C        -0.04720372     0.02413487    -0.07201949     0.00002076     0.00007111    -0.00129603
N        -0.03363797    -0.02794879     1.38500400    -0.00023759     0.00015899     0.00099729
H         0.90705141    -0.13266206    -0.65078924    -0.00123694    -0.00157998     0.00053444
H         0.76042024    -0.20401310     1.95018240     0.00146031    -0.00019387     0.00145093
H        -0.90392696    -0.29895989     1.88657267     0.00197603    -0.00213528    -0.00052734
H        -0.94656775     0.06664266    -0.68223933     0.00085488     0.00085234     0.00012676
     6
  Step:    20            Position(A)                                  Velocity(au)
C        -0.04683868     0.02489603    -0.08669253     0.00004602     0.00006772    -0.00137064
N        -0.03644803    -0.02615446     1.39623106    -0.00026329     0.00017000     0.00104801
H         0.89259262    -0.15060561    -0.64386005    -0.00135645    -0.00170614     0.00069709
H         0.77832933    -0.20592654     1.96670585     0.00172102    -0.00013634     0.00150521
H        -0.88161251    -0.32318330     1.87992601     0.00201681    -0.00232054    -0.00063974
H        -0.93763327     0.07671781    -0.68021582     0.00072899     0.00099364     0.00020650
     6
  Step:    21            Position(A)                                  Velocity(au)
C        -0.04619703     0.02561643    -0.10200478     0.00007024     0.00006402    -0.00141338
N        -0.03939791    -0.02422976     1.40793121    -0.00026319     0.00018352     0.00108417
H         0.87737651    -0.16998713    -0.63553902    -0.00136440    -0.00184843     0.00078200
H         0.79807083    -0.20699584     1.98311177     0.00179886    -0.00004020     0.00143576
H        -0.85980536    -0.34972611     1.87257711     0.00188129    -0.00256903    -0.00065426
H        -0.93061969     0.08838040    -0.67772166     0.00050456     0.00114449     0.00021242
     6
  Step:    22            Position(A)                                  Velocity(au)
C        -0.04530193     0.02629662    -0.11761293     0.00009107     0.00006080    -0.00142603
N        -0.04220585    -0.02213962     1.41994934    -0.00023939     0.00020064     0.00110689
H         0.86274376    -0.19104362    -0.62675231    -0.00124375    -0.00201778     0.00077892
H         0.81768282    -0.20680596     1.99811577     0.00171062     0.00009061     0.00126125
H        -0.84045571    -0.37938578     1.86561281     0.00158349    -0.00289337    -0.00057836
H        -0.92659512     0.10175570    -0.67556867     0.00019113     0.00130784     0.00014909
     6
  Step:    23            Position(A)                                  Velocity(au)
C        -0.04420475     0.02694651    -0.13320196     0.00010603     0.00005887    -0.00141201
N        -0.04463513    -0.01984036     1.43214661    -0.00019778     0.00022141     0.00111821
H         0.85016716    -0.21412984    -0.61849872    -0.00099190    -0.00222315     0.00068707
H         0.83549388    -0.20501355     2.01070403     0.00148750     0.00024836     0.00100845
H        -0.82516343    -0.41302409     1.85992446     0.00117492    -0.00328795    -0.00044056
H        -0.92643839     0.11699195    -0.67446014    -0.00018566     0.00148441     0.00003159
     6
  Step:    24            Position(A)                                  Velocity(au)
C        -0.04298229     0.02758461    -0.14850333     0.00011339     0.00005886    -0.00137624
N        -0.04653261    -0.01729594     1.44441230    -0.00014696     0.00024420     0.00112098
H         0.84104409    -0.23967930    -0.61172129    -0.00062861    -0.00246777     0.00051867
H         0.85022465    -0.20137262     2.02017752     0.00116634     0.00042397     0.00070560
H        -0.81475209    -0.45131595     1.85597465     0.00073883    -0.00372280    -0.00028589
H        -0.93065675     0.13423003    -0.67487761    -0.00058560     0.00167168    -0.00011646
     6
  Step:    25            Position(A)                                  Velocity(au)
C        -0.04172416     0.02823416    -0.16330993     0.00011289     0.00006083    -0.00132463
N        -0.04785007    -0.01449800     1.45667009    -0.00009639     0.00026589     0.00111806
H         0.83641501    -0.26811704    -0.60715181    -0.00019904    -0.00274516     0.00029903
H         0.86100983    -0.19573839     2.02614034     0.00078462     0.00060849     0.00037909
H        -0.80900002    -0.49446739     1.85367017     0.00036922    -0.00414683    -0.00016278
H        -0.93924960     0.15356322    -0.67700783    -0.00096061     0.00186371    -0.00026793
     6
  Step:    26            Position(A)                                  Velocity(au)
C        -0.04051257     0.02891538    -0.17748211     0.00010608     0.00006413    -0.00126316
N        -0.04864134    -0.01147911     1.46887197    -0.00005427     0.00028273     0.00111135
H         0.83668978    -0.29973483    -0.60517945     0.00023254    -0.00303739     0.00006182
H         0.86738964    -0.18806077     2.02847083     0.00037861     0.00079364     0.00005261
H        -0.80667471    -0.54203582     1.85241343     0.00014341    -0.00450115    -0.00010789
H        -0.95167183     0.17500217    -0.68073918    -0.00126456     0.00205181    -0.00039837
     6
  Step:    27            Position(A)                                  Velocity(au)
C        -0.03940336     0.02963711    -0.19094388     0.00009579     0.00006745    -0.00119702
N        -0.04903734    -0.00831280     1.48098292    -0.00002611     0.00029157     0.00110122
H         0.84150230    -0.33456582    -0.60579941     0.00059776    -0.00331766    -0.00015934
H         0.86929263    -0.17837604     2.02729132    -0.00001636     0.00097190    -0.00025238
H        -0.80586276    -0.59293862     1.85130986     0.00010257    -0.00473603    -0.00013667
H        -0.96691432     0.19845050    -0.68572300    -0.00146265     0.00222616    -0.00049071
     6
  Step:    28            Position(A)                                  Velocity(au)
C        -0.03841703     0.03039105    -0.20366931     0.00008505     0.00006923    -0.00112991
N        -0.04921250    -0.00510040     1.49296322    -0.00001460     0.00029074     0.00108662
H         0.84976701    -0.37231491    -0.60866540     0.00084159    -0.00355669    -0.00033908
H         0.86703183    -0.16679855     2.02294945    -0.00036472     0.00113654    -0.00051577
H        -0.80443074    -0.64564548     1.84942343     0.00024879    -0.00482276    -0.00024398
H        -0.98367011     0.22370375    -0.69147439    -0.00153623     0.00237771    -0.00053708
     6
  Step:    29            Position(A)                                  Velocity(au)
C        -0.03754282     0.03115168    -0.21566291     0.00007615     0.00006812    -0.00106372
N        -0.04935677    -0.00195237     1.50475476    -0.00002043     0.00028011     0.00106559
H         0.85991361    -0.41237522    -0.61321744     0.00093387    -0.00373016    -0.00046454
H         0.86131367    -0.15351215     2.01600781    -0.00063037     0.00128179    -0.00071859
H        -0.80041994    -0.69844564     1.84597230     0.00055570    -0.00475548    -0.00041146
H        -1.00052235     0.25046748    -0.69747271    -0.00148278     0.00249961    -0.00053781
     6
  Step:    30            Position(A)                                  Velocity(au)
C        -0.03675120     0.03188135    -0.22694029     0.00007019     0.00006335    -0.00099885
N        -0.04965934     0.00102744     1.51627497    -0.00004319     0.00026068     0.00103597
H         0.87019724    -0.45391930    -0.61882809     0.00087081    -0.00382337    -0.00053467
H         0.85324129    -0.13875701     2.00722901    -0.00077841     0.00140354    -0.00084415
H        -0.79227382    -0.74968064     1.84042196     0.00098349    -0.00454554    -0.00061616
H        -1.01610872     0.27838748    -0.70324011    -0.00131218     0.00258787    -0.00049883
     6
  Step:    31            Position(A)                                  Velocity(au)
C        -0.03600733     0.03253760    -0.23751466     0.00006723     0.00005477    -0.00093477
N        -0.05030154     0.00375059     1.52741848    -0.00008191     0.00023396     0.00099604
H         0.87896432    -0.49601886    -0.62491426     0.00066819    -0.00383190    -0.00055623
H         0.84428436    -0.12280693     1.99754047    -0.00078031     0.00150040    -0.00088088
H        -0.77890424    -0.79788794     1.83249261     0.00149093    -0.00421355    -0.00083660
H        -1.02922887     0.30708208    -0.70838562    -0.00104168     0.00264119    -0.00042880
     6
  Step:    32            Position(A)                                  Velocity(au)
C        -0.03528045     0.03307959    -0.24739020     0.00006673     0.00004271    -0.00087059
N        -0.05145133     0.00614571     1.53806517    -0.00013492     0.00020136     0.00094501
H         0.88481514    -0.53774948    -0.63099661     0.00035196    -0.00375926    -0.00053939
H         0.83617048    -0.10593292     1.98795808    -0.00062228     0.00157478    -0.00082636
H        -0.75965680    -0.84186005     1.82211977     0.00204174    -0.00378312    -0.00105546
H        -1.03889752     0.33616854    -0.71262086    -0.00069172     0.00266046    -0.00033706
     6
  Step:    33            Position(A)                                  Velocity(au)
C        -0.03454758     0.03347207    -0.25656039     0.00006795     0.00002776    -0.00080537
N        -0.05325312     0.00815564     1.54809241    -0.00019925     0.00016399     0.00088331
H         0.88666413    -0.57825988    -0.63671441    -0.00004946    -0.00361371    -0.00049451
H         0.83067074    -0.08835557     1.97946221    -0.00031469     0.00163347    -0.00069103
H        -0.73423723    -0.88065103     1.80940239     0.00260628    -0.00327764    -0.00125990
H        -1.04436147     0.36528469    -0.71575950    -0.00028308     0.00264823    -0.00023246
     6
  Step:    34            Position(A)                                  Velocity(au)
C        -0.03379384     0.03368679    -0.26500926     0.00007027     0.00001052    -0.00073836
N        -0.05581028     0.00973334     1.55738923    -0.00027020     0.00012269     0.00081256
H         0.88373319    -0.61680636    -0.64181506    -0.00050973    -0.00340556    -0.00043056
H         0.82928594    -0.07019774     1.97284042     0.00010215     0.00168661    -0.00049921
H        -0.70263944    -0.91356463     1.79455705     0.00316057    -0.00271970    -0.00144067
H        -1.04509049     0.39410356    -0.71770647     0.00016445     0.00260827    -0.00012285
     6
  Step:    35            Position(A)                                  Velocity(au)
C        -0.03301028     0.03370226    -0.27271333     0.00007322    -0.00000840    -0.00066892
N        -0.05916433     0.01083974     1.56586863    -0.00034143     0.00007828     0.00073524
H         0.87551270    -0.65276298    -0.64613370    -0.00100611    -0.00314572    -0.00035473
H         0.83290550    -0.05145775     1.96854098     0.00056133     0.00174511    -0.00028543
H        -0.66509374    -0.94014977     1.77788502     0.00368434    -0.00213250    -0.00159098
H        -1.04076371     0.42234564    -0.71844701     0.00063253     0.00254538    -0.00001505
     6
  Step:    36            Position(A)                                  Velocity(au)
C        -0.03219201     0.03350312    -0.27964327     0.00007652    -0.00002848    -0.00059659
N        -0.06327972     0.01144576     1.57347398    -0.00040582     0.00003195     0.00065405
H         0.86172263    -0.68562501    -0.64957544    -0.00151919    -0.00284531    -0.00027276
H         0.84156607    -0.03202018     1.96659606     0.00098324     0.00181723    -0.00008647
H        -0.62203736    -0.96021718     1.75975122     0.00415933    -0.00154191    -0.00170562
H        -1.03125260     0.44978862    -0.71803581     0.00110413     0.00246525     0.00008491
     6
  Step:    37            Position(A)                                  Velocity(au)
C        -0.03133617     0.03307931    -0.28576490     0.00008006    -0.00004925    -0.00052093
N        -0.06804242     0.01153876     1.58017727    -0.00045684    -0.00001436     0.00057122
H         0.84227758    -0.71500968    -0.65210090    -0.00203227    -0.00251573    -0.00018930
H         0.85441583    -0.01170239     1.96664937     0.00129523     0.00190638     0.00006762
H        -0.57410046    -0.97388197     1.74057133     0.00456827    -0.00097886    -0.00178035
H        -1.01660874     0.47627767    -0.71658935     0.00156316     0.00237457     0.00017165
     6
  Step:    38            Position(A)                                  Velocity(au)
C        -0.03044052     0.03242572    -0.29103972     0.00008381    -0.00007026    -0.00044158
N        -0.07327404     0.01113161     1.58597050    -0.00048975    -0.00005796     0.00048807
H         0.81726282    -0.74066133    -0.65371682    -0.00253046    -0.00216911    -0.00010830
H         0.86990171     0.00968562     1.96807539     0.00144805     0.00201125     0.00015955
H        -0.52209762    -0.98163161     1.72080266     0.00489527    -0.00048073    -0.00181189
H        -0.99705539     0.50173692    -0.71428063     0.00199417     0.00228119     0.00024014
     6
  Step:    39            Position(A)                                  Velocity(au)
C        -0.02950258     0.03154234    -0.29542529     0.00008780    -0.00009097    -0.00035821
N        -0.07875675     0.01027072     1.59085471    -0.00050218    -0.00009564     0.00040500
H         0.78691895    -0.76246306    -0.65447013    -0.00299993    -0.00181911    -0.00003321
H         0.88609465     0.03229762     1.97013974     0.00142242     0.00212817     0.00018605
H        -0.46700699    -0.98439884     1.70093277     0.00512752    -0.00009021    -0.00179820
H        -0.97298236     0.52618314    -0.71133577     0.00238223     0.00219423     0.00028574
     6
  Step:    40            Position(A)                                  Velocity(au)
C        -0.02851978     0.03043560    -0.29887627     0.00009194    -0.00011062    -0.00027078
N        -0.08426018     0.00903920     1.59483075    -0.00049395    -0.00012444     0.00032178
H         0.75163358    -0.78045785    -0.65444341    -0.00342757    -0.00148189     0.00003324
H         0.90101979     0.05624337     1.97214559     0.00122498     0.00225499     0.00015570
H        -0.40992339    -0.98360518     1.68146362     0.00525765     0.00015038    -0.00173858
H        -0.94493956     0.54973990    -0.70802947     0.00271340     0.00212387     0.00030463
     6
  Step:    41            Position(A)                                  Velocity(au)
C        -0.02749118     0.02912230    -0.30134905     0.00009588    -0.00012761    -0.00018060
N        -0.08956282     0.00754846     1.59789432    -0.00046588    -0.00014349     0.00023786
H         0.71193421    -0.79488235    -0.65374301    -0.00380150    -0.00117754     0.00009240
H         0.91289347     0.08162976     1.97354592     0.00087676     0.00239950     0.00008856
H        -0.35198573    -0.98110908     1.66289797     0.00528080     0.00021246    -0.00163051
H        -0.91362163     0.57264693    -0.70467134     0.00297534     0.00208017     0.00029625
     6
  Step:    42            Position(A)                                  Velocity(au)
C        -0.02642221     0.02764387    -0.30282723     0.00009916    -0.00013581    -0.00009512
N        -0.09445209     0.00590008     1.60003431    -0.00041693    -0.00015978     0.00015181
H         0.66846858    -0.80621876    -0.65242196    -0.00414146    -0.00095917     0.00016496
H         0.92020059     0.10873696     1.97408302     0.00038032     0.00262187     0.00004275
H        -0.29439570    -0.97895718     1.64579305     0.00520538     0.00009464    -0.00145317
H        -0.87984840     0.59524750    -0.70154843     0.00316796     0.00208131     0.00026927
     6
  Step:    43            Position(A)                                  Velocity(au)
C        -0.02532599     0.02599836    -0.30319430     0.00010101    -0.00015874     0.00002744
N        -0.09881072     0.00427790     1.60124215    -0.00037560    -0.00013706     0.00006728
H         0.62234363    -0.81493260    -0.65090210    -0.00428750    -0.00071757     0.00010844
H         0.92209922     0.13716946     1.97321600    -0.00008478     0.00262095    -0.00017447
H        -0.23793755    -0.97924316     1.63029207     0.00513192    -0.00022020    -0.00135626
H        -0.84457415     0.61796492    -0.69911073     0.00325615     0.00211295     0.00016037
     6
  Step:    44            Position(A)                                  Velocity(au)
C        -0.02421243     0.02417109    -0.30222699     0.00010073    -0.00017127     0.00015188
N        -0.10266907     0.00290172     1.60150624    -0.00032747    -0.00011466    -0.00002016
H         0.57467126    -0.82191691    -0.65004958    -0.00438529    -0.00062090     0.00003067
H         0.91834592     0.16607515     1.97026621    -0.00061680     0.00267448    -0.00035849
H        -0.18212504    -0.98377441     1.61612235     0.00506529    -0.00063091    -0.00122357
H        -0.80861383     0.64147243    -0.69804013     0.00328707     0.00221153     0.00002165
     6