|===============================================================================
|
|  DFTB+ release 20.1
|
|  Copyright (C) 2006 - 2020  DFTB+ developers group
|
|===============================================================================
|
|  When publishing results obtained with DFTB+, please cite the following
|  reference:
|
|  * DFTB+, a software package for efficient approximate density functional
|    theory based atomistic simulations, J. Chem. Phys. 152, 124101 (2020).
|    [doi: 10.1063/1.5143190]
|
|  You should also cite additional publications crediting the parametrization
|  data you use. Please consult the documentation of the SK-files for the
|  references.
|
|===============================================================================

Reading input file 'dftb_in.hsd'
Parser version: 8

--------------------------------------------------------------------------------
Reading SK-files:
Done.


Processed input in HSD format written to 'dftb_pin.hsd'

Starting initialization...
--------------------------------------------------------------------------------
OpenMP threads:              1
Chosen random seed:          509730934
Mode:                        Static calculation
Self consistent charges:     Yes
SCC-tolerance:                 0.100000E-05
Max. scc iterations:                   1000
Shell resolved Hubbard:      No
Spin polarisation:           No
Nr. of up electrons:             6.000000
Nr. of down electrons:           6.000000
Periodic boundaries:         No
Electronic solver:           Relatively robust
Maximal SCC-cycles:                    1000
Initial charges:             Set automatically (system chrg:   0.100E+01)
Included shells:             C:  s, p
                             N:  s, p
                             H:  s
Spin coupling constants:     C   1(s)-1(s):  -0.455900E-01
                             C   1(s)-2(p):  -0.293000E-01
                             C   2(p)-1(s):  -0.293000E-01
                             C   2(p)-2(p):  -0.275500E-01
                             N   1(s)-1(s):  -0.468700E-01
                             N   1(s)-2(p):  -0.317000E-01
                             N   2(p)-1(s):  -0.317000E-01
                             N   2(p)-2(p):  -0.307200E-01
                             H   1(s)-1(s):  -0.792500E-01
Range separated hybrid:      Yes
  Screening parameter omega:   0.300000E+00
  Range separated algorithm:   MatrixBased
Extra options:
                             Mulliken analysis
                             Force calculation
Force type                   original
                             Eigenvector printing


REKS Calcuation:             Yes
SSR(2,2) Calcuation:         Yes
Energy Functional:           (PPS+OSS)/2
Number of Core Orbitals:                  5
Number of Active Orbitals:                2
Number of Basis:                         12
Number of States:                         2
State-Averaging Weight:          0.500000
                                 0.500000
State of Interest:                        1
Initial Guess:               Diagonalize H0 matrix
Newton-Raphson for FON opt:  Yes
NR max. Iterations:                      50
Level Shifting:              Yes
Shift Value:                     0.300000
W Scale Factor:              C  =    3.000000
                             N  =    3.000000
                             H  =    3.000000
Transition Dipole:           No
Gradient of Microstate:      No
CP-REKS Solver:              Preconditioned Conjugate-Gradient
CG max. Iterations:                     100
CG Tolerance:                  0.100000E-07
Memory for A and Hxc:        Direct Updating Without Saving
Non-Adiabatic Coupling:      Yes

--------------------------------------------------------------------------------

***  Geometry step: 0

  iSCC       reks energy        Diff energy         x_a       SCC error   
    1       -6.2653052719       0.0000000000     0.998781    1.17838397
    2       -6.2781113833      -0.0128061114     0.999530    0.10450751
    3       -6.2817565669      -0.0036451836     0.999746    0.04753607
    4       -6.2833869865      -0.0016304196     0.999834    0.02449872
    5       -6.2842760902      -0.0008891037     0.999874    0.01375928
    6       -6.2848410238      -0.0005649336     0.999896    0.00801372
    7       -6.2852378698      -0.0003968460     0.999908    0.00567832
    8       -6.2855318759      -0.0002940062     0.999915    0.00523213
    9       -6.2857549651      -0.0002230892     0.999920    0.00471376
   10       -6.2859256556      -0.0001706904     0.999923    0.00418704
   11       -6.2860563130      -0.0001306575     0.999925    0.00368316
   12       -6.2861559931      -0.0000996801     0.999927    0.00321699
   13       -6.2862316621      -0.0000756690     0.999928    0.00279478
   14       -6.2862887895      -0.0000571274     0.999929    0.00241801
   15       -6.2863316868      -0.0000428972     0.999929    0.00211157
   16       -6.2863637378      -0.0000320511     0.999929    0.00183555
   17       -6.2863875779      -0.0000238401     0.999930    0.00161639
   18       -6.2864052410      -0.0000176630     0.999930    0.00142603
   19       -6.2864182829      -0.0000130419     0.999930    0.00125221
   20       -6.2864278845      -0.0000096016     0.999930    0.00109516
   21       -6.2864349357      -0.0000070512     0.999930    0.00095451
   22       -6.2864401029      -0.0000051672     0.999930    0.00082942
   23       -6.2864438826      -0.0000037797     0.999930    0.00071885
   24       -6.2864466430      -0.0000027605     0.999930    0.00062161
   25       -6.2864486565      -0.0000020135     0.999930    0.00053645
   26       -6.2864501235      -0.0000014669     0.999929    0.00046216
   27       -6.2864511912      -0.0000010677     0.999929    0.00039754
   28       -6.2864519678      -0.0000007765     0.999929    0.00034150
   29       -6.2864525321      -0.0000005644     0.999929    0.00029302
   30       -6.2864529420      -0.0000004099     0.999929    0.00025115
   31       -6.2864532396      -0.0000002976     0.999929    0.00021507
   32       -6.2864534555      -0.0000002159     0.999929    0.00018403
   33       -6.2864536121      -0.0000001566     0.999929    0.00015736
   34       -6.2864537257      -0.0000001136     0.999929    0.00013446
   35       -6.2864538080      -0.0000000823     0.999929    0.00011484
   36       -6.2864538677      -0.0000000597     0.999929    0.00009803
   37       -6.2864539109      -0.0000000432     0.999929    0.00008365
   38       -6.2864539422      -0.0000000313     0.999929    0.00007135
   39       -6.2864539649      -0.0000000227     0.999929    0.00006084
   40       -6.2864539814      -0.0000000164     0.999929    0.00005186
   41       -6.2864539933      -0.0000000119     0.999929    0.00004420
   42       -6.2864540019      -0.0000000086     0.999929    0.00003766
   43       -6.2864540081      -0.0000000062     0.999929    0.00003208
   44       -6.2864540126      -0.0000000045     0.999929    0.00002732
   45       -6.2864540159      -0.0000000033     0.999929    0.00002327
   46       -6.2864540183      -0.0000000024     0.999929    0.00001981
   47       -6.2864540200      -0.0000000017     0.999929    0.00001687
   48       -6.2864540212      -0.0000000012     0.999929    0.00001436
   49       -6.2864540221      -0.0000000009     0.999929    0.00001222
   50       -6.2864540228      -0.0000000006     0.999929    0.00001040
   51       -6.2864540232      -0.0000000005     0.999929    0.00000885
   52       -6.2864540236      -0.0000000003     0.999929    0.00000753
   53       -6.2864540238      -0.0000000002     0.999929    0.00000641
   54       -6.2864540240      -0.0000000002     0.999929    0.00000546
   55       -6.2864540241      -0.0000000001     0.999929    0.00000464
   56       -6.2864540242      -0.0000000001     0.999929    0.00000395
   57       -6.2864540243      -0.0000000001     0.999929    0.00000336
   58       -6.2864540243      -0.0000000000     0.999929    0.00000286
   59       -6.2864540244      -0.0000000000     0.999929    0.00000243
   60       -6.2864540244      -0.0000000000     0.999929    0.00000207
   61       -6.2864540244      -0.0000000000     0.999929    0.00000176
   62       -6.2864540244      -0.0000000000     0.999929    0.00000150
   63       -6.2864540244      -0.0000000000     0.999929    0.00000127
   64       -6.2864540244      -0.0000000000     0.999929    0.00000108
   65       -6.2864540244      -0.0000000000     0.999929    0.00000092
  
--------------------------------------------------
 Final SA-REKS(2,2) energy:      -6.28645402
  
 State     Energy      FON(1)    FON(2)   Spin
  PPS   -6.40675347   1.999858  0.000142  0.00
  OSS   -6.16615458   1.000000  1.000000  0.00
 Trip   -6.24715922   1.000000  1.000000  1.00
--------------------------------------------------

 Lagrangian Wab:  -0.00742953 -0.00742922

--------------------------------------------------
 SSR: 2SI-2SA-REKS(2,2) Hamiltonian matrix
               PPS           OSS
   PPS    -6.40675347   -0.01041803
   OSS    -0.01041803   -6.16615458
--------------------------------------------------

----------------------------------------------------------------
 SSR: 2SI-2SA-REKS(2,2) states
                    E_n       C_{PPS}    C_{OSS}
 SSR state  1   -6.40720373  -0.999067  -0.043179
 SSR state  2   -6.16570432   0.043179  -0.999067
----------------------------------------------------------------

 unrelaxed SSR FONs for S0:  1.997994  0.002006

Total Energy:                       -6.4072037299 H         -174.3489 eV
Extrapolated to 0:                  -6.4072037299 H         -174.3489 eV

----------------------------------------------------------------------------------
 Solving CP-REKS equation for  1 state vector...
----------------------------------------------------------------------------------
  CG solver: Constructing Y initial guess
  CG solver: Iteration    1    eps =    0.000148928193
  CG solver: Iteration    2    eps =    0.000057416396
  CG solver: Iteration    3    eps =    0.000019148873
  CG solver: Iteration    4    eps =    0.000001197460
  CG solver: Iteration    5    eps =    0.000000029940
  CG solver: Iteration    6    eps =    0.000000009232
  Convergence reached in CG solver after    6 iterations
  CG solver: Calculating converged R, Z, Q2 matrix
----------------------------------------------------------------------------------

----------------------------------------------------------------------------------
 Solving CP-REKS equation for SI between  1 and  2 state vectors...
----------------------------------------------------------------------------------
  CG solver: Constructing Y initial guess
  CG solver: Iteration    1    eps =    0.004048133879
  CG solver: Iteration    2    eps =    0.006479035838
  CG solver: Iteration    3    eps =    0.000600122834
  CG solver: Iteration    4    eps =    0.000011806393
  CG solver: Iteration    5    eps =    0.000001905960
  CG solver: Iteration    6    eps =    0.000000062727
  CG solver: Iteration    7    eps =    0.000000003756
  Convergence reached in CG solver after    7 iterations
  CG solver: Calculating converged R, Z, Q2 matrix
----------------------------------------------------------------------------------

--------------------------------------------------
 Gradient Information
--------------------------------------------------
           1 st state (SSR)
     0.00807888    -0.01110693    -0.01806702
    -0.02895080     0.00057456     0.02382469
     0.01127967    -0.00257902     0.00534066
     0.02222664     0.00068868    -0.00710465
    -0.00198268     0.00727625    -0.00039405
    -0.01065172     0.00514647    -0.00359965

           2 st state (SSR)
    -0.01201741    -0.00136324     0.07961679
     0.02719130     0.00859627    -0.08962559
    -0.01443009    -0.01359882     0.01879972
    -0.01848487     0.00402232    -0.01199617
     0.00368769    -0.00343657    -0.01077301
     0.01405339     0.00578004     0.01397826
--------------------------------------------------
 Coupling Information
--------------------------------------------------
 between  1 and  2 states
--------------------------------------------------
 g vector - difference gradient
     0.01011993    -0.00450593    -0.05169691
    -0.02924314    -0.00463870     0.05889771
     0.01435734     0.00489841    -0.00649638
     0.02222125    -0.00138560     0.00236717
    -0.00393000     0.00560551     0.00546865
    -0.01352539     0.00002631    -0.00854024

 h vector - derivative coupling
    -0.00039462    -0.00443592     0.03085644
     0.01232124     0.00707656    -0.02263549
    -0.01679375     0.00729911    -0.00298304
    -0.02066158    -0.00331933     0.00101325
     0.01251957    -0.00264487    -0.00299932
     0.01300915    -0.00397554    -0.00325184

 G vector - GDV
     0.01004815    -0.00487185    -0.04884190
    -0.02807105    -0.00401085     0.05672514
     0.01285488     0.00550990    -0.00672953
     0.02035575    -0.00166682     0.00244576
    -0.00283518     0.00535641     0.00518948
    -0.01235255    -0.00031679    -0.00878895

 H vector - DCV - non-adiabatic coupling
    -0.00524341    -0.01668999     0.14576302
     0.06127688     0.03085055    -0.11442120
    -0.07440949     0.02836142    -0.00998522
    -0.09317515    -0.01319842     0.00333433
     0.05305172    -0.01291365    -0.01432700
     0.05849945    -0.01640991    -0.01036393
--------------------------------------------------


--------------------------------------------------------------------------------
DFTB+ running times                          cpu [s]             wall clock [s]
--------------------------------------------------------------------------------
SCC                                    +     0.03  ( 64.2%)      0.04  ( 59.3%)
Post-SCC processing                    +     0.02  ( 32.8%)      0.02  ( 28.8%)
  Force calculation                          0.02  ( 32.3%)      0.02  ( 27.1%)
--------------------------------------------------------------------------------
Missing                                +     0.00  (  3.0%)      0.01  ( 11.9%)
Total                                  =     0.05  (100.0%)      0.06  (100.0%)
--------------------------------------------------------------------------------
