|===============================================================================
|
|  DFTB+ release 20.1
|
|  Copyright (C) 2006 - 2020  DFTB+ developers group
|
|===============================================================================
|
|  When publishing results obtained with DFTB+, please cite the following
|  reference:
|
|  * DFTB+, a software package for efficient approximate density functional
|    theory based atomistic simulations, J. Chem. Phys. 152, 124101 (2020).
|    [doi: 10.1063/1.5143190]
|
|  You should also cite additional publications crediting the parametrization
|  data you use. Please consult the documentation of the SK-files for the
|  references.
|
|===============================================================================

Reading input file 'dftb_in.hsd'
Parser version: 8

--------------------------------------------------------------------------------
Reading SK-files:
Done.


Processed input in HSD format written to 'dftb_pin.hsd'

Starting initialization...
--------------------------------------------------------------------------------
OpenMP threads:              1
Chosen random seed:          509701483
Mode:                        Static calculation
Self consistent charges:     Yes
SCC-tolerance:                 0.100000E-05
Max. scc iterations:                   1000
Shell resolved Hubbard:      No
Spin polarisation:           No
Nr. of up electrons:             6.000000
Nr. of down electrons:           6.000000
Periodic boundaries:         No
Electronic solver:           Relatively robust
Maximal SCC-cycles:                    1000
Initial charges:             Set automatically (system chrg:   0.100E+01)
Included shells:             C:  s, p
                             N:  s, p
                             H:  s
Spin coupling constants:     C   1(s)-1(s):  -0.455900E-01
                             C   1(s)-2(p):  -0.293000E-01
                             C   2(p)-1(s):  -0.293000E-01
                             C   2(p)-2(p):  -0.275500E-01
                             N   1(s)-1(s):  -0.468700E-01
                             N   1(s)-2(p):  -0.317000E-01
                             N   2(p)-1(s):  -0.317000E-01
                             N   2(p)-2(p):  -0.307200E-01
                             H   1(s)-1(s):  -0.792500E-01
Range separated hybrid:      Yes
  Screening parameter omega:   0.300000E+00
  Range separated algorithm:   MatrixBased
Extra options:
                             Mulliken analysis
                             Force calculation
Force type                   original
                             Eigenvector printing


REKS Calcuation:             Yes
SSR(2,2) Calcuation:         Yes
Energy Functional:           (PPS+OSS)/2
Number of Core Orbitals:                  5
Number of Active Orbitals:                2
Number of Basis:                         12
Number of States:                         2
State-Averaging Weight:          0.500000
                                 0.500000
State of Interest:                        1
Initial Guess:               Diagonalize H0 matrix
Newton-Raphson for FON opt:  Yes
NR max. Iterations:                      50
Level Shifting:              Yes
Shift Value:                     0.300000
W Scale Factor:              C  =    3.000000
                             N  =    3.000000
                             H  =    3.000000
Transition Dipole:           No
Gradient of Microstate:      No
CP-REKS Solver:              Preconditioned Conjugate-Gradient
CG max. Iterations:                     100
CG Tolerance:                  0.100000E-07
Memory for A and Hxc:        Direct Updating Without Saving
Non-Adiabatic Coupling:      Yes

--------------------------------------------------------------------------------

***  Geometry step: 0

  iSCC       reks energy        Diff energy         x_a       SCC error   
    1       -6.2592122559       0.0000000000     0.999326    1.18846591
    2       -6.2732689674      -0.0140567115     0.999724    0.10697365
    3       -6.2785478043      -0.0052788369     0.999851    0.04954272
    4       -6.2818868712      -0.0033390669     0.999909    0.02525414
    5       -6.2842117945      -0.0023249233     0.999937    0.01297547
    6       -6.2858172408      -0.0016054464     0.999952    0.01058174
    7       -6.2868826612      -0.0010654203     0.999960    0.00968834
    8       -6.2875594254      -0.0006767643     0.999965    0.00834125
    9       -6.2879737120      -0.0004142866     0.999968    0.00687494
   10       -6.2882204819      -0.0002467699     0.999969    0.00549096
   11       -6.2883648038      -0.0001443219     0.999970    0.00428720
   12       -6.2884482915      -0.0000834877     0.999970    0.00329312
   13       -6.2884963347      -0.0000480432     0.999970    0.00250005
   14       -6.2885239544      -0.0000276197     0.999971    0.00188212
   15       -6.2885398679      -0.0000159135     0.999971    0.00140852
   16       -6.2885490782      -0.0000092104     0.999971    0.00109484
   17       -6.2885544419      -0.0000053637     0.999971    0.00087649
   18       -6.2885575880      -0.0000031461     0.999970    0.00071560
   19       -6.2885594477      -0.0000018598     0.999970    0.00058334
   20       -6.2885605559      -0.0000011081     0.999970    0.00047413
   21       -6.2885612213      -0.0000006654     0.999970    0.00038446
   22       -6.2885616239      -0.0000004026     0.999970    0.00031114
   23       -6.2885618691      -0.0000002452     0.999970    0.00025139
   24       -6.2885620195      -0.0000001503     0.999970    0.00020282
   25       -6.2885621121      -0.0000000927     0.999970    0.00016343
   26       -6.2885621695      -0.0000000574     0.999970    0.00013154
   27       -6.2885622052      -0.0000000357     0.999970    0.00010576
   28       -6.2885622275      -0.0000000223     0.999970    0.00008496
   29       -6.2885622415      -0.0000000140     0.999970    0.00006820
   30       -6.2885622502      -0.0000000088     0.999970    0.00005471
   31       -6.2885622558      -0.0000000055     0.999970    0.00004385
   32       -6.2885622592      -0.0000000035     0.999970    0.00003513
   33       -6.2885622614      -0.0000000022     0.999970    0.00002813
   34       -6.2885622628      -0.0000000014     0.999970    0.00002252
   35       -6.2885622637      -0.0000000009     0.999970    0.00001801
   36       -6.2885622642      -0.0000000006     0.999970    0.00001441
   37       -6.2885622646      -0.0000000004     0.999970    0.00001152
   38       -6.2885622648      -0.0000000002     0.999970    0.00000920
   39       -6.2885622650      -0.0000000001     0.999970    0.00000735
   40       -6.2885622650      -0.0000000001     0.999970    0.00000587
   41       -6.2885622651      -0.0000000001     0.999970    0.00000469
   42       -6.2885622651      -0.0000000000     0.999970    0.00000375
   43       -6.2885622652      -0.0000000000     0.999970    0.00000299
   44       -6.2885622652      -0.0000000000     0.999970    0.00000239
   45       -6.2885622652      -0.0000000000     0.999970    0.00000191
   46       -6.2885622652      -0.0000000000     0.999970    0.00000152
   47       -6.2885622652      -0.0000000000     0.999970    0.00000121
   48       -6.2885622652      -0.0000000000     0.999970    0.00000097
  
--------------------------------------------------
 Final SA-REKS(2,2) energy:      -6.28856227
  
 State     Energy      FON(1)    FON(2)   Spin
  PPS   -6.41833548   1.999940  0.000060  0.00
  OSS   -6.15878905   1.000000  1.000000  0.00
 Trip   -6.23749468   1.000000  1.000000  1.00
--------------------------------------------------

 Lagrangian Wab:  -0.00134002 -0.00133996

--------------------------------------------------
 SSR: 2SI-2SA-REKS(2,2) Hamiltonian matrix
               PPS           OSS
   PPS    -6.41833548   -0.00188469
   OSS    -0.00188469   -6.15878905
--------------------------------------------------

----------------------------------------------------------------
 SSR: 2SI-2SA-REKS(2,2) states
                    E_n       C_{PPS}    C_{OSS}
 SSR state  1   -6.41834916  -0.999974  -0.007261
 SSR state  2   -6.15877537   0.007261  -0.999974
----------------------------------------------------------------

 unrelaxed SSR FONs for S0:  1.999888  0.000112

Total Energy:                       -6.4183491618 H         -174.6522 eV
Extrapolated to 0:                  -6.4183491618 H         -174.6522 eV

----------------------------------------------------------------------------------
 Solving CP-REKS equation for  1 state vector...
----------------------------------------------------------------------------------
  CG solver: Constructing Y initial guess
  CG solver: Iteration    1    eps =    0.000035655831
  CG solver: Iteration    2    eps =    0.000002763763
  CG solver: Iteration    3    eps =    0.000000286172
  CG solver: Iteration    4    eps =    0.000000004619
  Convergence reached in CG solver after    4 iterations
  CG solver: Calculating converged R, Z, Q2 matrix
----------------------------------------------------------------------------------

----------------------------------------------------------------------------------
 Solving CP-REKS equation for SI between  1 and  2 state vectors...
----------------------------------------------------------------------------------
  CG solver: Constructing Y initial guess
  CG solver: Iteration    1    eps =    0.000419053748
  CG solver: Iteration    2    eps =    0.000232863129
  CG solver: Iteration    3    eps =    0.000082732067
  CG solver: Iteration    4    eps =    0.000001172454
  CG solver: Iteration    5    eps =    0.000000113870
  CG solver: Iteration    6    eps =    0.000000003873
  Convergence reached in CG solver after    6 iterations
  CG solver: Calculating converged R, Z, Q2 matrix
----------------------------------------------------------------------------------

--------------------------------------------------
 Gradient Information
--------------------------------------------------
           1 st state (SSR)
     0.00055030     0.00048253    -0.00803494
    -0.00090496    -0.00053821     0.00824239
    -0.00266631    -0.00300769    -0.00434522
    -0.00047193     0.00352642     0.00458990
     0.00123883    -0.00387303     0.00388281
     0.00225407     0.00340998    -0.00433494

           2 st state (SSR)
     0.00004466    -0.00450156     0.08809282
    -0.00023956     0.00551867    -0.10926642
    -0.01588863     0.00319656     0.01612169
    -0.00747081    -0.00251362    -0.00519664
     0.00816935     0.00298416    -0.00528094
     0.01538499    -0.00468423     0.01552949
--------------------------------------------------
 Coupling Information
--------------------------------------------------
 between  1 and  2 states
--------------------------------------------------
 g vector - difference gradient
     0.00025200     0.00249230    -0.04808459
    -0.00033193    -0.00302826     0.05876241
     0.00661156    -0.00318647    -0.01023710
     0.00349695     0.00311120     0.00490351
    -0.00346327    -0.00352052     0.00458319
    -0.00656530     0.00413175    -0.00992741

 h vector - derivative coupling
     0.00005872     0.00000027     0.00107703
    -0.00005513    -0.00003456    -0.00012421
     0.00002023     0.00578520     0.00017648
     0.00019722    -0.00625637    -0.00066933
    -0.00016198     0.00630454    -0.00005718
    -0.00005906    -0.00579908    -0.00040279

 G vector - GDV
     0.00025282     0.00249204    -0.04806388
    -0.00033270    -0.00302844     0.05875441
     0.00661116    -0.00310213    -0.01023346
     0.00349944     0.00302002     0.00489327
    -0.00346526    -0.00342860     0.00458187
    -0.00656546     0.00404711    -0.00993222

 H vector - DCV - non-adiabatic coupling
     0.00021209    -0.00013839     0.00683878
    -0.00019381     0.00003628    -0.00376583
    -0.00029194     0.02246323     0.00125250
     0.00056408    -0.02427399    -0.00285262
    -0.00043021     0.02448242    -0.00047665
     0.00013978    -0.02256955    -0.00099619
--------------------------------------------------


--------------------------------------------------------------------------------
DFTB+ running times                          cpu [s]             wall clock [s]
--------------------------------------------------------------------------------
SCC                                    +     0.03  ( 69.9%)      0.03  ( 56.3%)
Post-SCC processing                    +     0.01  ( 25.3%)      0.01  ( 20.8%)
--------------------------------------------------------------------------------
Missing                                +     0.00  (  4.8%)      0.01  ( 22.9%)
Total                                  =     0.04  (100.0%)      0.05  (100.0%)
--------------------------------------------------------------------------------
