 Fermi distribution function

Calculation with static geometry


********************************************************************************
 iSCC Total electronic   Diff electronic      SCC error    
   13   -0.52583163E+01   -0.31194780E-09    0.19441610E-06
********************************************************************************

 Total charge:     1.00000000

 Atomic gross charges (e)
 Atom           Charge
    1       0.30469160
    2      -0.19027688
    3       0.18033796
    4       0.25684475
    5       0.26368617
    6       0.18471639

Nr. of electrons (up):     12.00000000
Atom populations (up)
 Atom       Population
    1       3.69530840
    2       5.19027688
    3       0.81966204
    4       0.74315525
    5       0.73631383
    6       0.81528361

l-shell populations (up)
 Atom Sh.   l       Population
    1   1   0       1.41790952
    1   2   1       2.27739887
    2   1   0       1.53509740
    2   2   1       3.65517948
    3   1   0       0.81966204
    4   1   0       0.74315525
    5   1   0       0.73631383
    6   1   0       0.81528361

Orbital populations (up)
 Atom Sh.   l   m       Population  Label
    1   1   0   0       1.41790952  s
    1   2   1  -1       0.40237384  p_y
    1   2   1   0       0.86325807  p_z
    1   2   1   1       1.01176697  p_x
    2   1   0   0       1.53509740  s
    2   2   1  -1       1.39665111  p_y
    2   2   1   0       1.06636462  p_z
    2   2   1   1       1.19216376  p_x
    3   1   0   0       0.81966204  s
    4   1   0   0       0.74315525  s
    5   1   0   0       0.73631383  s
    6   1   0   0       0.81528361  s

Fermi level:                        -0.5189459684 H          -14.1212 eV
Band energy:                        -8.6394410569 H         -235.0912 eV
TS:                                  0.0000000000 H            0.0000 eV
Band free energy (E-TS):            -8.6394410569 H         -235.0912 eV
Extrapolated E(0K):                 -8.6394410569 H         -235.0912 eV
Input / Output electrons (q):     12.0000000000     12.0000000000

Energy H0:                          -5.3945221538 H         -146.7924 eV
Energy SCC:                          0.1362058871 H            3.7064 eV
Total Electronic energy:            -5.2583162667 H         -143.0861 eV
Repulsive energy:                    0.1317527201 H            3.5852 eV
Total energy:                       -5.1265635466 H         -139.5009 eV
Extrapolated to 0:                  -5.1265635466 H         -139.5009 eV
Total Mermin free energy:           -5.1265635466 H         -139.5009 eV
Force related energy:               -5.1265635466 H         -139.5009 eV

SCC converged

Excitation Energy:                   0.0990344194 H            2.6949 eV

Total Forces
    1     -0.002825603818      0.000307945647      0.022122618616
    2     -0.013463303222      0.017225374222     -0.025594281267
    3     -0.001143337413      0.004855749570      0.003423835406
    4      0.006082523910     -0.008357431945      0.006790942212
    5      0.012237666289     -0.005472957056     -0.004158438440
    6     -0.000887945747     -0.008558680438     -0.002584676527

Maximal derivative component:        0.255943E-01 au


