|===============================================================================
|
|  DFTB+ release 20.1
|
|  Copyright (C) 2006 - 2020  DFTB+ developers group
|
|===============================================================================
|
|  When publishing results obtained with DFTB+, please cite the following
|  reference:
|
|  * DFTB+, a software package for efficient approximate density functional
|    theory based atomistic simulations, J. Chem. Phys. 152, 124101 (2020).
|    [doi: 10.1063/1.5143190]
|
|  You should also cite additional publications crediting the parametrization
|  data you use. Please consult the documentation of the SK-files for the
|  references.
|
|===============================================================================

Reading input file 'dftb_in.hsd'
Parser version: 8

--------------------------------------------------------------------------------
Reading SK-files:
Done.


Processed input in HSD format written to 'dftb_pin.hsd'

Starting initialization...
--------------------------------------------------------------------------------
WARNING!
-> Excited state forces are not implemented yet for fractional occupations, kT=  0.3158E-02K
OpenMP threads:              1
Chosen random seed:          509072446
Mode:                        Static calculation
Self consistent charges:     Yes
SCC-tolerance:                 0.100000E-05
Max. scc iterations:                    100
Shell resolved Hubbard:      No
Spin polarisation:           No
Nr. of up electrons:             6.000000
Nr. of down electrons:           6.000000
Periodic boundaries:         No
Electronic solver:           Relatively robust
Mixer:                       Broyden mixer
Mixing parameter:                  0.200000
Maximal SCC-cycles:                     100
Nr. of chrg. vec. in memory:              0
Electronic temperature:        0.100000E-07 H      0.272114E-06 eV
Initial charges:             Set automatically (system chrg:   0.100E+01)
Included shells:             C:  s, p
                             N:  s, p
                             H:  s
Extra options:
                             Mulliken analysis
                             Force calculation
Force type                   original
                             Eigenvector printing

--------------------------------------------------------------------------------

***  Geometry step: 0

 iSCC Total electronic   Diff electronic      SCC error    
    1   -0.52132470E+01    0.00000000E+00    0.11209974E+01
    2   -0.52435757E+01   -0.30328719E-01    0.67405897E+00
    3   -0.52524731E+01   -0.88973597E-02    0.31977264E+00
    4   -0.47567666E+01    0.49570648E+00    0.22275113E+01
    5   -0.52504355E+01   -0.49366895E+00    0.26725712E+00
    6   -0.52583036E+01   -0.78681136E-02    0.10814041E-01
    7   -0.52583151E+01   -0.11498433E-04    0.33720424E-02
    8   -0.52583141E+01    0.10829066E-05    0.48925951E-02
    9   -0.52583162E+01   -0.21843606E-05    0.48302522E-03
   10   -0.52583161E+01    0.13441019E-06    0.12724829E-02
   11   -0.52583163E+01   -0.16160696E-06    0.81083843E-04
   12   -0.52583163E+01   -0.28089353E-09    0.57733001E-04
   13   -0.52583163E+01   -0.31194780E-09    0.19441610E-06
>> Charges saved for restart in charges.bin

Total Energy:                       -5.0275291272 H         -136.8060 eV
Extrapolated to 0:                  -5.1265635466 H         -139.5009 eV
Total Mermin free energy:           -5.0275291272 H         -136.8060 eV
Force related energy:               -5.1265635466 H         -139.5009 eV

--------------------------------------------------------------------------------
DFTB+ running times                          cpu [s]             wall clock [s]
--------------------------------------------------------------------------------
SCC                                    +     0.02  ( 71.9%)      0.07  ( 79.5%)
Post-SCC processing                    +     0.01  ( 22.8%)      0.01  ( 15.9%)
--------------------------------------------------------------------------------
Missing                                +     0.00  (  5.3%)      0.00  (  4.5%)
Total                                  =     0.03  (100.0%)      0.09  (100.0%)
--------------------------------------------------------------------------------
