|===============================================================================
|
|  DFTB+ release 20.1
|
|  Copyright (C) 2006 - 2020  DFTB+ developers group
|
|===============================================================================
|
|  When publishing results obtained with DFTB+, please cite the following
|  reference:
|
|  * DFTB+, a software package for efficient approximate density functional
|    theory based atomistic simulations, J. Chem. Phys. 152, 124101 (2020).
|    [doi: 10.1063/1.5143190]
|
|  You should also cite additional publications crediting the parametrization
|  data you use. Please consult the documentation of the SK-files for the
|  references.
|
|===============================================================================

Reading input file 'dftb_in.hsd'
Parser version: 8

--------------------------------------------------------------------------------
Reading SK-files:
Done.


Processed input in HSD format written to 'dftb_pin.hsd'

Starting initialization...
--------------------------------------------------------------------------------
OpenMP threads:              1
Chosen random seed:          511926401
Mode:                        Static calculation
Self consistent charges:     Yes
SCC-tolerance:                 0.100000E-05
Max. scc iterations:                   1000
Shell resolved Hubbard:      No
Spin polarisation:           No
Nr. of up electrons:             6.000000
Nr. of down electrons:           6.000000
Periodic boundaries:         No
Electronic solver:           Relatively robust
Maximal SCC-cycles:                    1000
Initial charges:             Set automatically (system chrg:   0.100E+01)
Included shells:             C:  s, p
                             N:  s, p
                             H:  s
Spin coupling constants:     C   1(s)-1(s):  -0.455900E-01
                             C   1(s)-2(p):  -0.293000E-01
                             C   2(p)-1(s):  -0.293000E-01
                             C   2(p)-2(p):  -0.275500E-01
                             N   1(s)-1(s):  -0.468700E-01
                             N   1(s)-2(p):  -0.317000E-01
                             N   2(p)-1(s):  -0.317000E-01
                             N   2(p)-2(p):  -0.307200E-01
                             H   1(s)-1(s):  -0.792500E-01
Range separated hybrid:      Yes
  Screening parameter omega:   0.300000E+00
  Range separated algorithm:   MatrixBased
Extra options:
                             Mulliken analysis
                             Force calculation
Force type                   original
                             Eigenvector printing


REKS Calcuation:             Yes
SSR(2,2) Calcuation:         Yes
Energy Functional:           (PPS+OSS)/2
Number of Core Orbitals:                  5
Number of Active Orbitals:                2
Number of Basis:                         12
Number of States:                         2
State-Averaging Weight:          0.500000
                                 0.500000
State of Interest:                        1
Initial Guess:               Diagonalize H0 matrix
Newton-Raphson for FON opt:  Yes
NR max. Iterations:                      50
Level Shifting:              Yes
Shift Value:                     0.300000
W Scale Factor:              C  =    3.000000
                             N  =    3.000000
                             H  =    3.000000
Transition Dipole:           No
Gradient of Microstate:      No
CP-REKS Solver:              Preconditioned Conjugate-Gradient
CG max. Iterations:                     100
CG Tolerance:                  0.100000E-07
Memory for A and Hxc:        Direct Updating Without Saving
Non-Adiabatic Coupling:      Yes

--------------------------------------------------------------------------------

***  Geometry step: 0

  iSCC       reks energy        Diff energy         x_a       SCC error   
    1       -6.2541401892       0.0000000000     0.999056    1.18508242
    2       -6.2695386158      -0.0153984266     0.999642    0.11750032
    3       -6.2751226204      -0.0055840046     0.999811    0.05982727
    4       -6.2787268589      -0.0036042385     0.999884    0.03207440
    5       -6.2814999047      -0.0027730458     0.999922    0.01759375
    6       -6.2836974010      -0.0021974963     0.999943    0.01517011
    7       -6.2853825753      -0.0016851743     0.999955    0.01310537
    8       -6.2866057126      -0.0012231373     0.999962    0.01173861
    9       -6.2874446346      -0.0008389220     0.999966    0.01002476
   10       -6.2879926916      -0.0005480570     0.999969    0.00829158
   11       -6.2883375179      -0.0003448263     0.999970    0.00671916
   12       -6.2885487414      -0.0002112235     0.999971    0.00537993
   13       -6.2886758605      -0.0001271191     0.999971    0.00428098
   14       -6.2887515622      -0.0000757016     0.999971    0.00339791
   15       -6.2887964117      -0.0000448496     0.999971    0.00269593
   16       -6.2888229510      -0.0000265392     0.999971    0.00214046
   17       -6.2888386812      -0.0000157302     0.999971    0.00170137
   18       -6.2888480388      -0.0000093576     0.999971    0.00135403
   19       -6.2888536332      -0.0000055944     0.999971    0.00107953
   20       -6.2888569971      -0.0000033639     0.999971    0.00087442
   21       -6.2888590323      -0.0000020351     0.999971    0.00070688
   22       -6.2888602711      -0.0000012389     0.999971    0.00057061
   23       -6.2888610297      -0.0000007586     0.999971    0.00046007
   24       -6.2888614969      -0.0000004672     0.999971    0.00037059
   25       -6.2888617861      -0.0000002892     0.999971    0.00029828
   26       -6.2888619660      -0.0000001798     0.999971    0.00023991
   27       -6.2888620783      -0.0000001123     0.999970    0.00019284
   28       -6.2888621486      -0.0000000704     0.999970    0.00015492
   29       -6.2888621929      -0.0000000442     0.999970    0.00012440
   30       -6.2888622207      -0.0000000279     0.999970    0.00009984
   31       -6.2888622384      -0.0000000176     0.999970    0.00008010
   32       -6.2888622495      -0.0000000111     0.999970    0.00006424
   33       -6.2888622566      -0.0000000071     0.999970    0.00005150
   34       -6.2888622610      -0.0000000045     0.999970    0.00004128
   35       -6.2888622639      -0.0000000028     0.999970    0.00003307
   36       -6.2888622657      -0.0000000018     0.999970    0.00002649
   37       -6.2888622669      -0.0000000012     0.999970    0.00002122
   38       -6.2888622676      -0.0000000007     0.999970    0.00001699
   39       -6.2888622681      -0.0000000005     0.999970    0.00001360
   40       -6.2888622684      -0.0000000003     0.999970    0.00001088
   41       -6.2888622686      -0.0000000002     0.999970    0.00000871
   42       -6.2888622687      -0.0000000001     0.999970    0.00000697
   43       -6.2888622687      -0.0000000001     0.999970    0.00000558
   44       -6.2888622688      -0.0000000000     0.999970    0.00000446
   45       -6.2888622688      -0.0000000000     0.999970    0.00000357
   46       -6.2888622689      -0.0000000000     0.999970    0.00000285
   47       -6.2888622689      -0.0000000000     0.999970    0.00000228
   48       -6.2888622689      -0.0000000000     0.999970    0.00000183
   49       -6.2888622689      -0.0000000000     0.999970    0.00000146
   50       -6.2888622689      -0.0000000000     0.999970    0.00000117
   51       -6.2888622689      -0.0000000000     0.999970    0.00000093
  
--------------------------------------------------
 Final SA-REKS(2,2) energy:      -6.28886227
  
 State     Energy      FON(1)    FON(2)   Spin
  PPS   -6.41865585   1.999941  0.000059  0.00
  OSS   -6.15906869   1.000000  1.000000  0.00
 Trip   -6.23769299   1.000000  1.000000  1.00
--------------------------------------------------

 Lagrangian Wab:  -0.00117579 -0.00117575

--------------------------------------------------
 SSR: 2SI-2SA-REKS(2,2) Hamiltonian matrix
               PPS           OSS
   PPS    -6.41865585   -0.00165375
   OSS    -0.00165375   -6.15906869
--------------------------------------------------

----------------------------------------------------------------
 SSR: 2SI-2SA-REKS(2,2) states
                    E_n       C_{PPS}    C_{OSS}
 SSR state  1   -6.41866638  -0.999980  -0.006370
 SSR state  2   -6.15905815   0.006370  -0.999980
----------------------------------------------------------------

 unrelaxed SSR FONs for S0:  1.999900  0.000100

Total Energy:                       -6.4186663848 H         -174.6608 eV
Extrapolated to 0:                  -6.4186663848 H         -174.6608 eV

----------------------------------------------------------------------------------
 Solving CP-REKS equation for  1 state vector...
----------------------------------------------------------------------------------
  CG solver: Constructing Y initial guess
  CG solver: Iteration    1    eps =    0.000031979008
  CG solver: Iteration    2    eps =    0.000002232347
  CG solver: Iteration    3    eps =    0.000000277203
  CG solver: Iteration    4    eps =    0.000000004206
  Convergence reached in CG solver after    4 iterations
  CG solver: Calculating converged R, Z, Q2 matrix
----------------------------------------------------------------------------------

----------------------------------------------------------------------------------
 Solving CP-REKS equation for SI between  1 and  2 state vectors...
----------------------------------------------------------------------------------
  CG solver: Constructing Y initial guess
  CG solver: Iteration    1    eps =    0.000396429202
  CG solver: Iteration    2    eps =    0.000226379248
  CG solver: Iteration    3    eps =    0.000078355161
  CG solver: Iteration    4    eps =    0.000001131021
  CG solver: Iteration    5    eps =    0.000000099404
  CG solver: Iteration    6    eps =    0.000000004084
  Convergence reached in CG solver after    6 iterations
  CG solver: Calculating converged R, Z, Q2 matrix
----------------------------------------------------------------------------------

--------------------------------------------------
 Gradient Information
--------------------------------------------------
           1 st state (SSR)
     0.00122287     0.00209867    -0.01907958
     0.00045754     0.00056985     0.01685946
    -0.00352514     0.00132361    -0.00052836
    -0.00351252    -0.00129198     0.00243583
     0.00295669    -0.00138503     0.00302824
     0.00240055    -0.00131512    -0.00271560

           2 st state (SSR)
    -0.00016244    -0.00476559     0.07673727
    -0.00072731     0.00621963    -0.09904179
     0.00235937     0.01549792     0.01914063
     0.00317439    -0.00734965    -0.00725574
    -0.00275036     0.00635220    -0.00567285
    -0.00189364    -0.01595451     0.01609248
--------------------------------------------------
 Coupling Information
--------------------------------------------------
 between  1 and  2 states
--------------------------------------------------
 g vector - difference gradient
     0.00069435     0.00344128    -0.04792697
     0.00059471    -0.00282565     0.05795836
    -0.00301602    -0.00709587    -0.00983438
    -0.00342247     0.00301999     0.00484959
     0.00293142    -0.00386179     0.00435599
     0.00221801     0.00732204    -0.00940259

 h vector - derivative coupling
    -0.00012877    -0.00069655     0.00115044
    -0.00017525     0.00004183    -0.00023755
     0.00577101     0.00063848    -0.00007191
     0.00618063     0.00071394    -0.00026774
    -0.00609565    -0.00056023    -0.00039938
    -0.00555197    -0.00013747    -0.00017386

 G vector - GDV
     0.00069266     0.00343213    -0.04790843
     0.00059243    -0.00282489     0.05795063
    -0.00294225    -0.00708716    -0.00983449
    -0.00334345     0.00302884     0.00484579
     0.00285353    -0.00386861     0.00435055
     0.00214710     0.00731969    -0.00940404

 H vector - DCV - non-adiabatic coupling
    -0.00053004    -0.00285174     0.00678313
    -0.00070420     0.00029977    -0.00375929
     0.02237591     0.00280743     0.00020566
     0.02397354     0.00260165    -0.00126923
    -0.02362213    -0.00196828    -0.00175206
    -0.02149307    -0.00088883    -0.00020822
--------------------------------------------------


--------------------------------------------------------------------------------
DFTB+ running times                          cpu [s]             wall clock [s]
--------------------------------------------------------------------------------
SCC                                    +     0.02  ( 68.7%)      0.02  ( 64.7%)
--------------------------------------------------------------------------------
Missing                                +     0.01  ( 31.3%)      0.01  ( 35.3%)
Total                                  =     0.03  (100.0%)      0.03  (100.0%)
--------------------------------------------------------------------------------
