|===============================================================================
|
|  DFTB+ release 20.1
|
|  Copyright (C) 2006 - 2020  DFTB+ developers group
|
|===============================================================================
|
|  When publishing results obtained with DFTB+, please cite the following
|  reference:
|
|  * DFTB+, a software package for efficient approximate density functional
|    theory based atomistic simulations, J. Chem. Phys. 152, 124101 (2020).
|    [doi: 10.1063/1.5143190]
|
|  You should also cite additional publications crediting the parametrization
|  data you use. Please consult the documentation of the SK-files for the
|  references.
|
|===============================================================================

Reading input file 'dftb_in.hsd'
Parser version: 8

--------------------------------------------------------------------------------
Reading SK-files:
Done.


Processed input in HSD format written to 'dftb_pin.hsd'

Starting initialization...
--------------------------------------------------------------------------------
OpenMP threads:              1
Chosen random seed:          510730584
Mode:                        Static calculation
Self consistent charges:     Yes
SCC-tolerance:                 0.100000E-05
Max. scc iterations:                   1000
Shell resolved Hubbard:      No
Spin polarisation:           No
Nr. of up electrons:             6.000000
Nr. of down electrons:           6.000000
Periodic boundaries:         No
Electronic solver:           Relatively robust
Maximal SCC-cycles:                    1000
Initial charges:             Set automatically (system chrg:   0.100E+01)
Included shells:             C:  s, p
                             N:  s, p
                             H:  s
Spin coupling constants:     C   1(s)-1(s):  -0.455900E-01
                             C   1(s)-2(p):  -0.293000E-01
                             C   2(p)-1(s):  -0.293000E-01
                             C   2(p)-2(p):  -0.275500E-01
                             N   1(s)-1(s):  -0.468700E-01
                             N   1(s)-2(p):  -0.317000E-01
                             N   2(p)-1(s):  -0.317000E-01
                             N   2(p)-2(p):  -0.307200E-01
                             H   1(s)-1(s):  -0.792500E-01
Range separated hybrid:      Yes
  Screening parameter omega:   0.300000E+00
  Range separated algorithm:   MatrixBased
Extra options:
                             Mulliken analysis
                             Force calculation
Force type                   original
                             Eigenvector printing


REKS Calcuation:             Yes
SSR(2,2) Calcuation:         Yes
Energy Functional:           (PPS+OSS)/2
Number of Core Orbitals:                  5
Number of Active Orbitals:                2
Number of Basis:                         12
Number of States:                         2
State-Averaging Weight:          0.500000
                                 0.500000
State of Interest:                        1
Initial Guess:               Diagonalize H0 matrix
Newton-Raphson for FON opt:  Yes
NR max. Iterations:                      50
Level Shifting:              Yes
Shift Value:                     0.300000
W Scale Factor:              C  =    3.000000
                             N  =    3.000000
                             H  =    3.000000
Transition Dipole:           No
Gradient of Microstate:      No
CP-REKS Solver:              Preconditioned Conjugate-Gradient
CG max. Iterations:                     100
CG Tolerance:                  0.100000E-07
Memory for A and Hxc:        Direct Updating Without Saving
Non-Adiabatic Coupling:      Yes

--------------------------------------------------------------------------------

***  Geometry step: 0

  iSCC       reks energy        Diff energy         x_a       SCC error   
    1       -6.2683866927       0.0000000000     0.999867    1.18626569
    2       -6.2772501471      -0.0088634544     0.999931    0.06146005
    3       -6.2804877118      -0.0032375647     0.999956    0.02342463
    4       -6.2821043664      -0.0016166546     0.999967    0.01083728
    5       -6.2829395841      -0.0008352177     0.999973    0.00857916
    6       -6.2833702745      -0.0004306904     0.999975    0.00693456
    7       -6.2835908648      -0.0002205903     0.999977    0.00534442
    8       -6.2837032016      -0.0001123368     0.999977    0.00400095
    9       -6.2837601893      -0.0000569877     0.999978    0.00294114
   10       -6.2837890329      -0.0000288436     0.999978    0.00213713
   11       -6.2838036159      -0.0000145830     0.999978    0.00154137
   12       -6.2838109875      -0.0000073716     0.999978    0.00110633
   13       -6.2838147159      -0.0000037284     0.999978    0.00079161
   14       -6.2838166038      -0.0000018879     0.999978    0.00056530
   15       -6.2838175615      -0.0000009577     0.999978    0.00040320
   16       -6.2838180485      -0.0000004870     0.999978    0.00028739
   17       -6.2838182968      -0.0000002483     0.999978    0.00020478
   18       -6.2838184239      -0.0000001271     0.999978    0.00014592
   19       -6.2838184893      -0.0000000653     0.999978    0.00010399
   20       -6.2838185231      -0.0000000338     0.999978    0.00007415
   21       -6.2838185406      -0.0000000176     0.999978    0.00005289
   22       -6.2838185498      -0.0000000092     0.999978    0.00003776
   23       -6.2838185546      -0.0000000048     0.999978    0.00002698
   24       -6.2838185572      -0.0000000026     0.999978    0.00001929
   25       -6.2838185586      -0.0000000014     0.999978    0.00001381
   26       -6.2838185594      -0.0000000008     0.999978    0.00000990
   27       -6.2838185598      -0.0000000004     0.999978    0.00000711
   28       -6.2838185600      -0.0000000002     0.999978    0.00000523
   29       -6.2838185601      -0.0000000001     0.999978    0.00000421
   30       -6.2838185602      -0.0000000001     0.999978    0.00000338
   31       -6.2838185602      -0.0000000000     0.999978    0.00000270
   32       -6.2838185603      -0.0000000000     0.999978    0.00000216
   33       -6.2838185603      -0.0000000000     0.999978    0.00000172
   34       -6.2838185603      -0.0000000000     0.999978    0.00000137
   35       -6.2838185603      -0.0000000000     0.999978    0.00000109
   36       -6.2838185603      -0.0000000000     0.999978    0.00000087
  
--------------------------------------------------
 Final SA-REKS(2,2) energy:      -6.28381856
  
 State     Energy      FON(1)    FON(2)   Spin
  PPS   -6.41536832   1.999956  0.000044  0.00
  OSS   -6.15226880   1.000000  1.000000  0.00
 Trip   -6.22901314   1.000000  1.000000  1.00
--------------------------------------------------

 Lagrangian Wab:   0.00074961  0.00074953

--------------------------------------------------
 SSR: 2SI-2SA-REKS(2,2) Hamiltonian matrix
               PPS           OSS
   PPS    -6.41536832    0.00105514
   OSS     0.00105514   -6.15226880
--------------------------------------------------

----------------------------------------------------------------
 SSR: 2SI-2SA-REKS(2,2) states
                    E_n       C_{PPS}    C_{OSS}
 SSR state  1   -6.41537256  -0.999992   0.004010
 SSR state  2   -6.15226456  -0.004010  -0.999992
----------------------------------------------------------------

 unrelaxed SSR FONs for S0:  1.999940  0.000060

Total Energy:                       -6.4153725564 H         -174.5712 eV
Extrapolated to 0:                  -6.4153725564 H         -174.5712 eV

----------------------------------------------------------------------------------
 Solving CP-REKS equation for  1 state vector...
----------------------------------------------------------------------------------
  CG solver: Constructing Y initial guess
  CG solver: Iteration    1    eps =    0.000023780073
  CG solver: Iteration    2    eps =    0.000000918960
  CG solver: Iteration    3    eps =    0.000000197626
  CG solver: Iteration    4    eps =    0.000000003193
  Convergence reached in CG solver after    4 iterations
  CG solver: Calculating converged R, Z, Q2 matrix
----------------------------------------------------------------------------------

----------------------------------------------------------------------------------
 Solving CP-REKS equation for SI between  1 and  2 state vectors...
----------------------------------------------------------------------------------
  CG solver: Constructing Y initial guess
  CG solver: Iteration    1    eps =    0.000370728144
  CG solver: Iteration    2    eps =    0.000113981291
  CG solver: Iteration    3    eps =    0.000021053963
  CG solver: Iteration    4    eps =    0.000000934861
  CG solver: Iteration    5    eps =    0.000000054191
  CG solver: Iteration    6    eps =    0.000000004164
  Convergence reached in CG solver after    6 iterations
  CG solver: Calculating converged R, Z, Q2 matrix
----------------------------------------------------------------------------------

--------------------------------------------------
 Gradient Information
--------------------------------------------------
           1 st state (SSR)
    -0.01307734     0.00664550     0.01963106
     0.02511594     0.00427491    -0.03070208
     0.00492194     0.00184581    -0.00030928
    -0.00694943    -0.00546392    -0.00013187
    -0.00975343    -0.00001519     0.00471362
    -0.00025767    -0.00728711     0.00679856

           2 st state (SSR)
     0.00985000    -0.01041305     0.12978689
    -0.01331679     0.00995382    -0.15746173
    -0.00604961    -0.00901436     0.01699620
     0.00341379     0.00404851    -0.00731038
     0.00592387    -0.00580401    -0.00479433
     0.00017874     0.01122909     0.02278336
--------------------------------------------------
 Coupling Information
--------------------------------------------------
 between  1 and  2 states
--------------------------------------------------
 g vector - difference gradient
    -0.01146516     0.00846932    -0.05508352
     0.01923733    -0.00277455     0.06338808
     0.00552818     0.00544199    -0.00865238
    -0.00514151    -0.00478374     0.00359533
    -0.00789131     0.00288039     0.00474601
    -0.00026752    -0.00923340    -0.00799352

 h vector - derivative coupling
    -0.00013903    -0.00750834    -0.00047734
     0.00253699     0.00810263     0.00077446
     0.00526425     0.00146188     0.00007959
     0.00501935    -0.00341274     0.00074325
    -0.00653424    -0.00175952    -0.00101188
    -0.00614732     0.00311609    -0.00010807

 G vector - GDV
    -0.01146367     0.00852927    -0.05507792
     0.01921636    -0.00283945     0.06337983
     0.00548578     0.00543009    -0.00865274
    -0.00518161    -0.00475621     0.00358925
    -0.00783865     0.00289441     0.00475398
    -0.00021821    -0.00925810    -0.00799240

 H vector - DCV - non-adiabatic coupling
    -0.00087790    -0.02827800    -0.00349336
     0.01022849     0.03071027     0.00487572
     0.02017584     0.00572189     0.00003873
     0.01891981    -0.01311629     0.00293439
    -0.02507458    -0.00659942    -0.00370106
    -0.02337167     0.01156155    -0.00065441
--------------------------------------------------


--------------------------------------------------------------------------------
DFTB+ running times                          cpu [s]             wall clock [s]
--------------------------------------------------------------------------------
SCC                                    +     0.02  ( 61.3%)      0.02  ( 55.9%)
Post-SCC processing                    +     0.01  ( 33.6%)      0.01  ( 29.4%)
--------------------------------------------------------------------------------
Missing                                +     0.00  (  5.1%)      0.01  ( 14.7%)
Total                                  =     0.03  (100.0%)      0.03  (100.0%)
--------------------------------------------------------------------------------
