    14
  Step:     0            Position(A)                                  Velocity(au)
C        -6.00578163    -0.88713988    -0.06664404     0.00019711    -0.00021348    -0.00008586
C        -4.71504553    -0.70424700     0.11090448    -0.00016186     0.00001959     0.00001543
H        -6.65621403    -0.08449853    -0.31684600    -0.00058132     0.00117064     0.00046717
H        -6.46780338    -1.88655560    -0.14613003    -0.00128247     0.00036443    -0.00058280
H        -4.12354036    -1.56119894     0.40193434     0.00023246     0.00077319     0.00088957
C        -3.96978024     0.54366116    -0.08024655     0.00003264    -0.00014558     0.00008960
C        -2.58534030     0.57700355     0.16977619     0.00030350     0.00014464    -0.00007839
H        -4.54401803     1.50129311    -0.33058468    -0.00011299     0.00022748     0.00013495
H        -2.11157139    -0.41990868     0.45911952    -0.00040307    -0.00014330    -0.00005945
C        -1.80566397     1.71183265    -0.02681675    -0.00020189     0.00020672     0.00003749
H        -2.11162619     2.70662955    -0.40460684    -0.00034670    -0.00008733    -0.00023857
N        -0.47712236     1.73353095     0.24427887     0.00013594    -0.00023420    -0.00013218
H         0.05932702     2.60026709     0.01842867    -0.00041191     0.00139266     0.00010966
H        -0.01008777     0.90595494     0.66317334    -0.00100281    -0.00058494     0.00137520
    14
  Step:     1            Position(A)                                  Velocity(au)
C        -6.00408444    -0.88961223    -0.06771423     0.00010763    -0.00023398    -0.00011129
C        -4.71627292    -0.70384298     0.11113314    -0.00006083     0.00005440     0.00002693
H        -6.66340459    -0.07068419    -0.31176740    -0.00069139     0.00130493     0.00047491
H        -6.48148415    -1.88216149    -0.15207905    -0.00120962     0.00043740    -0.00050362
H        -4.12044665    -1.55308307     0.41176452     0.00033277     0.00070242     0.00090628
C        -3.96991321     0.54202627    -0.07928667    -0.00005688    -0.00015225     0.00008574
C        -2.58174396     0.57848941     0.16894495     0.00035187     0.00012664    -0.00007365
H        -4.54426672     1.50218553    -0.32894770     0.00006943    -0.00006864     0.00016363
H        -2.11636744    -0.41975872     0.45817891    -0.00046439     0.00016817    -0.00011104
C        -1.80782875     1.71419179    -0.02641044    -0.00019213     0.00022358     0.00003721
H        -2.11628467     2.70465364    -0.40702554    -0.00050325    -0.00026683    -0.00020432
N        -0.47548975     1.73097400     0.24285550     0.00016208    -0.00023101    -0.00012871
H         0.05433783     2.61397469     0.02013293    -0.00051049     0.00107526     0.00021334
H        -0.02137720     0.90069909     0.67766406    -0.00105866    -0.00036185     0.00126717
    14
  Step:     2            Position(A)                                  Velocity(au)
C        -6.00342711    -0.89225864    -0.06907869     0.00000909    -0.00024502    -0.00013912
C        -4.71637624    -0.70305680     0.11149359     0.00004206     0.00008887     0.00003936
H        -6.67133953    -0.05595068    -0.30645641    -0.00072033     0.00134108     0.00050679
H        -6.49426618    -1.87698675    -0.15714765    -0.00112125     0.00050310    -0.00042232
H        -4.11626048    -1.54583227     0.42176096     0.00042983     0.00061875     0.00091835
C        -3.97102470     0.54033046    -0.07837086    -0.00014529    -0.00015733     0.00008180
C        -2.57764250     0.57977408     0.16816497     0.00039544     0.00010876    -0.00006927
H        -4.54249913     1.49979154    -0.32700499     0.00024965    -0.00036452     0.00018872
H        -2.12173082    -0.41622953     0.45669027    -0.00050314     0.00046548    -0.00015690
C        -1.80986714     1.71672392    -0.02600275    -0.00017881     0.00023770     0.00003789
H        -2.12263566     2.70079215    -0.40907676    -0.00065593    -0.00042722    -0.00017291
N        -0.47357651     1.72847727     0.24146315     0.00018614    -0.00022356    -0.00012657
H         0.04815913     2.62379044     0.02309585    -0.00062032     0.00069699     0.00033537
H        -0.03324798     0.89803884     0.69089513    -0.00110473    -0.00011999     0.00114965
    14
  Step:     3            Position(A)                                  Velocity(au)
C        -6.00388565    -0.89497255    -0.07075779    -0.00009405    -0.00024634    -0.00016820
C        -4.71535273    -0.70189881     0.11199433     0.00014363     0.00012179     0.00005242
H        -6.67916328    -0.04134549    -0.30068038    -0.00067701     0.00128751     0.00055631
H        -6.50601363    -1.87115522    -0.16131800    -0.00102369     0.00055356    -0.00033999
H        -4.11104324    -1.53954672     0.43185525     0.00051891     0.00052969     0.00092255
C        -3.97309179     0.53858441    -0.07749722    -0.00023064    -0.00016207     0.00007828
C        -2.57309287     0.58086879     0.16742955     0.00043340     0.00009281    -0.00006575
H        -4.53880525     1.49421091    -0.32481908     0.00041566    -0.00064232     0.00020597
H        -2.12737463    -0.40957555     0.45474648    -0.00051218     0.00073019    -0.00019149
C        -1.81174064     1.71939197    -0.02558156    -0.00016202     0.00024790     0.00003979
H        -2.13063450     2.69530740    -0.41080836    -0.00080427    -0.00055947    -0.00014725
N        -0.47141749     1.72608316     0.24008661     0.00020600    -0.00021267    -0.00012589
H         0.04076721     2.62922269     0.02746970    -0.00072367     0.00029019     0.00046705
H        -0.04554518     0.89807398     0.70281491    -0.00113269     0.00012145     0.00103249
    14
  Step:     4            Position(A)                                  Velocity(au)
C        -6.00548472    -0.89764782    -0.07275842    -0.00019714    -0.00023816    -0.00019730
C        -4.71323400    -0.70039251     0.11264043     0.00024087     0.00015200     0.00006580
H        -6.68615037    -0.02778394    -0.29428612    -0.00057472     0.00115810     0.00061627
H        -6.51666139    -1.86487662    -0.16458553    -0.00092335     0.00058127    -0.00025801
H        -4.10490834    -1.53424438     0.44194342     0.00059551     0.00044240     0.00091587
C        -3.97607040     0.53678490    -0.07665836    -0.00031097    -0.00016778     0.00007568
C        -2.56816107     0.58180443     0.16672656     0.00046487     0.00008050    -0.00006357
H        -4.53340584     1.48573962    -0.32249894     0.00055549    -0.00088383     0.00021106
H        -2.13293570    -0.40025513     0.45250098    -0.00048485     0.00094379    -0.00020941
C        -1.81341155     1.72214719    -0.02513225    -0.00014180     0.00025328     0.00004310
H        -2.14023071     2.68855258    -0.41229808    -0.00094761    -0.00065640    -0.00012974
N        -0.46906978     1.72382480     0.23870898     0.00021973    -0.00019924    -0.00012685
H         0.03232737     2.63013889     0.03331337    -0.00080379    -0.00011206     0.00060007
H        -0.05802780     0.90069585     0.71348279    -0.00113539     0.00034407     0.00092583
    14
  Step:     5            Position(A)                                  Velocity(au)
C        -6.00819857    -0.90018276    -0.07507414    -0.00029583    -0.00022102    -0.00022527
C        -4.71008323    -0.69857360     0.11343376     0.00033109     0.00017846     0.00007921
H        -6.69173647    -0.01600992    -0.28719838    -0.00042857     0.00096908     0.00068004
H        -6.52621362    -1.85843872    -0.16696243    -0.00082626     0.00057978    -0.00017804
H        -4.09801542    -1.52986829     0.45189156     0.00065587     0.00036313     0.00089607
C        -3.97989491     0.53491388    -0.07584159    -0.00038426    -0.00017583     0.00007448
C        -2.56292285     0.58262994     0.16603883     0.00048891     0.00007335    -0.00006317
H        -4.52665279     1.47487546    -0.32020184     0.00065728    -0.00107050     0.00019944
H        -2.13798162    -0.38892830     0.45016528    -0.00041537     0.00108852    -0.00020561
C        -1.81484272     1.72493299    -0.02463870    -0.00011819     0.00025338     0.00004788
H        -2.15136527     2.68094732    -0.41364677    -0.00108492    -0.00071348    -0.00012204
N        -0.46661046     1.72172438     0.23731146     0.00022563    -0.00018440    -0.00012960
H         0.02318279     2.62677120     0.04059740    -0.00084492    -0.00047629     0.00072666
H        -0.07038401     0.90560108     0.72306927    -0.00110729     0.00053128     0.00083946
    14
  Step:     6            Position(A)                                  Velocity(au)
C        -6.01195646    -0.90248303    -0.07768661    -0.00038637    -0.00019571    -0.00025111
C        -4.70599079    -0.69648840     0.11437328     0.00041206     0.00020030     0.00009241
H        -6.69552612    -0.00658353    -0.27940889    -0.00025377     0.00073722     0.00074220
H        -6.53473749    -1.85219287    -0.16848041    -0.00073764     0.00054427    -0.00010190
H        -4.09055990    -1.52630026     0.46154664     0.00069736     0.00029666     0.00086195
C        -3.98447683     0.53293826    -0.07502895    -0.00044840    -0.00018755     0.00007514
C        -2.55746524     0.58340916     0.16534466     0.00050445     0.00007246    -0.00006489
H        -4.51902667     1.46232041    -0.31813576     0.00070981    -0.00118422     0.00016655
H        -2.14202263    -0.37644164     0.44800290    -0.00029955     0.00114929    -0.00017597
C        -1.81599728     1.72769030    -0.02408473    -0.00009124     0.00024824     0.00005407
H        -2.16396542     2.67294389    -0.41496803    -0.00121458    -0.00072954    -0.00012468
N        -0.46413372     1.71979069     0.23587379     0.00022231    -0.00016949    -0.00013422
H         0.01384312     2.61971915     0.04921042    -0.00083264    -0.00076944     0.00083982
H        -0.08225193     0.91231856     0.73184761    -0.00104504     0.00066970     0.00078190
    14
  Step:     7            Position(A)                                  Velocity(au)
C        -6.01665119    -0.90446429    -0.08056770    -0.00046592    -0.00016331    -0.00027404
C        -4.70106856    -0.69419166     0.11545530     0.00048213     0.00021686     0.00010517
H        -6.69728819     0.00011812    -0.27096142    -0.00006497     0.00047907     0.00079859
H        -6.54235090    -1.84653171    -0.16919167    -0.00066128     0.00047239    -0.00003139
H        -4.08275935    -1.52337836     0.47074845     0.00071863     0.00024608     0.00081340
C        -3.98970455     0.53081094    -0.07419765    -0.00050138    -0.00020405     0.00007807
C        -2.55188697     0.58421509     0.16461913     0.00051053     0.00007827    -0.00006895
H        -4.51112429     1.44896831    -0.31655824     0.00070377    -0.00120920     0.00010817
H        -2.14453483    -0.36378545     0.44631570    -0.00013601     0.00111663    -0.00011808
C        -1.81683877     1.73036368    -0.02345577    -0.00006103     0.00023847     0.00006143
H        -2.17793659     2.66498733    -0.41637444    -0.00133413    -0.00070719    -0.00013683
N        -0.46174707     1.71801650     0.23437510     0.00020882    -0.00015604    -0.00014073
H         0.00496722     2.60993821     0.05897001    -0.00075481    -0.00096104     0.00093390
H        -0.09324629     0.92025202     0.74017479    -0.00094803     0.00075068     0.00075930
    14
  Step:     8            Position(A)                                  Velocity(au)
C        -6.02214928    -0.90605569    -0.08368181    -0.00053253    -0.00012524    -0.00029349
C        -4.69544331    -0.69174415     0.11667406     0.00054021     0.00022769     0.00011734
H        -6.69694752     0.00389700    -0.26193823     0.00012387     0.00021101     0.00084618
H        -6.54920432    -1.84185835    -0.16916706    -0.00059911     0.00036488     0.00003198
H        -4.07483858    -1.52091677     0.47934133     0.00071972     0.00021271     0.00075128
C        -3.99544545     0.52847432    -0.07332100    -0.00054151    -0.00022596     0.00008352
C        -2.54629643     0.58512144     0.16383634     0.00050650     0.00009035    -0.00007526
H        -4.50363044     1.43586674    -0.31576928     0.00063353    -0.00113514     0.00002130
H        -2.14499810    -0.35201323     0.44541977     0.00007244     0.00099036    -0.00003228
C        -1.81733244     1.73290723    -0.02274074    -0.00002787     0.00022515     0.00006956
H        -2.19315207     2.65747278    -0.41796137    -0.00144003    -0.00065285    -0.00015612
N        -0.45956529     1.71637701     0.23279513     0.00018491    -0.00014561    -0.00014898
H        -0.00266980     2.59869447     0.06964125    -0.00060339    -0.00102731     0.00100543
H        -0.10299183     0.92874122     0.74845866    -0.00081883     0.00077189     0.00077417
    14
  Step:     9            Position(A)                                  Velocity(au)
C        -6.02830136    -0.90720407    -0.08698844    -0.00058517    -0.00008335    -0.00030911
C        -4.68925033    -0.68921056     0.11802226     0.00058580     0.00023250     0.00012878
H        -6.69457828     0.00473430    -0.25244963     0.00029926    -0.00005038     0.00088272
H        -6.55545768    -1.83854931    -0.16849214    -0.00055084     0.00022609     0.00008722
H        -4.06701401    -1.51872502     0.48718422     0.00070196     0.00019614     0.00067735
C        -4.00155105     0.52586773    -0.07237040    -0.00056773    -0.00025299     0.00009153
C        -2.54080639     0.58619171     0.16297270     0.00049227     0.00010721    -0.00008344
H        -4.49726460     1.42413489    -0.31609223     0.00049959    -0.00096159    -0.00009463
H        -2.14295011    -0.34211949     0.44560961     0.00031771     0.00078254     0.00007744
C        -1.81744841     1.73528928    -0.02193399     0.00000769     0.00020973     0.00007789
H        -2.20944000     2.65070508    -0.41978981    -0.00152769    -0.00057606    -0.00017883
N        -0.45770184     1.71483104     0.23111593     0.00015118    -0.00013939    -0.00015869
H        -0.00823320     2.58746394     0.08096571    -0.00037719    -0.00095716     0.00105405
H        -0.11115976     0.93713859     0.75711114    -0.00066340     0.00073819     0.00082430
    14
  Step:    10            Position(A)                                  Velocity(au)
C        -6.03495110    -0.90787913    -0.09044426    -0.00062353    -0.00003996    -0.00032073
C        -4.68262782    -0.68665780     0.11949136     0.00061879     0.00023113     0.00013941
H        -6.69040053     0.00279493    -0.24262707     0.00044796    -0.00028792     0.00090656
H        -6.56125506    -1.83691218    -0.16725901    -0.00051388     0.00006418     0.00013397
H        -4.05948196    -1.51662594     0.49415956     0.00066766     0.00019446     0.00059403
C        -4.00786574     0.52293957    -0.07131865    -0.00057985    -0.00028365     0.00010175
C        -2.53552708     0.58746688     0.16201100     0.00046844     0.00012630    -0.00009273
H        -4.49270096     1.41483006    -0.31783949     0.00031032    -0.00070173    -0.00023655
H        -2.13804752    -0.33489364     0.44711394     0.00058629     0.00051815     0.00020309
C        -1.81716424     1.73749539    -0.02103684     0.00004479     0.00019379     0.00008575
H        -2.22657330     2.64487036    -0.42187365    -0.00159178    -0.00048823    -0.00020033
N        -0.45625798     1.71332762     0.22932340     0.00010933    -0.00013775    -0.00016946
H        -0.01092157     2.57775471     0.09270054    -0.00008468    -0.00075863     0.00108304
H        -0.11750496     0.94489056     0.76649171    -0.00049074     0.00066151     0.00090230
    14
  Step:    11            Position(A)                                  Velocity(au)
C        -6.04194232    -0.90807827    -0.09400506    -0.00064781     0.00000222    -0.00032833
C        -4.67571316    -0.68415419     0.12107217     0.00063933     0.00022342     0.00014920
H        -6.68477831    -0.00156443    -0.23261697     0.00055684    -0.00048364     0.00091654
H        -6.56669969    -1.83714516    -0.16556131    -0.00048365    -0.00010943     0.00017231
H        -4.05240764    -1.51447085     0.50017973     0.00062002     0.00020452     0.00050428
C        -4.01423645     0.51966243    -0.07014432    -0.00057850    -0.00031499     0.00011346
C        -2.53055840     0.58895487     0.16094413     0.00043622     0.00014435    -0.00010209
H        -4.49047568     1.40878311    -0.32126728     0.00008225    -0.00038361    -0.00039709
H        -2.13012391    -0.33078390     0.45005253     0.00086030     0.00023223     0.00033336
C        -1.81646857     1.73952888    -0.02005808     0.00008232     0.00017890     0.00009248
H        -2.24426328     2.64002420    -0.42417245    -0.00162673    -0.00040091    -0.00021572
N        -0.45530996     1.71181759     0.22740869     0.00006220    -0.00013986    -0.00018073
H        -0.01008579     2.57086743     0.10465917     0.00025445    -0.00046227     0.00109887
H        -0.12189575     0.95161040     0.77685063    -0.00031207     0.00055934     0.00099604
    14
  Step:    12            Position(A)                                  Velocity(au)
C        -6.04912319    -0.90783050    -0.09762712    -0.00065850     0.00004026    -0.00033200
C        -4.66864136    -0.68176999     0.12275541     0.00064763     0.00020917     0.00015815
H        -6.67821865    -0.00778561    -0.22257600     0.00061330    -0.00061928     0.00091199
H        -6.57183588    -1.83930620    -0.16348935    -0.00045444    -0.00028127     0.00020270
H        -4.04591780    -1.51215160     0.50519155     0.00056277     0.00022222     0.00041132
C        -4.02052155     0.51604857    -0.06883646    -0.00056500    -0.00034294     0.00012553
C        -2.52598395     0.59062485     0.15977751     0.00039727     0.00015790    -0.00011038
H        -4.49090164     1.40643789    -0.32652661    -0.00016204    -0.00004712    -0.00056493
H        -2.11922690    -0.32981318     0.45440673     0.00112001    -0.00003635     0.00045538
C        -1.81536339     1.74140910    -0.01901376     0.00011901     0.00016633     0.00009747
H        -2.26216103     2.63609969    -0.42659301    -0.00162747    -0.00032415    -0.00022063
N        -0.45489733     1.71026801     0.22536958     0.00001347    -0.00014369    -0.00019183
H        -0.00535501     2.56764177     0.11674046     0.00061049    -0.00011852     0.00110953
H        -0.12433214     0.95712712     0.78828209    -0.00013952     0.00045197     0.00109012
    14
  Step:    13            Position(A)                                  Velocity(au)
C        -6.05634825    -0.90719757    -0.10126826    -0.00065619     0.00007126    -0.00033192
C        -4.66154510    -0.67957817     0.12453190     0.00064383     0.00018808     0.00016626
H        -6.67136110    -0.01511230    -0.21266535     0.00060630    -0.00067771     0.00089289
H        -6.57664154    -1.84329856    -0.16112687    -0.00042038    -0.00043746     0.00022576
H        -4.04009603    -1.50960944     0.50917823     0.00049994     0.00024274     0.00031851
C        -4.02659701     0.51215998    -0.06739804    -0.00054101    -0.00036289     0.00013664
C        -2.52186743     0.59240921     0.15852934     0.00035340     0.00016401    -0.00011652
H        -4.49402056     1.40775223    -0.33362610    -0.00039807     0.00026334    -0.00072654
H        -2.10562162    -0.33157918     0.46001484     0.00134695    -0.00025258     0.00055707
C        -1.81386502     1.74316762    -0.01792580     0.00015355     0.00015696     0.00010027
H        -2.27986732     2.63293280    -0.42899912    -0.00159022    -0.00026514    -0.00021184
N        -0.45501528     1.70867413     0.22321194    -0.00003273    -0.00014645    -0.00020196
H         0.00326975     2.56827450     0.12893220     0.00094814     0.00021197     0.00112196
H        -0.12494812     0.96149812     0.80069919     0.00001529     0.00035910     0.00116816
    14
  Step:    14            Position(A)                                  Velocity(au)
C        -6.06347871    -0.90627151    -0.10488859    -0.00064154     0.00009283    -0.00032833
C        -4.65455630    -0.67765537     0.12639273     0.00062795     0.00015982     0.00017356
H        -6.66495465    -0.02261185    -0.20304242     0.00052817    -0.00064579     0.00086004
H        -6.58103252    -1.84887657    -0.15855033    -0.00037650    -0.00056554     0.00024216
H        -4.03498070    -1.50684126     0.51215946     0.00043565     0.00026088     0.00022905
C        -4.03235725     0.50810965    -0.06584720    -0.00050812    -0.00037059     0.00014548
C        -2.51825257     0.59421297     0.15722837     0.00030637     0.00016083    -0.00011973
H        -4.49961009     1.41219900    -0.34242101    -0.00060430     0.00050813    -0.00086873
H        -2.08975970    -0.33533886     0.46659376     0.00152663    -0.00039156     0.00062921
C        -1.81200415     1.74484292    -0.01682013     0.00018468     0.00015117     0.00010063
H        -2.29695017     2.63029918    -0.43122739    -0.00151300    -0.00022760    -0.00018770
N        -0.45561326     1.70706408     0.22095127    -0.00007248    -0.00014535    -0.00021020
H         0.01538733     2.57227904     0.14128549     0.00123320     0.00047226     0.00113990
H        -0.12399761     0.96498308     0.81383787     0.00014267     0.00029659     0.00121539
    14
  Step:    15            Position(A)                                  Velocity(au)
C        -6.07038318    -0.90516672    -0.10845118    -0.00061532     0.00010351    -0.00032153
C        -4.64780747    -0.67608175     0.12832896     0.00059991     0.00012415     0.00018004
H        -6.65980636    -0.02924020    -0.19385028     0.00037719    -0.00051838     0.00081531
H        -6.58487821    -1.85567092    -0.15582917    -0.00031957    -0.00065602     0.00025246
H        -4.03056531    -1.50390209     0.51418917     0.00037389     0.00027138     0.00014589
C        -4.03771301     0.50405259    -0.06421548    -0.00046762    -0.00036294     0.00015099
C        -2.51516502     0.59592771     0.15591009     0.00025770     0.00014781    -0.00011958
H        -4.50724083     1.41886847    -0.35263124    -0.00076569     0.00065980    -0.00098099
H        -2.07222362    -0.34014533     0.47377996     0.00164995    -0.00044133     0.00066658
C        -1.80982474     1.74647480    -0.01572442     0.00021124     0.00014883     0.00009847
H        -2.31296699     2.62795351    -0.43310547    -0.00139588    -0.00021182    -0.00014818
N        -0.45660091     1.70549426     0.21861344    -0.00010267    -0.00013834    -0.00021562
H         0.03024834     2.57860608     0.15386979     0.00143911     0.00062149     0.00116301
H        -0.12182699     0.96798661     0.82728809     0.00023578     0.00027441     0.00122073
    14
  Step:    16            Position(A)                                  Velocity(au)
C        -6.07694009    -0.90400698    -0.11192275    -0.00057868     0.00010324    -0.00031188
C        -4.64143205    -0.67493927     0.13033144     0.00055971     0.00008109     0.00018564
H        -6.65670281    -0.03395242    -0.18520590     0.00016008    -0.00030251     0.00076160
H        -6.58802371    -1.86322821    -0.15302731    -0.00024845    -0.00070333     0.00025707
H        -4.02680117    -1.50090429     0.51535099     0.00031826     0.00026922     0.00007150
C        -4.04258741     0.50016962    -0.06254407    -0.00042051    -0.00033845     0.00015252
C        -2.51261493     0.59744651     0.15461223     0.00020865     0.00012562    -0.00011606
H        -4.51636112     1.42663347    -0.36388194    -0.00087489     0.00070624    -0.00105686
H        -2.05366391    -0.34499388     0.48117658     0.00171332    -0.00040221     0.00066808
C        -1.80738278     1.74809890    -0.01466600     0.00023226     0.00014937     0.00009391
H        -2.32748774     2.62566532    -0.43446906    -0.00124107    -0.00021507    -0.00009471
N        -0.45785947     1.70403772     0.21623419    -0.00012135    -0.00012448    -0.00021743
H         0.04687058     2.58587532     0.16672859     0.00155092     0.00064127     0.00118752
H        -0.11883949     0.97098640     0.84054375     0.00029114     0.00029580     0.00117816
    14
  Step:    17            Position(A)                                  Velocity(au)
C        -6.08304298    -0.90290817    -0.11527422    -0.00053332     0.00009354    -0.00029978
C        -4.63556278    -0.67430774     0.13239014     0.00050759     0.00003110     0.00019026
H        -6.65630437    -0.03585811    -0.17718883    -0.00010676    -0.00001980     0.00070257
H        -6.59031354    -1.87105764    -0.15020520    -0.00016402    -0.00070609     0.00025622
H        -4.02360274    -1.49801246     0.51575344     0.00027175     0.00025005     0.00000789
C        -4.04691249     0.49664846    -0.06087890    -0.00036754    -0.00029732     0.00014985
C        -2.51060036     0.59867597     0.15337097     0.00016023     0.00009589    -0.00010944
H        -4.52638071     1.43431878    -0.37575203    -0.00093134     0.00064933    -0.00109417
H        -2.03474141    -0.34894446     0.48839550     0.00171777    -0.00028376     0.00063588
C        -1.80474358     1.74974264    -0.01366993     0.00024700     0.00015191     0.00008723
H        -2.34011774     2.62324845    -0.43517749    -0.00105265    -0.00023238    -0.00002998
N        -0.45925559     1.70277093     0.21385677    -0.00012776    -0.00010397    -0.00021511
H         0.06417761     2.59263509     0.17984912     0.00156575     0.00053478     0.00120786
H        -0.11545775     0.97445787     0.85306256     0.00030860     0.00035758     0.00108704
    14
  Step:    18            Position(A)                                  Velocity(au)
C        -6.08860743    -0.90196067    -0.11848105    -0.00048151     0.00007737    -0.00028562
C        -4.63032750    -0.67425894     0.13449374     0.00044426    -0.00002478     0.00019376
H        -6.65903849    -0.03438562    -0.16983589    -0.00039839     0.00029483     0.00064192
H        -6.59161194    -1.87867530    -0.14742191    -0.00006880    -0.00066669     0.00025001
H        -4.02085613    -1.49543391     0.51552370     0.00023641     0.00021065    -0.00004357
C        -4.05062807     0.49366526    -0.05926587    -0.00030947    -0.00024130     0.00014317
C        -2.50910968     0.59954428     0.15221807     0.00011321     0.00006075    -0.00010018
H        -4.53673606     1.44083883    -0.38781891    -0.00093930     0.00050119    -0.00109426
H        -2.01608442    -0.35120168     0.49508761     0.00166754    -0.00010111     0.00057433
C        -1.80197922     1.75142221    -0.01275766     0.00025500     0.00015535     0.00007880
H        -2.35051646     2.62058161    -0.43512500    -0.00083625    -0.00025726     0.00004244
N        -0.46065440     1.70176310     0.21152826    -0.00012225    -0.00007776    -0.00020850
H         0.08112433     2.59757466     0.19315293     0.00149066     0.00032113     0.00121831
H        -0.11208836     0.97880922     0.86432477     0.00029095     0.00045137     0.00095172
    14
  Step:    19            Position(A)                                  Velocity(au)
C        -6.09357687    -0.90121556    -0.12152281    -0.00042589     0.00005858    -0.00026975
C        -4.62584371    -0.67484980     0.13662892     0.00037095    -0.00008489     0.00019593
H        -6.66501992    -0.02940806    -0.16314565    -0.00068525     0.00059903     0.00058260
H        -6.59181862    -1.88564286    -0.14473578     0.00003353    -0.00059064     0.00023846
H        -4.01843074    -1.49340399     0.51480028     0.00021313     0.00014934    -0.00008223
C        -4.05368279     0.49136954    -0.05774680    -0.00024723    -0.00017335     0.00013298
C        -2.50812366     0.60000496     0.15117941     0.00006823     0.00002256    -0.00008885
H        -4.54692969     1.44528337    -0.39969098    -0.00090558     0.00027967    -0.00106086
H        -1.99826073    -0.35115638     0.50096012     0.00156892     0.00012808     0.00048900
C        -1.79916497     1.75314124    -0.01194610     0.00025613     0.00015854     0.00006905
H        -2.35841231     2.61762038    -0.43424897    -0.00059865    -0.00028246     0.00011843
N        -0.46193013     1.70106986     0.20929534    -0.00010602    -0.00004719    -0.00019782
H         0.09678862     2.59966042     0.20650200     0.00133947     0.00002863     0.00121411
H        -0.10909271     0.98433252     0.87388317     0.00024333     0.00056518     0.00078051
    14
  Step:    20            Position(A)                                  Velocity(au)
C        -6.09792469    -0.90067911    -0.12438237    -0.00036909     0.00004108    -0.00025241
C        -4.62221226    -0.67611609     0.13878015     0.00028944    -0.00014707     0.00019659
H        -6.67402959    -0.02128065    -0.15709050    -0.00093882     0.00085172     0.00052627
H        -6.59087845    -1.89159671    -0.14220520     0.00013863    -0.00048562     0.00022157
H        -4.01619345    -1.49216683     0.51372469     0.00020139     0.00006633    -0.00010825
C        -4.05603663     0.48987291    -0.05635664    -0.00018197    -0.00009728     0.00012001
C        -2.50761699     0.60003778     0.15027424     0.00002577    -0.00001632    -0.00007608
H        -4.55654739     1.44695717    -0.41102736    -0.00083804     0.00000497    -0.00099915
H        -1.98176128    -0.34839975     0.50578546     0.00142939     0.00038548     0.00038600
C        -1.79637583     1.75489067    -0.01124709     0.00025059     0.00016036     0.00005846
H        -2.36361317     2.61440232    -0.43253403    -0.00034745    -0.00030045     0.00019358
N        -0.46297380     1.70073079     0.20720046    -0.00008084    -0.00001374    -0.00018361