|===============================================================================
|
|  DFTB+ release 20.1
|
|  Copyright (C) 2006 - 2020  DFTB+ developers group
|
|===============================================================================
|
|  When publishing results obtained with DFTB+, please cite the following
|  reference:
|
|  * DFTB+, a software package for efficient approximate density functional
|    theory based atomistic simulations, J. Chem. Phys. 152, 124101 (2020).
|    [doi: 10.1063/1.5143190]
|
|  You should also cite additional publications crediting the parametrization
|  data you use. Please consult the documentation of the SK-files for the
|  references.
|
|===============================================================================

Reading input file 'dftb_in.hsd'
Parser version: 8

--------------------------------------------------------------------------------
Reading SK-files:
Done.


Processed input in HSD format written to 'dftb_pin.hsd'

Starting initialization...
--------------------------------------------------------------------------------
OpenMP threads:              1
Chosen random seed:          510229055
Mode:                        Static calculation
Self consistent charges:     Yes
SCC-tolerance:                 0.100000E-05
Max. scc iterations:                   1000
Shell resolved Hubbard:      No
Spin polarisation:           No
Nr. of up electrons:             6.000000
Nr. of down electrons:           6.000000
Periodic boundaries:         No
Electronic solver:           Relatively robust
Maximal SCC-cycles:                    1000
Initial charges:             Set automatically (system chrg:   0.100E+01)
Included shells:             C:  s, p
                             N:  s, p
                             H:  s
Spin coupling constants:     C   1(s)-1(s):  -0.455900E-01
                             C   1(s)-2(p):  -0.293000E-01
                             C   2(p)-1(s):  -0.293000E-01
                             C   2(p)-2(p):  -0.275500E-01
                             N   1(s)-1(s):  -0.468700E-01
                             N   1(s)-2(p):  -0.317000E-01
                             N   2(p)-1(s):  -0.317000E-01
                             N   2(p)-2(p):  -0.307200E-01
                             H   1(s)-1(s):  -0.792500E-01
Range separated hybrid:      Yes
  Screening parameter omega:   0.300000E+00
  Range separated algorithm:   MatrixBased
Extra options:
                             Mulliken analysis
                             Force calculation
Force type                   original
                             Eigenvector printing


REKS Calcuation:             Yes
SSR(2,2) Calcuation:         Yes
Energy Functional:           (PPS+OSS)/2
Number of Core Orbitals:                  5
Number of Active Orbitals:                2
Number of Basis:                         12
Number of States:                         2
State-Averaging Weight:          0.500000
                                 0.500000
State of Interest:                        1
Initial Guess:               Diagonalize H0 matrix
Newton-Raphson for FON opt:  Yes
NR max. Iterations:                      50
Level Shifting:              Yes
Shift Value:                     0.300000
W Scale Factor:              C  =    3.000000
                             N  =    3.000000
                             H  =    3.000000
Transition Dipole:           No
Gradient of Microstate:      No
CP-REKS Solver:              Preconditioned Conjugate-Gradient
CG max. Iterations:                     100
CG Tolerance:                  0.100000E-07
Memory for A and Hxc:        Direct Updating Without Saving
Non-Adiabatic Coupling:      Yes

--------------------------------------------------------------------------------

***  Geometry step: 0

  iSCC       reks energy        Diff energy         x_a       SCC error   
    1       -6.2652659302       0.0000000000     0.998578    1.17913248
    2       -6.2782714359      -0.0130055057     0.999475    0.10695465
    3       -6.2818185525      -0.0035471166     0.999724    0.04909577
    4       -6.2832742730      -0.0014557205     0.999821    0.02509729
    5       -6.2839922193      -0.0007179464     0.999864    0.01389777
    6       -6.2844141189      -0.0004218996     0.999886    0.00801653
    7       -6.2846990979      -0.0002849790     0.999898    0.00481438
    8       -6.2849090689      -0.0002099709     0.999905    0.00461434
    9       -6.2850712503      -0.0001621815     0.999909    0.00430542
   10       -6.2851994940      -0.0001282437     0.999912    0.00395371
   11       -6.2853019483      -0.0001024543     0.999914    0.00359245
   12       -6.2853840450      -0.0000820966     0.999915    0.00323906
   13       -6.2854497641      -0.0000657192     0.999916    0.00290296
   14       -6.2855022101      -0.0000524460     0.999916    0.00258922
   15       -6.2855438910      -0.0000416809     0.999916    0.00230030
   16       -6.2855768667      -0.0000329757     0.999916    0.00203695
   17       -6.2856028366      -0.0000259699     0.999916    0.00179886
   18       -6.2856231998      -0.0000203632     0.999916    0.00158500
   19       -6.2856391015      -0.0000159018     0.999916    0.00141328
   20       -6.2856514729      -0.0000123713     0.999916    0.00126553
   21       -6.2856610650      -0.0000095921     0.999916    0.00112913
   22       -6.2856684797      -0.0000074147     0.999916    0.00100426
   23       -6.2856741957      -0.0000057160     0.999916    0.00089075
   24       -6.2856785916      -0.0000043959     0.999916    0.00078818
   25       -6.2856819651      -0.0000033735     0.999916    0.00069597
   26       -6.2856845492      -0.0000025841     0.999916    0.00061341
   27       -6.2856865253      -0.0000019761     0.999916    0.00053978
   28       -6.2856880343      -0.0000015090     0.999916    0.00047431
   29       -6.2856891851      -0.0000011508     0.999916    0.00041626
   30       -6.2856900618      -0.0000008767     0.999916    0.00036491
   31       -6.2856907290      -0.0000006672     0.999916    0.00031958
   32       -6.2856912364      -0.0000005074     0.999915    0.00027965
   33       -6.2856916219      -0.0000003855     0.999915    0.00024452
   34       -6.2856919147      -0.0000002927     0.999915    0.00021366
   35       -6.2856921368      -0.0000002222     0.999915    0.00018658
   36       -6.2856923053      -0.0000001685     0.999915    0.00016285
   37       -6.2856924331      -0.0000001278     0.999915    0.00014207
   38       -6.2856925300      -0.0000000968     0.999915    0.00012390
   39       -6.2856926033      -0.0000000734     0.999915    0.00010801
   40       -6.2856926589      -0.0000000556     0.999915    0.00009413
   41       -6.2856927010      -0.0000000421     0.999915    0.00008201
   42       -6.2856927329      -0.0000000319     0.999915    0.00007143
   43       -6.2856927570      -0.0000000241     0.999915    0.00006220
   44       -6.2856927752      -0.0000000183     0.999915    0.00005416
   45       -6.2856927891      -0.0000000138     0.999915    0.00004714
   46       -6.2856927995      -0.0000000105     0.999915    0.00004103
   47       -6.2856928074      -0.0000000079     0.999915    0.00003571
   48       -6.2856928134      -0.0000000060     0.999915    0.00003108
   49       -6.2856928179      -0.0000000045     0.999915    0.00002704
   50       -6.2856928213      -0.0000000034     0.999915    0.00002352
   51       -6.2856928239      -0.0000000026     0.999915    0.00002046
   52       -6.2856928259      -0.0000000020     0.999915    0.00001780
   53       -6.2856928274      -0.0000000015     0.999915    0.00001548
   54       -6.2856928285      -0.0000000011     0.999915    0.00001347
   55       -6.2856928293      -0.0000000008     0.999915    0.00001171
   56       -6.2856928300      -0.0000000006     0.999915    0.00001019
   57       -6.2856928305      -0.0000000005     0.999915    0.00000886
   58       -6.2856928308      -0.0000000004     0.999915    0.00000771
   59       -6.2856928311      -0.0000000003     0.999915    0.00000670
   60       -6.2856928313      -0.0000000002     0.999915    0.00000583
   61       -6.2856928315      -0.0000000002     0.999915    0.00000507
   62       -6.2856928316      -0.0000000001     0.999915    0.00000441
   63       -6.2856928317      -0.0000000001     0.999915    0.00000383
   64       -6.2856928318      -0.0000000001     0.999915    0.00000333
   65       -6.2856928318      -0.0000000001     0.999915    0.00000290
   66       -6.2856928318      -0.0000000000     0.999915    0.00000252
   67       -6.2856928319      -0.0000000000     0.999915    0.00000219
   68       -6.2856928319      -0.0000000000     0.999915    0.00000190
   69       -6.2856928319      -0.0000000000     0.999915    0.00000166
   70       -6.2856928319      -0.0000000000     0.999915    0.00000144
   71       -6.2856928319      -0.0000000000     0.999915    0.00000125
   72       -6.2856928319      -0.0000000000     0.999915    0.00000109
   73       -6.2856928319      -0.0000000000     0.999915    0.00000095
  
--------------------------------------------------
 Final SA-REKS(2,2) energy:      -6.28569283
  
 State     Energy      FON(1)    FON(2)   Spin
  PPS   -6.40454189   1.999830  0.000170  0.00
  OSS   -6.16684377   1.000000  1.000000  0.00
 Trip   -6.24861468   1.000000  1.000000  1.00
--------------------------------------------------

 Lagrangian Wab:  -0.00975994 -0.00975957

--------------------------------------------------
 SSR: 2SI-2SA-REKS(2,2) Hamiltonian matrix
               PPS           OSS
   PPS    -6.40454189   -0.01367487
   OSS    -0.01367487   -6.16684377
--------------------------------------------------

----------------------------------------------------------------
 SSR: 2SI-2SA-REKS(2,2) states
                    E_n       C_{PPS}    C_{OSS}
 SSR state  1   -6.40532602  -0.998360  -0.057247
 SSR state  2   -6.16605964   0.057247  -0.998360
----------------------------------------------------------------

 unrelaxed SSR FONs for S0:  1.996554  0.003446

Total Energy:                       -6.4053260238 H         -174.2978 eV
Extrapolated to 0:                  -6.4053260238 H         -174.2978 eV

----------------------------------------------------------------------------------
 Solving CP-REKS equation for  1 state vector...
----------------------------------------------------------------------------------
  CG solver: Constructing Y initial guess
  CG solver: Iteration    1    eps =    0.000385997114
  CG solver: Iteration    2    eps =    0.000064187023
  CG solver: Iteration    3    eps =    0.000029038679
  CG solver: Iteration    4    eps =    0.000003522537
  CG solver: Iteration    5    eps =    0.000000045342
  CG solver: Iteration    6    eps =    0.000000023247
  CG solver: Iteration    7    eps =    0.000000000442
  Convergence reached in CG solver after    7 iterations
  CG solver: Calculating converged R, Z, Q2 matrix
----------------------------------------------------------------------------------

----------------------------------------------------------------------------------
 Solving CP-REKS equation for SI between  1 and  2 state vectors...
----------------------------------------------------------------------------------
  CG solver: Constructing Y initial guess
  CG solver: Iteration    1    eps =    0.006555413543
  CG solver: Iteration    2    eps =    0.010627082057
  CG solver: Iteration    3    eps =    0.000920184842
  CG solver: Iteration    4    eps =    0.000017266413
  CG solver: Iteration    5    eps =    0.000002817035
  CG solver: Iteration    6    eps =    0.000000095024
  CG solver: Iteration    7    eps =    0.000000009157
  Convergence reached in CG solver after    7 iterations
  CG solver: Calculating converged R, Z, Q2 matrix
----------------------------------------------------------------------------------

--------------------------------------------------
 Gradient Information
--------------------------------------------------
           1 st state (SSR)
     0.00906162    -0.00644913    -0.02349629
    -0.02625805    -0.00135098     0.02820835
     0.01283326    -0.00596624     0.00647453
     0.02382190    -0.00006189    -0.01059415
    -0.00628834     0.00800839    -0.00183162
    -0.01317038     0.00581984     0.00123919

           2 st state (SSR)
    -0.01038380    -0.00268312     0.08441527
     0.02662503     0.00959559    -0.09327445
    -0.01769411    -0.01311478     0.01898776
    -0.02144561     0.00200342    -0.01499890
     0.00630466    -0.00193347    -0.01231493
     0.01659383     0.00613236     0.01718525
--------------------------------------------------
 Coupling Information
--------------------------------------------------
 between  1 and  2 states
--------------------------------------------------
 g vector - difference gradient
     0.00992508    -0.00150625    -0.06033476
    -0.02831232    -0.00621095     0.06586862
     0.01785237     0.00245335    -0.00573093
     0.02591658    -0.00052453     0.00207514
    -0.00836493     0.00510388     0.00560674
    -0.01701677     0.00068450    -0.00748480

 h vector - derivative coupling
    -0.00120135    -0.00338236     0.05234624
     0.01474287     0.00609730    -0.04107803
    -0.02162314     0.00994696    -0.00492751
    -0.02723334    -0.00447536     0.00123210
     0.01761584    -0.00087048    -0.00287241
     0.01769912    -0.00731605    -0.00470039

 G vector - GDV
     0.00972271    -0.00188301    -0.05395578
    -0.02644154    -0.00547328     0.06074140
     0.01526368     0.00357427    -0.00625662
     0.02263375    -0.00103265     0.00220237
    -0.00629650     0.00497093     0.00524165
    -0.01488211    -0.00015626    -0.00797303

 H vector - DCV - non-adiabatic coupling
    -0.00972964    -0.01332413     0.24616832
     0.07473899     0.02828347    -0.20202591
    -0.09830907     0.04012818    -0.01772138
    -0.12545548    -0.01833131     0.00412437
     0.07713806    -0.00605261    -0.01460494
     0.08161714    -0.03070361    -0.01594048
--------------------------------------------------


--------------------------------------------------------------------------------
DFTB+ running times                          cpu [s]             wall clock [s]
--------------------------------------------------------------------------------
SCC                                    +     0.03  ( 72.5%)      0.03  ( 69.4%)
Post-SCC processing                    +     0.01  ( 23.4%)      0.01  ( 22.4%)
  Force calculation                          0.01  ( 22.9%)      0.01  ( 20.4%)
--------------------------------------------------------------------------------
Missing                                +     0.00  (  4.1%)      0.00  (  8.2%)
Total                                  =     0.04  (100.0%)      0.05  (100.0%)
--------------------------------------------------------------------------------
