     6
  Step:     0            Position(A)                                  Velocity(au)
C        -0.03091955     0.00989574     0.02983601    -0.00003280    -0.00003289     0.00014919
N        -0.04735008    -0.06469695     1.28514897    -0.00012066    -0.00004765    -0.00017779
H         0.90505772     0.05144521    -0.50483182    -0.00049158     0.00008919     0.00038394
H         0.79368743    -0.06268967     1.80895829     0.00122132     0.00050817     0.00053130
H        -0.89514281     0.02230428     1.90686287     0.00058546     0.00016831    -0.00047714
H        -0.99010743     0.10029623    -0.53335760     0.00075245     0.00028848     0.00025482
     6
  Step:     1            Position(A)                                  Velocity(au)
C        -0.03112394     0.00972898     0.03045237    -0.00004174    -0.00002810     0.00007582
N        -0.04806034    -0.06497359     1.28436650    -0.00013718    -0.00005367    -0.00010707
H         0.90265850     0.05197101    -0.50306198    -0.00038135     0.00010327     0.00026094
H         0.80091130    -0.05990348     1.81226009     0.00139948     0.00051132     0.00066264
H        -0.89176507     0.02324282     1.90408696     0.00064310     0.00017565    -0.00053241
H        -0.98600390     0.10187750    -0.53212416     0.00074248     0.00029047     0.00019327
     6
  Step:     2            Position(A)                                  Velocity(au)
C        -0.03137603     0.00958841     0.03066533    -0.00005015    -0.00002334     0.00000208
N        -0.04885049    -0.06528395     1.28397787    -0.00014977    -0.00005998    -0.00003421
H         0.90088669     0.05257471    -0.50197780    -0.00026347     0.00011766     0.00013406
H         0.80899414    -0.05709713     1.81620584     0.00153487     0.00051556     0.00076637
H        -0.88810894     0.02422539     1.90103964     0.00068631     0.00018463    -0.00057553
H        -0.98198660     0.10347322    -0.53124371     0.00072112     0.00029388     0.00012576
     6
  Step:     3            Position(A)                                  Velocity(au)
C        -0.03167233     0.00947370     0.03047507    -0.00005782    -0.00001867    -0.00007126
N        -0.04969812    -0.06562949     1.28399242    -0.00015814    -0.00006652     0.00003992
H         0.89977729     0.05325764    -0.50159595    -0.00014045     0.00013221     0.00000493
H         0.81769600    -0.05426559     1.82064077     0.00162606     0.00052049     0.00084167
H        -0.88425989     0.02526188     1.89779323     0.00071272     0.00019557    -0.00060439
H        -0.97811798     0.10509129    -0.53074892     0.00068832     0.00029871     0.00005227
     6
  Step:     4            Position(A)                                  Velocity(au)
C        -0.03200822     0.00938427     0.02988610    -0.00006454    -0.00001412    -0.00014339
N        -0.05057970    -0.06601134     1.28441437    -0.00016216    -0.00007324     0.00011432
H         0.89935098     0.05402030    -0.50192385    -0.00001500     0.00014675    -0.00012467
H         0.82677410    -0.05140594     1.82540902     0.00167321     0.00052572     0.00088882
H        -0.88031582     0.02636382     1.89443102     0.00072014     0.00020874    -0.00061709
H        -0.97446020     0.10673943    -0.53067221     0.00064424     0.00030490    -0.00002706
     6
  Step:     5            Position(A)                                  Velocity(au)
C        -0.03237799     0.00931933     0.02890729    -0.00007012    -0.00000973    -0.00021347
N        -0.05147122    -0.06643033     1.28524240    -0.00016178    -0.00008007     0.00018793
H         0.89961328     0.05486225    -0.50295912     0.00011003     0.00016112    -0.00025291
H         0.83599093    -0.04851741     1.83035917     0.00167783     0.00053085     0.00090899
H        -0.87638584     0.02754427     1.89104595     0.00070671     0.00022441    -0.00061202
H        -0.97107381     0.10842505    -0.53104481     0.00058932     0.00031236    -0.00011189
     6
  Step:     6            Position(A)                                  Velocity(au)
C        -0.03277499     0.00927788     0.02755192    -0.00007441    -0.00000554    -0.00028070
N        -0.05234875    -0.06688692     1.28646933    -0.00015706    -0.00008695     0.00025966
H         0.90055408     0.05578204    -0.50468927     0.00023175     0.00017509    -0.00037788
H         0.84512049    -0.04560126     1.83534844     0.00164240     0.00053554     0.00090401
H        -0.87258828     0.02881770     1.88773879     0.00067096     0.00024281    -0.00058798
H        -0.96801618     0.11015495    -0.53189565     0.00052430     0.00032095    -0.00020165
     6
  Step:     7            Position(A)                                  Velocity(au)
C        -0.03319180     0.00925872     0.02583747    -0.00007729    -0.00000159    -0.00034430
N        -0.05318893    -0.06738123     1.28808215    -0.00014816    -0.00009380     0.00032844
H         0.90214777     0.05677713    -0.50709168     0.00034735     0.00018848    -0.00049772
H         0.85395273    -0.04266063     1.84024565     0.00157018     0.00053943     0.00087621
H        -0.86904801     0.03019969     1.88461561     0.00061209     0.00026408    -0.00054432
H        -0.96533987     0.11193506    -0.53325011     0.00045025     0.00033048    -0.00029556
     6
  Step:     8            Position(A)                                  Velocity(au)
C        -0.03362047     0.00926051     0.02378554    -0.00007868     0.00000210    -0.00040354
N        -0.05396945    -0.06791302     1.29006220    -0.00013530    -0.00010055     0.00039325
H         0.90435378     0.05784386    -0.51013386     0.00045416     0.00020107    -0.00061064
H         0.86229698    -0.03970036     1.84493345     0.00146491     0.00054224     0.00082824
H        -0.86589253     0.03170655     1.88178437     0.00053009     0.00028830    -0.00048111
H        -0.96309079     0.11377017    -0.53512878     0.00036857     0.00034072    -0.00039257
     6
  Step:     9            Position(A)                                  Velocity(au)
C        -0.03405277     0.00928174     0.02142143    -0.00007855     0.00000551    -0.00045773
N        -0.05466954    -0.06848162     1.29238557    -0.00011882    -0.00010713     0.00045315
H         0.90711774     0.05897746    -0.51377407     0.00054975     0.00021264    -0.00071499
H         0.86998364    -0.03672675     1.84930928     0.00133060     0.00054371     0.00076287
H        -0.86324705     0.03335469     1.87935073     0.00042595     0.00031540    -0.00039922
H        -0.96130647     0.11566364    -0.53754607     0.00028098     0.00035136    -0.00049140
     6
  Step:    10            Position(A)                                  Velocity(au)
C        -0.03448048     0.00932085     0.01877387    -0.00007694     0.00000862    -0.00050629
N        -0.05527043    -0.06908596     1.29502369    -0.00009915    -0.00011345     0.00050735
H         0.91037296     0.06017206    -0.51796215     0.00063205     0.00022301    -0.00080928
H         0.87686549    -0.03374736     1.85328605     0.00117150     0.00054363     0.00068301
H        -0.86122889     0.03515985     1.87741334     0.00030173     0.00034516    -0.00030046
H        -0.96001440     0.11761713    -0.54050902     0.00018948     0.00036206    -0.00059055
     6
  Step:    11            Position(A)                                  Velocity(au)
C        -0.03489570     0.00937616     0.01587460    -0.00007393     0.00001142    -0.00054868
N        -0.05575586    -0.06972452     1.29794399    -0.00007680    -0.00011941     0.00055515
H         0.91404239     0.06142073    -0.52264050     0.00069931     0.00023197    -0.00089224
H         0.88281844    -0.03077081     1.85679231     0.00099195     0.00054182     0.00059155
H        -0.85994134     0.03713625     1.87605897     0.00016065     0.00037718    -0.00018749
H        -0.95923058     0.11963031    -0.54401608     0.00009631     0.00037243    -0.00068832
     6
  Step:    12            Position(A)                                  Velocity(au)
C        -0.03529105     0.00944602     0.01275789    -0.00006964     0.00001390    -0.00058447
N        -0.05611251    -0.07039525     1.30111067    -0.00005236    -0.00012493     0.00059604
H         0.91804058     0.06271556    -0.52774515     0.00075023     0.00023936    -0.00096279
H         0.88774177    -0.02780655     1.85977213     0.00079637     0.00053815     0.00049136
H        -0.85946747     0.03929548     1.87535757     0.00000703     0.00041087    -0.00006389
H        -0.95895838     0.12170065    -0.54805616     0.00000390     0.00038205    -0.00078287
     6
  Step:    13            Position(A)                                  Velocity(au)
C        -0.03565999     0.00952875     0.00946006    -0.00006425     0.00001608    -0.00061335
N        -0.05633052    -0.07109557     1.30448552    -0.00002652    -0.00012989     0.00062964
H         0.92227611     0.06404770    -0.53320707     0.00078396     0.00024501    -0.00102013
H         0.89155848    -0.02486469     1.86218493     0.00058926     0.00053252     0.00038529
H        -0.85986415     0.04164546     1.87535775    -0.00015379     0.00044542     0.00006605
H        -0.95918780     0.12382324    -0.55260796    -0.00008527     0.00039046    -0.00087224
     6
  Step:    14            Position(A)                                  Velocity(au)
C        -0.03599698     0.00962272     0.00601895    -0.00005797     0.00001796    -0.00063508
N        -0.05640385    -0.07182235     1.30802865    -0.00000001    -0.00013419     0.00065572
H         0.92665406     0.06540752    -0.53895347     0.00080014     0.00024879    -0.00106371
H         0.89421598    -0.02195570     1.86400540     0.00037526     0.00052490     0.00027621
H        -0.86115717     0.04418932     1.87608328    -0.00031576     0.00047986     0.00019752
H        -0.95989523     0.12599071    -0.55763957    -0.00016871     0.00039723    -0.00095449
     6
  Step:    15            Position(A)                                  Velocity(au)
C        -0.03629769     0.00972636     0.00247341    -0.00005102     0.00001956    -0.00064955
N        -0.05633062    -0.07257183     1.31169926     0.00002637    -0.00013773     0.00067419
H         0.93107860     0.06678474    -0.54490921     0.00079889     0.00025061    -0.00109328
H         0.89568675    -0.01909015     1.86522355     0.00015914     0.00051532     0.00016695
H        -0.86333791     0.04692455     1.87753075    -0.00047243     0.00051311     0.00032547
H        -0.96104380     0.12819325    -0.56310850    -0.00024407     0.00040192    -0.00102773
     6
  Step:    16            Position(A)                                  Velocity(au)
C        -0.03655909     0.00983817    -0.00113730    -0.00004366     0.00002088    -0.00065679
N        -0.05611328    -0.07333972     1.31545629     0.00005184    -0.00014041     0.00068509
H         0.93545554     0.06816857    -0.55099833     0.00078080     0.00025041    -0.00110887
H         0.89596923    -0.01627833     1.86584468    -0.00005420     0.00050388     0.00006034
H        -0.86636205     0.04984236     1.87966905    -0.00061739     0.00054399     0.00044494
H        -0.96258425     0.13041875    -0.56896226    -0.00030926     0.00040416    -0.00109026
     6
  Step:    17            Position(A)                                  Velocity(au)
C        -0.03677945     0.00995675    -0.00477421    -0.00003612     0.00002195    -0.00065697
N        -0.05575861    -0.07412122     1.31925914     0.00007561    -0.00014216     0.00068863
H         0.93969462     0.06954796    -0.55714547     0.00074691     0.00024817    -0.00111083
H         0.89508860    -0.01352984     1.86588945    -0.00025981     0.00049080    -0.00004080
H        -0.87015073     0.05292747     1.88244058    -0.00074471     0.00057138     0.00055139
H        -0.96445651     0.13265309    -0.57513947    -0.00036255     0.00040364    -0.00114069
     6
  Step:    18            Position(A)                                  Velocity(au)
C        -0.03695839     0.01008081    -0.00839945    -0.00002865     0.00002280    -0.00065042
N        -0.05527751    -0.07491116     1.32306842     0.00009698    -0.00014294     0.00068515
H         0.94371191     0.07091186    -0.56327757     0.00069869     0.00024395    -0.00109989
H         0.89309725    -0.01085298     1.86539369    -0.00045278     0.00047639    -0.00013378
H        -0.87459410     0.05615846     1.88576421    -0.00084942     0.00059428     0.00064109
H        -0.96659190     0.13488065    -0.58157160    -0.00040267     0.00040020    -0.00117804
     6
  Step:    19            Position(A)                                  Velocity(au)
C        -0.03709678     0.01020919    -0.01197709    -0.00002168     0.00002739    -0.00069729
N        -0.05468463    -0.07570420     1.32684662     0.00011675    -0.00014675     0.00072297
H         0.94743206     0.07224950    -0.56932579     0.00060632     0.00025404    -0.00103110
H         0.89007448    -0.00825420     1.86440790    -0.00065696     0.00044756    -0.00023255
H        -0.87955727     0.05950857     1.88954010    -0.00091355     0.00063702     0.00068250
H        -0.96891578     0.13708492    -0.58818529    -0.00039976     0.00037433    -0.00115651
     6
  Step:    20            Position(A)                                  Velocity(au)
C        -0.03719899     0.01038468    -0.01613627    -0.00001501     0.00003542    -0.00079455
N        -0.05398211    -0.07653939     1.33109016     0.00013404    -0.00015325     0.00079958
H         0.95043934     0.07373061    -0.57471828     0.00047299     0.00026907    -0.00090862
H         0.88580789    -0.00588703     1.86281337    -0.00086491     0.00041485    -0.00033427
H        -0.88473042     0.06322662     1.89333700    -0.00093565     0.00068766     0.00067640
H        -0.97102750     0.13903407    -0.59440380    -0.00035612     0.00033607    -0.00107686
     6
  Step:    21            Position(A)                                  Velocity(au)
C        -0.03726374     0.01060302    -0.02081269    -0.00000836     0.00004261    -0.00087837
N        -0.05319409    -0.07740835     1.33573818     0.00014677    -0.00015813     0.00086363
H         0.95269184     0.07524157    -0.57942988     0.00033512     0.00027012    -0.00078284
H         0.88045647    -0.00364096     1.86069073    -0.00103975     0.00039494    -0.00041844
H        -0.88996192     0.06715546     1.89706179    -0.00093042     0.00071664     0.00065399
H        -0.97287587     0.14082215    -0.60016023    -0.00030485     0.00030810    -0.00098729
     6
  Step:    22            Position(A)                                  Velocity(au)
C        -0.03729215     0.01085967    -0.02592856    -0.00000202     0.00004891    -0.00094727
N        -0.05234593    -0.07830227     1.34071812     0.00015477    -0.00016141     0.00091389
H         0.95417533     0.07674194    -0.58344549     0.00019749     0.00026550    -0.00065635
H         0.87421658    -0.00148412     1.85814847    -0.00117564     0.00037947    -0.00048111
H        -0.89510300     0.07121585     1.90062779    -0.00089956     0.00073289     0.00061705
H        -0.97442602     0.14246888    -0.60541032    -0.00024888     0.00028242    -0.00089164
     6
  Step:    23            Position(A)                                  Velocity(au)
C        -0.03728634     0.01114965    -0.03140064     0.00000384     0.00005428    -0.00100119
N        -0.05146419    -0.07921246     1.34595307     0.00015801    -0.00016322     0.00095043
H         0.95489929     0.07820913    -0.58676608     0.00006422     0.00025764    -0.00053234
H         0.86731594     0.00060053     1.85531319    -0.00126851     0.00036703    -0.00051993
H        -0.90001667     0.07534722     1.90395879    -0.00084630     0.00073925     0.00056814
H        -0.97565772     0.14397881    -0.61012641    -0.00019092     0.00025749    -0.00079322
     6
  Step:    24            Position(A)                                  Velocity(au)
C        -0.03724911     0.01146783    -0.03714630     0.00000914     0.00005876    -0.00104126
N        -0.05057551    -0.08013104     1.35136719     0.00015667    -0.00016384     0.00097438
H         0.95489493     0.07962860    -0.58941005    -0.00006124     0.00024789    -0.00041390
H         0.86000364     0.00262823     1.85232295    -0.00131645     0.00035776    -0.00053384
H        -0.90458527     0.07949872     1.90699349    -0.00077492     0.00073781     0.00051038
H        -0.97656514     0.14535395    -0.61429792    -0.00013345     0.00023326    -0.00069531
     6
  Step:    25            Position(A)                                  Velocity(au)
C        -0.03718372     0.01180924    -0.04308961     0.00001384     0.00006243    -0.00106961
N        -0.04970543    -0.08105172     1.35689131     0.00015112    -0.00016367     0.00098774
H         0.95421188     0.08099184    -0.59141245    -0.00017632     0.00023731    -0.00030362
H         0.85253776     0.00461665     1.84932037    -0.00131974     0.00035234    -0.00052298
H        -0.90871573     0.08362978     1.90968823    -0.00069018     0.00073078     0.00044704
H        -0.97715581     0.14659736    -0.61793177    -0.00007861     0.00021006    -0.00060089
     6
  Step:    26            Position(A)                                  Velocity(au)
C        -0.03709363     0.01216942    -0.04916671     0.00001792     0.00006543    -0.00108886
N        -0.04887720    -0.08197034     1.36246756     0.00014183    -0.00016311     0.00099291
H         0.95291340     0.08229555    -0.59282219    -0.00027942     0.00022678    -0.00020332
H         0.84517223     0.00658784     1.84644564    -0.00128032     0.00035158    -0.00048835
H        -0.91234164     0.08771141     1.91201745    -0.00059662     0.00072034     0.00038111
H        -0.97744860     0.14771462    -0.62105088    -0.00002804     0.00018830    -0.00051237
     6
  Step:    27            Position(A)                                  Velocity(au)
C        -0.03698234     0.01254468    -0.05532842     0.00002140     0.00006790    -0.00110154
N        -0.04811124    -0.08288508     1.36805166     0.00012928    -0.00016255     0.00099219
H         0.95107125     0.08354089    -0.59369778    -0.00036961     0.00021695    -0.00011405
H         0.83814702     0.00856844     1.84383131    -0.00120091     0.00035623    -0.00043144
H        -0.91542177     0.09172637     1.91397191    -0.00049807     0.00070835     0.00031498
H        -0.97747098     0.14871389    -0.62369081     0.00001711     0.00016832    -0.00043130
     6
  Step:    28            Position(A)                                  Velocity(au)
C        -0.03685331     0.01293207    -0.06153944     0.00002429     0.00006994    -0.00110949
N        -0.04742507    -0.08379617     1.37361205     0.00011390    -0.00016225     0.00098723
H         0.94876189     0.08473237    -0.59410319    -0.00044628     0.00020821    -0.00003627
H         0.83168336     0.01058905     1.84159959    -0.00108444     0.00036671    -0.00035394
H        -0.91793602     0.09566775     1.91555543    -0.00039746     0.00069616     0.00025043
H        -0.97725642     0.14960528    -0.62589536     0.00005603     0.00015029    -0.00035849
     6
  Step:    29            Position(A)                                  Velocity(au)
C        -0.03670991     0.01332928    -0.06777473     0.00002658     0.00007161    -0.00111367
N        -0.04683350    -0.08470526     1.37912655     0.00009607    -0.00016234     0.00097896
H         0.94606483     0.08587661    -0.59410465    -0.00050877     0.00020077     0.00002985
H         0.82598165     0.01268223     1.83986081    -0.00093409     0.00038311    -0.00025779
H        -0.91988056     0.09953596     1.91678127    -0.00029705     0.00068452     0.00018871
H        -0.97684247     0.15039981    -0.62771235     0.00008809     0.00013421    -0.00029416
     6
  Step:    30            Position(A)                                  Velocity(au)
C        -0.03655554     0.01373426    -0.07401454     0.00002826     0.00007292    -0.00111429
N        -0.04634886    -0.08561465     1.38457813     0.00007621    -0.00016281     0.00096764
H         0.94306278     0.08698138    -0.59376881    -0.00055617     0.00019470     0.00008421
H         0.82121992     0.01488052     1.83871192    -0.00075373     0.00040509    -0.00014543
H        -0.92126348     0.10333562     1.91766931    -0.00019866     0.00067374     0.00013080
H        -0.97626969     0.15110869    -0.62919051     0.00011274     0.00012005    -0.00023828
     6
  Step:    31            Position(A)                                  Velocity(au)
C        -0.03639377     0.01414502    -0.08024025     0.00002927     0.00007383    -0.00111107
N        -0.04598089    -0.08652660     1.38995149     0.00005482    -0.00016359     0.00095321
H         0.93984296     0.08805471    -0.59316258    -0.00058740     0.00018997     0.00012665
H         0.81754974     0.01721401     1.83823390    -0.00054858     0.00043198    -0.00002006
H        -0.92210291     0.10707307     1.91824450    -0.00010407     0.00066388     0.00007758
H        -0.97558130     0.15174282    -0.63037801     0.00012945     0.00010772    -0.00019072
     6
  Step:    32            Position(A)                                  Velocity(au)
C        -0.03622837     0.01455942    -0.08643173     0.00002958     0.00007432    -0.00110361
N        -0.04573621    -0.08744293     1.39523108     0.00003251    -0.00016458     0.00093555
H         0.93649812     0.08910448    -0.59235338    -0.00060135     0.00018655     0.00015698
H         0.81508912     0.01970827     1.83848776    -0.00032549     0.00046275     0.00011429
H        -0.92242654     0.11075506     1.91853637    -0.00001512     0.00065497     0.00002994
H        -0.97482298     0.15231258    -0.63132196     0.00013779     0.00009715    -0.00015134
     6
  Step:    33            Position(A)                                  Velocity(au)
C        -0.03606341     0.01497515    -0.09256663     0.00002913     0.00007436    -0.00109155
N        -0.04561779    -0.08836479     1.40040084     0.00001002    -0.00016565     0.00091465
H         0.93312640     0.09013829    -0.59140922    -0.00059718     0.00018439     0.00017511
H         0.81391430     0.02238257     1.83951047    -0.00009283     0.00049615     0.00025289
H        -0.92227184     0.11438850     1.91857893     0.00006630     0.00064709    -0.00001128
H        -0.97404234     0.15282791    -0.63206839     0.00013746     0.00008828    -0.00012003
     6
  Step:    34            Position(A)                                  Velocity(au)
C        -0.03590312     0.01538974    -0.09862068     0.00002790     0.00007392    -0.00107474
N        -0.04562435    -0.08929265     1.40544464    -0.00001185    -0.00016669     0.00089066
H         0.92982965     0.09116352    -0.59039805    -0.00057451     0.00018347     0.00018112
H         0.81405253     0.02524855     1.84131169     0.00014003     0.00053071     0.00039058
H        -0.92168624     0.11798082     1.91841043     0.00013835     0.00064043    -0.00004530
H        -0.97328805     0.15329832    -0.63266225     0.00012839     0.00008103    -0.00009660
     6
  Step:    35            Position(A)                                  Velocity(au)
C        -0.03575186     0.01580063    -0.10456881     0.00002589     0.00007301    -0.00105326
N        -0.04575012    -0.09022632     1.41034726    -0.00003228    -0.00016761     0.00086392
H         0.92671056     0.09218722    -0.58938661    -0.00053356     0.00018373     0.00017539
H         0.81547810     0.02830925     1.84387229     0.00036342     0.00056496     0.00052224
H        -0.92072679     0.12154046     1.91807301     0.00019942     0.00063525    -0.00007150
H        -0.97260857     0.15373278    -0.63314713     0.00011077     0.00007538    -0.00008077
     6
  Step:    36            Position(A)                                  Velocity(au)
C        -0.03561388     0.01620527    -0.11038637     0.00002314     0.00007164    -0.00102736
N        -0.04598493    -0.09116503     1.41509527    -0.00005052    -0.00016834     0.00083489
H         0.92386932     0.09321597    -0.58843876    -0.00047518     0.00018515     0.00015862
H         0.81811217     0.03155958     1.84714556     0.00056819     0.00059744     0.00064315
H        -0.91945855     0.12507703     1.91761171     0.00024817     0.00063189    -0.00008944
H        -0.97205068     0.15414037    -0.63356453     0.00008505     0.00007127    -0.00007216
     6
  Step:    37            Position(A)                                  Velocity(au)
C        -0.03549322     0.01660122    -0.11605020     0.00001971     0.00006985    -0.00099753
N        -0.04631467    -0.09210765     1.41967767    -0.00006592    -0.00016883     0.00080415
H         0.92140012     0.09425638    -0.58761398    -0.00040086     0.00018770     0.00013177
H         0.82182797     0.03498594     1.85105989     0.00074653     0.00062678     0.00074934
H        -0.91795335     0.12860224     1.91707346     0.00028364     0.00063077    -0.00009892
H        -0.97165805     0.15452923    -0.63395355     0.00005195     0.00006855    -0.00007026
     6
  Step:    38            Position(A)                                  Velocity(au)
C        -0.03539349     0.01698629    -0.12153970     0.00001569     0.00006770    -0.00096435
N        -0.04672203    -0.09305274     1.42408639    -0.00007803    -0.00016906     0.00077226
H         0.91938729     0.09531461    -0.58696550    -0.00031273     0.00019131     0.00009613
H         0.82645906     0.03856760     1.85552388     0.00089238     0.00065189     0.00083788
H        -0.91628715     0.13212964     1.91650568     0.00030539     0.00063225    -0.00010001
H        -0.97146986     0.15490686    -0.63435007     0.00001239     0.00006709    -0.00007442
     6
  Step:    39            Position(A)                                  Velocity(au)
C        -0.03531771     0.01735856    -0.12683760     0.00001120     0.00006525    -0.00092851
N        -0.04718754    -0.09399874     1.42831637    -0.00008656    -0.00016901     0.00073983
H         0.91790186     0.09639638    -0.58653862    -0.00021343     0.00019587     0.00005324
H         0.83181031     0.04227807     1.86043257     0.00100181     0.00067194     0.00090697
H        -0.91453724     0.13567469     1.91595477     0.00031345     0.00063663    -0.00009302
H        -0.97151948     0.15527976    -0.63478600    -0.00003249     0.00006675    -0.00008389
     6
  Step:    40            Position(A)                                  Velocity(au)
C        -0.03526812     0.01771646    -0.13193036     0.00000639     0.00006256    -0.00089073
N        -0.04769064    -0.09494410     1.43236555    -0.00009140    -0.00016873     0.00070737
H         0.91699882     0.09750652    -0.58636972    -0.00010601     0.00020123     0.00000474
H         0.83766998     0.04608711     1.86567345     0.00107301     0.00068653     0.00095586
H        -0.91277945     0.13925399     1.91546473     0.00030838     0.00064413    -0.00007854
H        -0.97183346     0.15565379    -0.63528880    -0.00008142     0.00006740    -0.00009783
     6
  Step:    41            Position(A)                                  Velocity(au)
C        -0.03524614     0.01805883    -0.13680841     0.00000142     0.00005971    -0.00085174
N        -0.04821067    -0.09588747     1.43623458    -0.00009265    -0.00016823     0.00067535
H         0.91671525     0.09864890    -0.58648557     0.00000630     0.00020722    -0.00004762
H         0.84382154     0.04996304     1.87113241     0.00110615     0.00069546     0.00098486
H        -0.91108530     0.14288502     1.91507562     0.00029121     0.00065486    -0.00005736
H        -0.97243094     0.15603428    -0.63588110    -0.00013307     0.00006887    -0.00011537
     6
  Step:    42            Position(A)                                  Velocity(au)
C        -0.03525224     0.01838490    -0.14146608    -0.00000356     0.00005676    -0.00081219
N        -0.04872789    -0.09682758     1.43992645    -0.00009053    -0.00016756     0.00064414
H         0.91706934     0.09982651    -0.58690280     0.00012015     0.00021369    -0.00010206
H         0.85005401     0.05387319     1.87669957     0.00110300     0.00069876     0.00099508
H        -0.90951916     0.14658551     1.91482250     0.00026342     0.00066880    -0.00003048
H        -0.97332323     0.15642484    -0.63658044    -0.00018605     0.00007089    -0.00013561
     6
  Step:    43            Position(A)                                  Velocity(au)
C        -0.03528603     0.01869430    -0.14590134    -0.00000839     0.00005379    -0.00077267
N        -0.04922421    -0.09776341     1.44344608    -0.00008539    -0.00016675     0.00061402
H         0.91806044     0.10104125    -0.58762825     0.00023231     0.00022042    -0.00015694
H         0.85617034     0.05778613     1.88227293     0.00106655     0.00069676     0.00098815
H        -0.90813618     0.15037265     1.91473441     0.00022679     0.00068580     0.00000099
H        -0.97451386     0.15682795    -0.63739934    -0.00023902     0.00007326    -0.00015767
     6
  Step:    44            Position(A)                                  Velocity(au)
C        -0.03534621     0.01898701    -0.15011534    -0.00001293     0.00005085    -0.00073368
N        -0.04968372    -0.09869414     1.44679980    -0.00007764    -0.00016583     0.00058520
H         0.91966980     0.10229393    -0.58865961     0.00033971     0.00022724    -0.00021071
H         0.86199292     0.06167270     1.88776092     0.00100055     0.00068991     0.00096606
H        -0.90698051     0.15426234     1.91483364     0.00018337     0.00070556     0.00003582
H        -0.97599878     0.15724495    -0.63834543    -0.00029068     0.00007579    -0.00018072
     6