     6
  Step:     0            Position(A)                                  Velocity(au)
C        -0.03085872     0.02823524     0.01001220     0.00002306    -0.00011998    -0.00028333
N        -0.05300586    -0.07106776     1.30488490     0.00008185     0.00009782     0.00022291
H         0.89688909     0.02341430    -0.51798748     0.00049591     0.00033940    -0.00056381
H         0.88075370    -0.04797402     1.84874905    -0.00112894    -0.00025426    -0.00030769
H        -0.88938237    -0.02025435     1.82113767    -0.00063360    -0.00061096     0.00043593
H        -0.99689548     0.02616641    -0.51230362    -0.00014559     0.00059611     0.00071414
     6
  Step:     1            Position(A)                                  Velocity(au)
C        -0.03074545     0.02759196     0.00839110     0.00001881    -0.00011544    -0.00030833
N        -0.05248955    -0.07054848     1.30618940     0.00010553     0.00009228     0.00025306
H         0.89996092     0.02526760    -0.52145693     0.00062102     0.00033850    -0.00070083
H         0.87413078    -0.04935386     1.84690588    -0.00128137    -0.00025006    -0.00035929
H        -0.89339495    -0.02352507     1.82399601    -0.00082290    -0.00058661     0.00060137
H        -0.99785642     0.02941261    -0.50865990    -0.00020740     0.00059147     0.00061615
     6
  Step:     2            Position(A)                                  Velocity(au)
C        -0.03065290     0.02697234     0.00663928     0.00001549    -0.00011127    -0.00033094
N        -0.05185147    -0.07005833     1.30765327     0.00012596     0.00008713     0.00028097
H         0.90368270     0.02711731    -0.52565416     0.00073178     0.00033785    -0.00082855
H         0.86673629    -0.05070956     1.84481863    -0.00140816    -0.00024529    -0.00039540
H        -0.89838440    -0.02667149     1.82771633    -0.00098729    -0.00056521     0.00074873
H        -0.99916427     0.03263675    -0.50556326    -0.00027136     0.00058772     0.00051434
     6
  Step:     3            Position(A)                                  Velocity(au)
C        -0.03057590     0.02637440     0.00476980     0.00001311    -0.00010741    -0.00035099
N        -0.05111125    -0.06959509     1.30926386     0.00014243     0.00008235     0.00030632
H         0.90796840     0.02896453    -0.53052333     0.00082528     0.00033721    -0.00094480
H         0.85872205    -0.05203792     1.84257925    -0.00150439    -0.00023984    -0.00041322
H        -0.90419831    -0.02970983     1.83218894    -0.00112099    -0.00054651     0.00087406
H        -1.00082581     0.03584369    -0.50303171    -0.00033539     0.00058460     0.00040975
     6
  Step:     4            Position(A)                                  Velocity(au)
C        -0.03050935     0.02579643     0.00279666     0.00001164    -0.00010383    -0.00036832
N        -0.05029219    -0.06915675     1.31100679     0.00015432     0.00007792     0.00032877
H         0.91271770     0.03080904    -0.53599766     0.00089918     0.00033634    -0.00104769
H         0.85026645    -0.05333525     1.84029472    -0.00156536    -0.00023364    -0.00041014
H        -0.91065677    -0.03265454     1.83728542    -0.00121974    -0.00053015     0.00097444
H        -1.00283611     0.03903680    -0.50107743    -0.00039729     0.00058184     0.00030358
     6
  Step:     5            Position(A)                                  Velocity(au)
C        -0.03044843     0.02523696     0.00073477     0.00001100    -0.00010048    -0.00038276
N        -0.04942058    -0.06874150     1.31286566     0.00016118     0.00007379     0.00034796
H         0.91781922     0.03264928    -0.54200111     0.00095181     0.00033503    -0.00113571
H         0.84157298    -0.05459756     1.83808599    -0.00158698    -0.00022669    -0.00038392
H        -0.91756095    -0.03551781     1.84286427    -0.00128097    -0.00051574     0.00104804
H        -1.00517825     0.04221793    -0.49970593    -0.00045486     0.00057919     0.00019719
     6
  Step:     6            Position(A)                                  Velocity(au)
C        -0.03038873     0.02469475    -0.00140017     0.00001111    -0.00009733    -0.00039422
N        -0.04852485    -0.06834766     1.31482208     0.00016274     0.00006995     0.00036356
H         0.92315401     0.03448248    -0.54845031     0.00098224     0.00033308    -0.00120781
H         0.83286578    -0.05582084     1.83608516    -0.00156628    -0.00021902    -0.00033299
H        -0.92470214    -0.03830940     1.84877681    -0.00130385    -0.00050285     0.00109420
H        -1.00782346     0.04538747    -0.49891532    -0.00050603     0.00057644     0.00009202
     6
  Step:     7            Position(A)                                  Velocity(au)
C        -0.03032647     0.02416875    -0.00359194     0.00001061    -0.00009069    -0.00046574
N        -0.04763447    -0.06797376     1.31685586     0.00015926     0.00006286     0.00042644
H         0.92859958     0.03630487    -0.55525710     0.00095923     0.00034073    -0.00121682
H         0.82438260    -0.05700134     1.83443133    -0.00152917    -0.00021932    -0.00027940
H        -0.93187104    -0.04103670     1.85487343    -0.00126570    -0.00047949     0.00109006
H        -1.01073210     0.04854453    -0.49869601    -0.00050395     0.00056521     0.00002991
     6
  Step:     8            Position(A)                                  Velocity(au)
C        -0.03027212     0.02369832    -0.00651735     0.00000972    -0.00008064    -0.00059495
N        -0.04677505    -0.06765705     1.31950756     0.00015055     0.00005251     0.00053450
H         0.93369338     0.03822616    -0.56181993     0.00088394     0.00034268    -0.00116494
H         0.81606430    -0.05823054     1.83301527    -0.00147262    -0.00021028    -0.00022248
H        -0.93860876    -0.04357767     1.86075359    -0.00116936    -0.00046147     0.00103803
H        -1.01336048     0.05159761    -0.49858672    -0.00044987     0.00056025     0.00001130
     6
  Step:     9            Position(A)                                  Velocity(au)
C        -0.03021950     0.02328152    -0.01013768     0.00000978    -0.00007096    -0.00071526
N        -0.04597816    -0.06739604     1.32273650     0.00013627     0.00004257     0.00063352
H         0.93832481     0.04007510    -0.56807385     0.00079043     0.00032725    -0.00110112
H         0.80818068    -0.05931489     1.83198358    -0.00136624    -0.00018230    -0.00013915
H        -0.94473645    -0.04611389     1.86629390    -0.00104274    -0.00046064     0.00096543
H        -1.01568163     0.05470844    -0.49857170    -0.00039164     0.00056963    -0.00000570
     6
  Step:    10            Position(A)                                  Velocity(au)
C        -0.03016432     0.02291635    -0.01439994     0.00001055    -0.00006167    -0.00082421
N        -0.04527330    -0.06718794     1.32648934     0.00011692     0.00003318     0.00072141
H         0.94240445     0.04183262    -0.57395494     0.00068243     0.00030946    -0.00102639
H         0.80100744    -0.06023958     1.83148174    -0.00121083    -0.00015321    -0.00003058
H        -0.95010046    -0.04865425     1.87139325    -0.00089118    -0.00045962     0.00087619
H        -1.01767655     0.05787533    -0.49864949    -0.00033085     0.00057702    -0.00002276
     6
  Step:    11            Position(A)                                  Velocity(au)
C        -0.03010300     0.02260054    -0.01923952     0.00001190    -0.00005283    -0.00091975
N        -0.04468704    -0.06702960     1.33070304     0.00009321     0.00002442     0.00079651
H         0.94586090     0.04349251    -0.57940838     0.00056353     0.00029056    -0.00094277
H         0.79480940    -0.06100681     1.83164588    -0.00101038    -0.00012475     0.00010040
H        -0.95457782    -0.05118952     1.87596978    -0.00072086    -0.00045645     0.00077417
H        -1.01933527     0.06108055    -0.49882307    -0.00026932     0.00058074    -0.00004057
     6
  Step:    12            Position(A)                                  Velocity(au)
C        -0.03003261     0.02233153    -0.02458097     0.00001371    -0.00004452    -0.00100016
N        -0.04424157    -0.06691757     1.33530618     0.00006611     0.00001635     0.00085761
H         0.94864230     0.04504891    -0.58439072     0.00043759     0.00027065    -0.00085259
H         0.78982319    -0.06162051     1.83259308    -0.00077220    -0.00009724     0.00024909
H        -0.95807986    -0.05370685     1.87996274    -0.00053848    -0.00045072     0.00066349
H        -1.02065771     0.06430369    -0.49909856    -0.00020890     0.00058052    -0.00005960
     6
  Step:    13            Position(A)                                  Velocity(au)
C        -0.02995087     0.02210647    -0.03034011     0.00001585    -0.00003677    -0.00106433
N        -0.04395334    -0.06684815     1.34022145     0.00003681     0.00000900     0.00090410
H         0.95071760     0.04649640    -0.58887111     0.00030864     0.00024986    -0.00075848
H         0.78623896    -0.06208605     1.83441051    -0.00050664    -0.00007087     0.00040914
H        -0.96055431    -0.05619193     1.88333374    -0.00035103    -0.00044236     0.00054851
H        -1.02165380     0.06752360    -0.49948454    -0.00015143     0.00057645    -0.00008019
     6
  Step:    14            Position(A)                                  Velocity(au)
C        -0.02985619     0.02192224    -0.03642731     0.00001820    -0.00002965    -0.00111198
N        -0.04383183    -0.06681741     1.34536908     0.00000668     0.00000241     0.00093618
H         0.95207760     0.04782990    -0.59283284     0.00018073     0.00022836    -0.00066324
H         0.78418411    -0.06240936     1.83714696    -0.00022641    -0.00004579     0.00057312
H        -0.96198687    -0.05863042     1.88606776    -0.00016543    -0.00043157     0.00043357
H        -1.02234316     0.07071978    -0.49999112    -0.00009859     0.00056890    -0.00010255
     6
  Step:    15            Position(A)                                  Velocity(au)
C        -0.02974769     0.02177546    -0.04275203     0.00002064    -0.00002321    -0.00114381
N        -0.04387881    -0.06682131     1.35067113    -0.00002291    -0.00000343     0.00095493
H         0.95273493     0.04904537    -0.59627423     0.00005764     0.00020647    -0.00056974
H         0.78371174    -0.06259712     1.84080766     0.00005476    -0.00002210     0.00073337
H        -0.96240088    -0.06100909     1.88817323     0.00001180    -0.00041877     0.00032285
H        -1.02275422     0.07387364    -0.50062923    -0.00005178     0.00055848    -0.00012679
     6
  Step:    16            Position(A)                                  Velocity(au)
C        -0.02962519     0.02166255    -0.04922807     0.00002305    -0.00001745    -0.00116154
N        -0.04408825    -0.06685575     1.35605600    -0.00005067    -0.00000852     0.00096223
H         0.95272262     0.05014063    -0.59920898    -0.00005740     0.00018461    -0.00048069
H         0.78479699    -0.06265674     1.84535437     0.00032373     0.00000008     0.00088303
H        -0.96185483    -0.06331706     1.88968092     0.00017509    -0.00040462     0.00022007
H        -1.02292260     0.07696995    -0.50141003    -0.00001201     0.00054610    -0.00015296
     6
  Step:    17            Position(A)                                  Velocity(au)
C        -0.02948916     0.02157980    -0.05577906     0.00002534    -0.00001238    -0.00116770
N        -0.04444707    -0.06691680     1.36146287    -0.00007554    -0.00001291     0.00096061
H         0.95209112     0.05111579    -0.60166531    -0.00016194     0.00016318    -0.00039844
H         0.78734251    -0.06259619     1.85071111     0.00056942     0.00002076     0.00101680
H        -0.96043720    -0.06554700     1.89064141     0.00032013    -0.00038989     0.00012824
H        -1.02288891     0.07999833    -0.50234474     0.00002015     0.00053282    -0.00018116
     6
  Step:    18            Position(A)                                  Velocity(au)
C        -0.02934060     0.02152356    -0.06234275     0.00002742    -0.00000797    -0.00116523
N        -0.04493664    -0.06700079     1.36684479    -0.00009677    -0.00001670     0.00095279
H         0.95090388     0.05197337    -0.60368392    -0.00025437     0.00014257    -0.00032478
H         0.79119223    -0.06242356     1.85677421     0.00078375     0.00004001     0.00113132
H        -0.95825942    -0.06769592     1.89112118     0.00044394    -0.00037538     0.00004954
H        -1.02269625     0.08295414    -0.50344467     0.00004459     0.00051972    -0.00021151
     6
  Step:    19            Position(A)                                  Velocity(au)
C        -0.02918100     0.02149030    -0.06887302     0.00002923    -0.00000416    -0.00115686
N        -0.04553446    -0.06710444     1.37216965    -0.00011387    -0.00001996     0.00094125
H         0.94923270     0.05271789    -0.60531493    -0.00033382     0.00012301    -0.00026085
H         0.79614976    -0.06214663     1.86342406     0.00096170     0.00005797     0.00122491
H        -0.95544851    -0.06976528     1.89119814     0.00054467    -0.00036179    -0.00001458
H        -1.02238783     0.08583852    -0.50472150     0.00006153     0.00050771    -0.00024415
     6
  Step:    20            Position(A)                                  Velocity(au)
C        -0.02901225     0.02147677    -0.07533887     0.00003068    -0.00000091    -0.00114470
N        -0.04621584    -0.06722496     1.37741872    -0.00012657    -0.00002277     0.00092780
H         0.94715371     0.05335527    -0.60661435    -0.00039983     0.00010463    -0.00020724
H         0.80199599    -0.06177233     1.87053484     0.00110063     0.00007484     0.00129696
H        -0.95214065    -0.07176032     1.89095736     0.00062110    -0.00034955    -0.00006328
H        -1.02200503     0.08865773    -0.50618750     0.00007141     0.00049740    -0.00027921
     6
  Step:    21            Position(A)                                  Velocity(au)
C        -0.02883669     0.02148004    -0.08172078     0.00003168     0.00000185    -0.00112998
N        -0.04695505    -0.06736003     1.38258303    -0.00013472    -0.00002522     0.00091350
H         0.94474510     0.05389218    -0.60764090    -0.00045199     0.00008739    -0.00016412
H         0.80850294    -0.06130665     1.87798073     0.00119957     0.00009077     0.00134737
H        -0.94847748    -0.07368851     1.89048785     0.00067223    -0.00033884    -0.00009606
H        -1.02158630     0.09142120    -0.50785530     0.00007478     0.00048900    -0.00031665
     6
  Step:    22            Position(A)                                  Velocity(au)
C        -0.02865715     0.02149755    -0.08800591     0.00003212     0.00000420    -0.00111313
N        -0.04772601    -0.06750766     1.38765907    -0.00013823    -0.00002734     0.00089867
H         0.94208694     0.05433495    -0.60845414    -0.00048975     0.00007121    -0.00013150
H         0.81544314    -0.06075475     1.88563882     0.00125857     0.00010587     0.00137624
H        -0.94460498    -0.07555874     1.88988054     0.00069709    -0.00032968    -0.00011263
H        -1.02116678     0.09413940    -0.50973712     0.00007219     0.00048238    -0.00035623
     6
  Step:    23            Position(A)                                  Velocity(au)
C        -0.02847707     0.02152711    -0.09418375     0.00003189     0.00000619    -0.00109408
N        -0.04850268    -0.06766613     1.39264484    -0.00013710    -0.00002916     0.00088317
H         0.93926170     0.05468945    -0.60911323    -0.00051250     0.00005597    -0.00010926
H         0.82259437    -0.06012127     1.89338966     0.00127855     0.00012017     0.00138392
H        -0.94067261    -0.07737975     1.88922686     0.00069493    -0.00032193    -0.00011292
H        -1.02077802     0.09682210    -0.51184379     0.00006428     0.00047723    -0.00039754
     6
  Step:    24            Position(A)                                  Velocity(au)
C        -0.02830048     0.02156678    -0.10024333     0.00003087     0.00000785    -0.00107255
N        -0.04925953    -0.06783382     1.39753750    -0.00013146    -0.00003069     0.00086670
H         0.93635460     0.05496094    -0.60967625    -0.00051968     0.00004158    -0.00009721
H         0.82974393    -0.05941067     1.90111815     0.00126133     0.00013364     0.00137113
H        -0.93683207    -0.07915957     1.88861750     0.00066551    -0.00031541    -0.00009721
H        -1.02044779     0.09947732    -0.51418367     0.00005174     0.00047317    -0.00044000
     6
  Step:    25            Position(A)                                  Velocity(au)
C        -0.02813199     0.02161486    -0.10617212     0.00002899     0.00000922    -0.00104833
N        -0.04997204    -0.06800922     1.40233225    -0.00012154    -0.00003195     0.00084893
H         0.93345301     0.05515420    -0.61019973    -0.00051103     0.00002798    -0.00009502
H         0.83669276    -0.05862754     1.90871530     0.00120969     0.00014625     0.00133916
H        -0.93323391    -0.08090525     1.88814035     0.00060948    -0.00030998    -0.00006621
H        -1.02019972     0.10211095    -0.51676183     0.00003535     0.00046984    -0.00048295
     6
  Step:    26            Position(A)                                  Velocity(au)
C        -0.02797661     0.02166982    -0.11195636     0.00002618     0.00001034    -0.00102134
N        -0.05061746    -0.06819082     1.40702259    -0.00010774    -0.00003294     0.00082969
H         0.93064483     0.05527358    -0.61073794    -0.00048668     0.00001512    -0.00010226
H         0.84325983    -0.05777660     1.91608065     0.00112734     0.00015797     0.00128990
H        -0.93002233    -0.08262294     1.88787772     0.00052858    -0.00030550    -0.00002122
H        -1.02005283     0.10472684    -0.51957966     0.00001598     0.00046693    -0.00052572
     6
  Step:    27            Position(A)                                  Velocity(au)
C        -0.02783958     0.02173034    -0.11758184     0.00002242     0.00001123    -0.00099170
N        -0.05117559    -0.06837718     1.41160097    -0.00009059    -0.00003367     0.00080895
H         0.92801615     0.05532313    -0.61134208    -0.00044724     0.00000294    -0.00011828
H         0.84928666    -0.05686277     1.92312518     0.00101874     0.00016879     0.00122571
H        -0.92732894    -0.08431813     1.88790329     0.00042571    -0.00030191     0.00003593
H        -1.02002117     0.10732715    -0.52263477    -0.00000544     0.00046424    -0.00056767
     6
  Step:    28            Position(A)                                  Velocity(au)
C        -0.02772619     0.02179523    -0.12303506     0.00001773     0.00001192    -0.00095972
N        -0.05162947    -0.06856692     1.41605972    -0.00007074    -0.00003415     0.00078685
H         0.92564851     0.05530643    -0.61205926    -0.00039383    -0.00000861    -0.00014227
H         0.85464053    -0.05589102     1.92977353     0.00088879     0.00017872     0.00114931
H        -0.92526652    -0.08599575     1.88827914     0.00030484    -0.00029915     0.00010290
H        -1.02011361     0.10991299    -0.52592129    -0.00002797     0.00046162    -0.00060825
     6
  Step:    29            Position(A)                                  Velocity(au)
C        -0.02764152     0.02186349    -0.12830409     0.00001217     0.00001245    -0.00092579
N        -0.05196595    -0.06875876     1.42039191    -0.00004891    -0.00003443     0.00076363
H         0.92361612     0.05522697    -0.61293156    -0.00032806    -0.00001957    -0.00017323
H         0.85921646    -0.05486612     1.93596553     0.00074258     0.00018781     0.00106353
H        -0.92392323    -0.08766033     1.88905291     0.00017079    -0.00029716     0.00017691
H        -1.02033372     0.11248450    -0.52943032    -0.00005069     0.00045898    -0.00064700
     6
  Step:    30            Position(A)                                  Velocity(au)
C        -0.02759017     0.02193429    -0.13337921     0.00000585     0.00001284    -0.00089039
N        -0.05217598    -0.06895157     1.42459192    -0.00002585    -0.00003451     0.00073957
H         0.92198306     0.05508781    -0.61399486    -0.00025193    -0.00003002    -0.00021000
H         0.86293762    -0.05379254     1.94165666     0.00058514     0.00019616     0.00097122
H        -0.92335818    -0.08931596     1.89025586     0.00002904    -0.00029586     0.00025497
H        -1.02068002     0.11504132    -0.53315045    -0.00007273     0.00045627    -0.00068355
     6
  Step:    31            Position(A)                                  Velocity(au)
C        -0.02757613     0.02200697    -0.13825326    -0.00000111     0.00001313    -0.00085399
N        -0.05225482    -0.06914438     1.42865581    -0.00000232    -0.00003444     0.00071501
H         0.92080111     0.05489155    -0.61527809    -0.00016780    -0.00004005    -0.00025127
H         0.86575472    -0.05267428     1.94681789     0.00042124     0.00020385     0.00087509
H        -0.92359875    -0.09096628     1.89190188    -0.00011470    -0.00029518     0.00033395
H        -1.02114636     0.11758285    -0.53706827    -0.00009329     0.00045347    -0.00071760
     6
  Step:    32            Position(A)                                  Velocity(au)
C        -0.02760255     0.02208102    -0.14292164    -0.00000855     0.00001335    -0.00081704
N        -0.05220191    -0.06933639     1.43258139     0.00002096    -0.00003424     0.00069025
H         0.92010810     0.05464025    -0.61680256    -0.00007824    -0.00004978    -0.00029567
H         0.86764447    -0.05151472     1.95143483     0.00025533     0.00021101     0.00077764
H        -0.92463987    -0.09261429     1.89398740    -0.00025476    -0.00029500     0.00041085
H        -1.02172238     0.12010835    -0.54116887    -0.00011168     0.00045056    -0.00074893
     6
  Step:    33            Position(A)                                  Velocity(au)
C        -0.02767164     0.02215610    -0.14738217    -0.00001629     0.00001352    -0.00077993
N        -0.05202068    -0.06952699     1.43636812     0.00004330    -0.00003396     0.00066556
H         0.91992691     0.05433531    -0.61858164     0.00001405    -0.00005932    -0.00034177
H         0.86860751    -0.05031658     1.95550656     0.00009147     0.00021777     0.00068114
H        -0.92644517    -0.09426233     1.89649233    -0.00038578    -0.00029517     0.00048285
H        -1.02239417     0.12261702    -0.54543619    -0.00012733     0.00044753    -0.00077736
     6
  Step:    34            Position(A)                                  Velocity(au)
C        -0.02778456     0.02223201    -0.15163480    -0.00002415     0.00001366    -0.00074300
N        -0.05171817    -0.06971575     1.44001682     0.00006411    -0.00003361     0.00064113
H         0.92026506     0.05397754    -0.62062073     0.00010636    -0.00006878    -0.00038817
H         0.86866633    -0.04908183     1.95904429    -0.00006665     0.00022426     0.00058763
H        -0.92894973    -0.09591188     1.89938170    -0.00050305    -0.00029555     0.00054752
H        -1.02314488     0.12510799    -0.54985332    -0.00013977     0.00044435    -0.00080276
     6
  Step:    35            Position(A)                                  Velocity(au)
C        -0.02794143     0.02230867    -0.15568127    -0.00003194     0.00001380    -0.00070652
N        -0.05130457    -0.06990240     1.44352939     0.00008287    -0.00003324     0.00061712
H         0.92111491     0.05356710    -0.62291737     0.00019606    -0.00007822    -0.00043352
H         0.86786307    -0.04781170     1.96207016    -0.00021568     0.00023061     0.00049894
H        -0.93206412    -0.09756358     1.90260800    -0.00060262    -0.00029598     0.00060283
H        -1.02395537     0.12758030    -0.55440274    -0.00014865     0.00044099    -0.00082503
     6
  Step:    36            Position(A)                                  Velocity(au)
C        -0.02814129     0.02238611    -0.15952473    -0.00003948     0.00001395    -0.00067072
N        -0.05079279    -0.07008690     1.44690839     0.00009913    -0.00003286     0.00059361
H         0.92245456     0.05310407    -0.62546193     0.00028068    -0.00008774    -0.00047655
H         0.86625776    -0.04650656     1.96461609    -0.00035263     0.00023697     0.00041671
H        -0.93567937    -0.09921712     1.90611365    -0.00068149    -0.00029629     0.00064727
H        -1.02480487     0.13003262    -0.55906668    -0.00015372     0.00043741    -0.00084412
     6
  Step:    37            Position(A)                                  Velocity(au)
C        -0.02838218     0.02246445    -0.16316951    -0.00004658     0.00001414    -0.00063576
N        -0.05019781    -0.07026928     1.45015674     0.00011258    -0.00003251     0.00057062
H         0.92424860     0.05258751    -0.62823782     0.00035796    -0.00009748    -0.00051611
H         0.86392610    -0.04516605     1.96672254    -0.00047483     0.00024348     0.00034239
H        -0.93967265    -0.10087147     1.90983449    -0.00073766    -0.00029635     0.00067991
H        -1.02567157     0.13246381    -0.56382696    -0.00015485     0.00043364    -0.00085997
     6
  Step:    38            Position(A)                                  Velocity(au)
C        -0.02866121     0.02254389    -0.16662087    -0.00005310     0.00001436    -0.00060181
N        -0.04953623    -0.07044973     1.45327747     0.00012297    -0.00003220     0.00054817
H         0.92644999     0.05201602    -0.63122257     0.00042599    -0.00010751    -0.00055124
H         0.86095785    -0.04378897     1.96843765    -0.00057994     0.00025028     0.00027725
H        -0.94391286    -0.10252489     1.91370249    -0.00077014    -0.00029607     0.00070029
H        -1.02653323     0.13487271    -0.56866532    -0.00015200     0.00042965    -0.00087258
     6
  Step:    39            Position(A)                                  Velocity(au)
C        -0.02897469     0.02262466    -0.16988481    -0.00005890     0.00001463    -0.00056897
N        -0.04882567    -0.07062857     1.45627344     0.00013016    -0.00003196     0.00052620
H         0.92900202     0.05138786    -0.63438882     0.00048323    -0.00011788    -0.00058116
H         0.85745490    -0.04237327     1.96981622    -0.00066594     0.00025754     0.00022241
H        -0.94826626    -0.10417512     1.91764861    -0.00077887    -0.00029535     0.00070845
H        -1.02736767     0.13725808    -0.57356366    -0.00014523     0.00042546    -0.00088201
     6
  Step:    40            Position(A)                                  Velocity(au)
C        -0.02931829     0.02270705    -0.17296784    -0.00006389     0.00001495    -0.00053733
N        -0.04808430    -0.07080621     1.45914727     0.00013409    -0.00003180     0.00050466
H         0.93184046     0.05070107    -0.63770547     0.00052853    -0.00012863    -0.00060530
H         0.85352920    -0.04091604     1.97091864    -0.00073125     0.00026542     0.00017876
H        -0.95260131    -0.10581958     1.92160532    -0.00076463    -0.00029417     0.00070484
H        -1.02815328     0.13961877    -0.57850425    -0.00013467     0.00042108    -0.00088833
     6
  Step:    41            Position(A)                                  Velocity(au)
C        -0.02968720     0.02279137    -0.17587692    -0.00006800     0.00001533    -0.00050696
N        -0.04733036    -0.07098316     1.46190118     0.00013480    -0.00003174     0.00048349
H         0.93489596     0.04995348    -0.64113881     0.00056118    -0.00013978    -0.00062330
H         0.84930036    -0.03941345     1.97180967    -0.00077472     0.00027407     0.00014697
H        -0.95679303    -0.10745553     1.92550870    -0.00072888    -0.00029250     0.00069028
H        -1.02886942     0.14195374    -0.58346995    -0.00012052     0.00041653    -0.00089168
     6
  Step:    42            Position(A)                                  Velocity(au)
C        -0.03007630     0.02287795    -0.17861927    -0.00007117     0.00001577    -0.00047790
N        -0.04658164    -0.07116000     1.46453702     0.00013239    -0.00003179     0.00046261
H         0.93809634     0.04914285    -0.64465376     0.00058087    -0.00015135    -0.00063500
H         0.84489287    -0.03786079     1.97255703    -0.00079573     0.00028366     0.00012745
H        -0.96072656    -0.10908030     1.92930027    -0.00067367    -0.00029039     0.00066583
H        -1.02949680     0.14426215    -0.58844444    -0.00010305     0.00041188    -0.00089223
     6
  Step:    43            Position(A)                                  Velocity(au)
C        -0.03048031     0.02296710    -0.18120233    -0.00007341     0.00001627    -0.00045018
N        -0.04585514    -0.07133737     1.46705625     0.00012703    -0.00003196     0.00044198
H         0.94136884     0.04826689    -0.64821489     0.00058766    -0.00016335    -0.00064045
H         0.84043325    -0.03625248     1.97322985    -0.00079419     0.00029436     0.00012030
H        -0.96429995    -0.11069146     1.93292826    -0.00060146    -0.00028789     0.00063278
H        -1.03001772     0.14654345    -0.59341240    -0.00008255     0.00040717    -0.00089017
     6
  Step:    44            Position(A)                                  Velocity(au)
C        -0.03089400     0.02305913    -0.18363358    -0.00007473     0.00001682    -0.00042379
N        -0.04516666    -0.07151598     1.46946000     0.00011898    -0.00003226     0.00042152
H         0.94464207     0.04732332    -0.65178740     0.00058194    -0.00017578    -0.00063981
H         0.83604676    -0.03458208     1.97389697    -0.00077060     0.00030629     0.00012531
H        -0.96742597    -0.11228700     1.93634852    -0.00051497    -0.00028509     0.00059252
H        -1.03041631     0.14879742    -0.59835968    -0.00005937     0.00040247    -0.00088573
     6