 Fermi distribution function

Calculation with static geometry


********************************************************************************
 iSCC Total electronic   Diff electronic      SCC error    
   10   -0.54012451E+01   -0.36770587E-12    0.10877605E-06
********************************************************************************

 Total charge:     1.00000000

 Atomic gross charges (e)
 Atom           Charge
    1       0.16664026
    2      -0.06159996
    3       0.19769653
    4       0.27833947
    5       0.27491250
    6       0.14401120

Nr. of electrons (up):     12.00000000
Atom populations (up)
 Atom       Population
    1       3.83335974
    2       5.06159996
    3       0.80230347
    4       0.72166053
    5       0.72508750
    6       0.85598880

l-shell populations (up)
 Atom Sh.   l       Population
    1   1   0       1.32113846
    1   2   1       2.51222128
    2   1   0       1.42639956
    2   2   1       3.63520040
    3   1   0       0.80230347
    4   1   0       0.72166053
    5   1   0       0.72508750
    6   1   0       0.85598880

Orbital populations (up)
 Atom Sh.   l   m       Population  Label
    1   1   0   0       1.32113846  s
    1   2   1  -1       0.60013647  p_y
    1   2   1   0       0.87947446  p_z
    1   2   1   1       1.03261035  p_x
    2   1   0   0       1.42639956  s
    2   2   1  -1       1.32674669  p_y
    2   2   1   0       1.10865603  p_z
    2   2   1   1       1.19979768  p_x
    3   1   0   0       0.80230347  s
    4   1   0   0       0.72166053  s
    5   1   0   0       0.72508750  s
    6   1   0   0       0.85598880  s

Fermi level:                        -0.4956250664 H          -13.4866 eV
Band energy:                        -8.9192399083 H         -242.7049 eV
TS:                                  0.0000000000 H            0.0000 eV
Band free energy (E-TS):            -8.9192399083 H         -242.7049 eV
Extrapolated E(0K):                 -8.9192399083 H         -242.7049 eV
Input / Output electrons (q):     12.0000000000     12.0000000000

Energy H0:                          -5.5346152660 H         -150.6045 eV
Energy SCC:                          0.1333701755 H            3.6292 eV
Total Electronic energy:            -5.4012450904 H         -146.9754 eV
Repulsive energy:                    0.1880280244 H            5.1165 eV
Total energy:                       -5.2132170660 H         -141.8589 eV
Extrapolated to 0:                  -5.2132170660 H         -141.8589 eV
Total Mermin free energy:           -5.2132170660 H         -141.8589 eV
Force related energy:               -5.2132170660 H         -141.8589 eV

SCC converged

Excitation Energy:                   0.1272772996 H            3.4634 eV

Total Forces
    1      0.004158811080     -0.013548631224      0.039050019669
    2     -0.009688279362      0.005055154114     -0.047122986898
    3     -0.007544225420     -0.003146794800     -0.001912688372
    4     -0.000862012593      0.009190165239      0.009817505583
    5      0.010920104538     -0.005081799290     -0.001225520903
    6      0.003015601757      0.007531905961      0.001393670921

Maximal derivative component:        0.471230E-01 au


