|===============================================================================
|
|  DFTB+ release 20.1
|
|  Copyright (C) 2006 - 2020  DFTB+ developers group
|
|===============================================================================
|
|  When publishing results obtained with DFTB+, please cite the following
|  reference:
|
|  * DFTB+, a software package for efficient approximate density functional
|    theory based atomistic simulations, J. Chem. Phys. 152, 124101 (2020).
|    [doi: 10.1063/1.5143190]
|
|  You should also cite additional publications crediting the parametrization
|  data you use. Please consult the documentation of the SK-files for the
|  references.
|
|===============================================================================

Reading input file 'dftb_in.hsd'
Parser version: 8

--------------------------------------------------------------------------------
Reading SK-files:
Done.


Processed input in HSD format written to 'dftb_pin.hsd'

Starting initialization...
--------------------------------------------------------------------------------
OpenMP threads:              1
Chosen random seed:          498248929
Mode:                        Static calculation
Self consistent charges:     Yes
SCC-tolerance:                 0.100000E-05
Max. scc iterations:                   1000
Shell resolved Hubbard:      No
Spin polarisation:           No
Nr. of up electrons:            16.000000
Nr. of down electrons:          16.000000
Periodic boundaries:         No
Electronic solver:           Relatively robust
Maximal SCC-cycles:                    1000
Initial charges:             Set automatically (system chrg:   0.100E+01)
Included shells:             C:  s, p
                             H:  s
                             N:  s, p
Spin coupling constants:     C   1(s)-1(s):  -0.455900E-01
                             C   1(s)-2(p):  -0.293000E-01
                             C   2(p)-1(s):  -0.293000E-01
                             C   2(p)-2(p):  -0.275500E-01
                             H   1(s)-1(s):  -0.792500E-01
                             N   1(s)-1(s):  -0.468700E-01
                             N   1(s)-2(p):  -0.317000E-01
                             N   2(p)-1(s):  -0.317000E-01
                             N   2(p)-2(p):  -0.307200E-01
Range separated hybrid:      Yes
  Screening parameter omega:   0.300000E+00
  Range separated algorithm:   MatrixBased
Extra options:
                             Mulliken analysis
                             Force calculation
Force type                   original
                             Eigenvector printing


REKS Calcuation:             Yes
SSR(2,2) Calcuation:         Yes
Energy Functional:           (PPS+OSS)/2
Number of Core Orbitals:                 15
Number of Active Orbitals:                2
Number of Basis:                         32
Number of States:                         2
State-Averaging Weight:          0.500000
                                 0.500000
State of Interest:                        1
Initial Guess:               Diagonalize H0 matrix
Newton-Raphson for FON opt:  Yes
NR max. Iterations:                      50
Level Shifting:              Yes
Shift Value:                     0.300000
W Scale Factor:              C  =    3.200000
                             H  =    3.200000
                             N  =    3.200000
Transition Dipole:           No
Gradient of Microstate:      No
CP-REKS Solver:              Preconditioned Conjugate-Gradient
CG max. Iterations:                     100
CG Tolerance:                  0.100000E-07
Memory for A and Hxc:        Direct Updating Without Saving
Non-Adiabatic Coupling:      Yes

--------------------------------------------------------------------------------

***  Geometry step: 0

  iSCC       reks energy        Diff energy         x_a       SCC error   
    1      -16.3637601733       0.0000000000     0.999322    1.24799548
    2      -16.3865371993      -0.0227770260     0.999836    0.06381594
    3      -16.3906452271      -0.0041080278     0.999923    0.02606576
    4      -16.3920357737      -0.0013905466     0.999951    0.01553180
    5      -16.3926644705      -0.0006286969     0.999963    0.00998642
    6      -16.3929926868      -0.0003282163     0.999970    0.00677672
    7      -16.3931796557      -0.0001869688     0.999974    0.00475916
    8      -16.3932926771      -0.0001130215     0.999977    0.00342878
    9      -16.3933642358      -0.0000715587     0.999978    0.00265675
   10      -16.3934114164      -0.0000471806     0.999980    0.00208124
   11      -16.3934437274      -0.0000323110     0.999980    0.00162269
   12      -16.3934666818      -0.0000229544     0.999981    0.00125668
   13      -16.3934835832      -0.0000169014     0.999982    0.00102458
   14      -16.3934964684      -0.0000128852     0.999982    0.00093852
   15      -16.3935066259      -0.0000101575     0.999982    0.00086123
   16      -16.3935148896      -0.0000082636     0.999982    0.00079228
   17      -16.3935218104      -0.0000069208     0.999983    0.00073101
   18      -16.3935277592      -0.0000059488     0.999983    0.00067668
   19      -16.3935329898      -0.0000052306     0.999983    0.00062857
   20      -16.3935376784      -0.0000046886     0.999983    0.00058596
   21      -16.3935419489      -0.0000042706     0.999983    0.00054820
   22      -16.3935458899      -0.0000039410     0.999983    0.00051471
   23      -16.3935495650      -0.0000036751     0.999983    0.00048495
   24      -16.3935530206      -0.0000034556     0.999983    0.00046016
   25      -16.3935562912      -0.0000032706     0.999983    0.00043935
   26      -16.3935594024      -0.0000031112     0.999983    0.00042035
   27      -16.3935623738      -0.0000029714     0.999983    0.00040301
   28      -16.3935652204      -0.0000028466     0.999983    0.00038719
   29      -16.3935679540      -0.0000027336     0.999984    0.00037275
   30      -16.3935705839      -0.0000026299     0.999984    0.00035954
   31      -16.3935731179      -0.0000025340     0.999984    0.00034744
   32      -16.3935755622      -0.0000024444     0.999984    0.00033632
   33      -16.3935779223      -0.0000023601     0.999984    0.00032608
   34      -16.3935802028      -0.0000022805     0.999984    0.00031661
   35      -16.3935824077      -0.0000022049     0.999984    0.00030783
   36      -16.3935845406      -0.0000021329     0.999984    0.00029966
   37      -16.3935866048      -0.0000020642     0.999984    0.00029203
   38      -16.3935886033      -0.0000019985     0.999984    0.00028489
   39      -16.3935905387      -0.0000019355     0.999984    0.00027818
   40      -16.3935924138      -0.0000018750     0.999984    0.00027185
   41      -16.3935942308      -0.0000018170     0.999984    0.00026586
   42      -16.3935959920      -0.0000017612     0.999984    0.00026018
   43      -16.3935976996      -0.0000017076     0.999984    0.00025478
   44      -16.3935993555      -0.0000016559     0.999984    0.00024963
   45      -16.3936009617      -0.0000016062     0.999984    0.00024470
   46      -16.3936025200      -0.0000015583     0.999984    0.00023998
   47      -16.3936040322      -0.0000015122     0.999984    0.00023545
   48      -16.3936054999      -0.0000014677     0.999984    0.00023109
   49      -16.3936069248      -0.0000014249     0.999984    0.00022688
   50      -16.3936083083      -0.0000013835     0.999984    0.00022341
   51      -16.3936096520      -0.0000013437     0.999984    0.00022053
   52      -16.3936109572      -0.0000013052     0.999984    0.00021771
   53      -16.3936122253      -0.0000012681     0.999984    0.00021495
   54      -16.3936134575      -0.0000012323     0.999984    0.00021225
   55      -16.3936146552      -0.0000011977     0.999984    0.00020960
   56      -16.3936158195      -0.0000011643     0.999984    0.00020710
   57      -16.3936169515      -0.0000011321     0.999985    0.00020507
   58      -16.3936180525      -0.0000011009     0.999985    0.00020305
   59      -16.3936191233      -0.0000010708     0.999985    0.00020104
   60      -16.3936201650      -0.0000010418     0.999985    0.00019904
   61      -16.3936211787      -0.0000010137     0.999985    0.00019705
   62      -16.3936221652      -0.0000009865     0.999985    0.00019508
   63      -16.3936231254      -0.0000009602     0.999985    0.00019312
   64      -16.3936240603      -0.0000009349     0.999985    0.00019118
   65      -16.3936249706      -0.0000009103     0.999985    0.00018925
   66      -16.3936258571      -0.0000008865     0.999985    0.00018735
   67      -16.3936267207      -0.0000008636     0.999985    0.00018546
   68      -16.3936275620      -0.0000008413     0.999985    0.00018360
   69      -16.3936283818      -0.0000008198     0.999985    0.00018175
   70      -16.3936291808      -0.0000007990     0.999985    0.00017992
   71      -16.3936299595      -0.0000007788     0.999985    0.00017811
   72      -16.3936307188      -0.0000007592     0.999985    0.00017633
   73      -16.3936314591      -0.0000007403     0.999985    0.00017456
   74      -16.3936321811      -0.0000007220     0.999985    0.00017281
   75      -16.3936328853      -0.0000007042     0.999985    0.00017109
   76      -16.3936335723      -0.0000006870     0.999985    0.00016939
   77      -16.3936342426      -0.0000006703     0.999985    0.00016770
   78      -16.3936348967      -0.0000006541     0.999985    0.00016604
   79      -16.3936355352      -0.0000006385     0.999985    0.00016440
   80      -16.3936361584      -0.0000006232     0.999985    0.00016278
   81      -16.3936367669      -0.0000006085     0.999985    0.00016118
   82      -16.3936373611      -0.0000005942     0.999986    0.00015959
   83      -16.3936379414      -0.0000005803     0.999986    0.00015803
   84      -16.3936385082      -0.0000005668     0.999986    0.00015649
   85      -16.3936390619      -0.0000005537     0.999986    0.00015497
   86      -16.3936396030      -0.0000005410     0.999986    0.00015347
   87      -16.3936401317      -0.0000005287     0.999986    0.00015199
   88      -16.3936406484      -0.0000005167     0.999986    0.00015053
   89      -16.3936411535      -0.0000005051     0.999986    0.00014908
   90      -16.3936416474      -0.0000004938     0.999986    0.00014766
   91      -16.3936421302      -0.0000004828     0.999986    0.00014625
   92      -16.3936426024      -0.0000004722     0.999986    0.00014486
   93      -16.3936430642      -0.0000004618     0.999986    0.00014349
   94      -16.3936435159      -0.0000004517     0.999986    0.00014214
   95      -16.3936439579      -0.0000004419     0.999986    0.00014081
   96      -16.3936443903      -0.0000004324     0.999986    0.00013949
   97      -16.3936448135      -0.0000004232     0.999986    0.00013819
   98      -16.3936452277      -0.0000004142     0.999986    0.00013691
   99      -16.3936456331      -0.0000004054     0.999986    0.00013565
  100      -16.3936460299      -0.0000003969     0.999986    0.00013440
  101      -16.3936464185      -0.0000003886     0.999986    0.00013316
  102      -16.3936467990      -0.0000003805     0.999986    0.00013195
  103      -16.3936471717      -0.0000003727     0.999986    0.00013075
  104      -16.3936475367      -0.0000003650     0.999986    0.00012956
  105      -16.3936478942      -0.0000003576     0.999986    0.00012840
  106      -16.3936482445      -0.0000003503     0.999986    0.00012724
  107      -16.3936485878      -0.0000003432     0.999986    0.00012610
  108      -16.3936489241      -0.0000003364     0.999987    0.00012498
  109      -16.3936492538      -0.0000003297     0.999987    0.00012387
  110      -16.3936495769      -0.0000003231     0.999987    0.00012278
  111      -16.3936498937      -0.0000003168     0.999987    0.00012170
  112      -16.3936502042      -0.0000003106     0.999987    0.00012063
  113      -16.3936505088      -0.0000003045     0.999987    0.00011958
  114      -16.3936508074      -0.0000002986     0.999987    0.00011854
  115      -16.3936511003      -0.0000002929     0.999987    0.00011752
  116      -16.3936513876      -0.0000002873     0.999987    0.00011650
  117      -16.3936516694      -0.0000002818     0.999987    0.00011550
  118      -16.3936519458      -0.0000002765     0.999987    0.00011452
  119      -16.3936522171      -0.0000002713     0.999987    0.00011354
  120      -16.3936524833      -0.0000002662     0.999987    0.00011258
  121      -16.3936527446      -0.0000002613     0.999987    0.00011163
  122      -16.3936530010      -0.0000002564     0.999987    0.00011070
  123      -16.3936532528      -0.0000002517     0.999987    0.00010977
  124      -16.3936534999      -0.0000002471     0.999987    0.00010886
  125      -16.3936537425      -0.0000002426     0.999987    0.00010796
  126      -16.3936539807      -0.0000002382     0.999987    0.00010707
  127      -16.3936542147      -0.0000002340     0.999987    0.00010619
  128      -16.3936544445      -0.0000002298     0.999987    0.00010532
  129      -16.3936546701      -0.0000002257     0.999987    0.00010446
  130      -16.3936548918      -0.0000002217     0.999987    0.00010362
  131      -16.3936551096      -0.0000002178     0.999987    0.00010278
  132      -16.3936553236      -0.0000002140     0.999987    0.00010196
  133      -16.3936555339      -0.0000002103     0.999987    0.00010114
  134      -16.3936557405      -0.0000002066     0.999987    0.00010034
  135      -16.3936559436      -0.0000002031     0.999987    0.00009954
  136      -16.3936561432      -0.0000001996     0.999987    0.00009876
  137      -16.3936563394      -0.0000001962     0.999987    0.00009798
  138      -16.3936565323      -0.0000001929     0.999988    0.00009721
  139      -16.3936567219      -0.0000001896     0.999988    0.00009646
  140      -16.3936569083      -0.0000001865     0.999988    0.00009571
  141      -16.3936570917      -0.0000001833     0.999988    0.00009497
  142      -16.3936572720      -0.0000001803     0.999988    0.00009424
  143      -16.3936574493      -0.0000001773     0.999988    0.00009352
  144      -16.3936576237      -0.0000001744     0.999988    0.00009281
  145      -16.3936577953      -0.0000001716     0.999988    0.00009210
  146      -16.3936579641      -0.0000001688     0.999988    0.00009141
  147      -16.3936581302      -0.0000001661     0.999988    0.00009072
  148      -16.3936582936      -0.0000001634     0.999988    0.00009004
  149      -16.3936584544      -0.0000001608     0.999988    0.00008937
  150      -16.3936586126      -0.0000001582     0.999988    0.00008871
  151      -16.3936587683      -0.0000001557     0.999988    0.00008805
  152      -16.3936589216      -0.0000001533     0.999988    0.00008740
  153      -16.3936590725      -0.0000001509     0.999988    0.00008676
  154      -16.3936592210      -0.0000001485     0.999988    0.00008613
  155      -16.3936593672      -0.0000001462     0.999988    0.00008551
  156      -16.3936595112      -0.0000001440     0.999988    0.00008489
  157      -16.3936596529      -0.0000001418     0.999988    0.00008428
  158      -16.3936597925      -0.0000001396     0.999988    0.00008367
  159      -16.3936599300      -0.0000001375     0.999988    0.00008308
  160      -16.3936600654      -0.0000001354     0.999988    0.00008249
  161      -16.3936601988      -0.0000001334     0.999988    0.00008190
  162      -16.3936603301      -0.0000001314     0.999988    0.00008133
  163      -16.3936604595      -0.0000001294     0.999988    0.00008076
  164      -16.3936605870      -0.0000001275     0.999988    0.00008019
  165      -16.3936607126      -0.0000001256     0.999988    0.00007964
  166      -16.3936608364      -0.0000001238     0.999988    0.00007908
  167      -16.3936609584      -0.0000001220     0.999988    0.00007854
  168      -16.3936610786      -0.0000001202     0.999988    0.00007800
  169      -16.3936611970      -0.0000001184     0.999988    0.00007747
  170      -16.3936613137      -0.0000001167     0.999988    0.00007694
  171      -16.3936614288      -0.0000001151     0.999988    0.00007642
  172      -16.3936615422      -0.0000001134     0.999988    0.00007590
  173      -16.3936616541      -0.0000001118     0.999988    0.00007539
  174      -16.3936617643      -0.0000001102     0.999988    0.00007489
  175      -16.3936618730      -0.0000001087     0.999989    0.00007439
  176      -16.3936619802      -0.0000001072     0.999989    0.00007390
  177      -16.3936620859      -0.0000001057     0.999989    0.00007341
  178      -16.3936621901      -0.0000001042     0.999989    0.00007293
  179      -16.3936622929      -0.0000001028     0.999989    0.00007245
  180      -16.3936623942      -0.0000001014     0.999989    0.00007198
  181      -16.3936624942      -0.0000001000     0.999989    0.00007151
  182      -16.3936625929      -0.0000000986     0.999989    0.00007105
  183      -16.3936626902      -0.0000000973     0.999989    0.00007059
  184      -16.3936627861      -0.0000000960     0.999989    0.00007014
  185      -16.3936628808      -0.0000000947     0.999989    0.00006969
  186      -16.3936629743      -0.0000000934     0.999989    0.00006925
  187      -16.3936630665      -0.0000000922     0.999989    0.00006881
  188      -16.3936631574      -0.0000000910     0.999989    0.00006837
  189      -16.3936632472      -0.0000000898     0.999989    0.00006794
  190      -16.3936633358      -0.0000000886     0.999989    0.00006752
  191      -16.3936634233      -0.0000000874     0.999989    0.00006710
  192      -16.3936635096      -0.0000000863     0.999989    0.00006668
  193      -16.3936635948      -0.0000000852     0.999989    0.00006627
  194      -16.3936636789      -0.0000000841     0.999989    0.00006586
  195      -16.3936637619      -0.0000000830     0.999989    0.00006546
  196      -16.3936638438      -0.0000000820     0.999989    0.00006506
  197      -16.3936639248      -0.0000000809     0.999989    0.00006466
  198      -16.3936640047      -0.0000000799     0.999989    0.00006427
  199      -16.3936640836      -0.0000000789     0.999989    0.00006389
  200      -16.3936641615      -0.0000000779     0.999989    0.00006350
  201      -16.3936642384      -0.0000000769     0.999989    0.00006312
  202      -16.3936643144      -0.0000000760     0.999989    0.00006275
  203      -16.3936643894      -0.0000000750     0.999989    0.00006237
  204      -16.3936644635      -0.0000000741     0.999989    0.00006201
  205      -16.3936645367      -0.0000000732     0.999989    0.00006164
  206      -16.3936646091      -0.0000000723     0.999989    0.00006128
  207      -16.3936646805      -0.0000000714     0.999989    0.00006092
  208      -16.3936647511      -0.0000000706     0.999989    0.00006057
  209      -16.3936648208      -0.0000000697     0.999989    0.00006022
  210      -16.3936648897      -0.0000000689     0.999989    0.00005987
  211      -16.3936649577      -0.0000000681     0.999989    0.00005953
  212      -16.3936650250      -0.0000000673     0.999989    0.00005919
  213      -16.3936650915      -0.0000000665     0.999989    0.00005885
  214      -16.3936651571      -0.0000000657     0.999989    0.00005852
  215      -16.3936652221      -0.0000000649     0.999989    0.00005819
  216      -16.3936652862      -0.0000000642     0.999989    0.00005786
  217      -16.3936653496      -0.0000000634     0.999989    0.00005753
  218      -16.3936654123      -0.0000000627     0.999989    0.00005721
  219      -16.3936654742      -0.0000000619     0.999989    0.00005689
  220      -16.3936655355      -0.0000000612     0.999989    0.00005658
  221      -16.3936655960      -0.0000000605     0.999989    0.00005627
  222      -16.3936656558      -0.0000000598     0.999990    0.00005596
  223      -16.3936657150      -0.0000000592     0.999990    0.00005565
  224      -16.3936657735      -0.0000000585     0.999990    0.00005535
  225      -16.3936658313      -0.0000000578     0.999990    0.00005505
  226      -16.3936658885      -0.0000000572     0.999990    0.00005475
  227      -16.3936659451      -0.0000000566     0.999990    0.00005445
  228      -16.3936660010      -0.0000000559     0.999990    0.00005416
  229      -16.3936660563      -0.0000000553     0.999990    0.00005387
  230      -16.3936661110      -0.0000000547     0.999990    0.00005358
  231      -16.3936661651      -0.0000000541     0.999990    0.00005330
  232      -16.3936662186      -0.0000000535     0.999990    0.00005302
  233      -16.3936662716      -0.0000000529     0.999990    0.00005274
  234      -16.3936663239      -0.0000000524     0.999990    0.00005246
  235      -16.3936663757      -0.0000000518     0.999990    0.00005219
  236      -16.3936664269      -0.0000000512     0.999990    0.00005192
  237      -16.3936664776      -0.0000000507     0.999990    0.00005165
  238      -16.3936665278      -0.0000000501     0.999990    0.00005138
  239      -16.3936665774      -0.0000000496     0.999990    0.00005112
  240      -16.3936666265      -0.0000000491     0.999990    0.00005085
  241      -16.3936666750      -0.0000000486     0.999990    0.00005059
  242      -16.3936667231      -0.0000000481     0.999990    0.00005034
  243      -16.3936667707      -0.0000000476     0.999990    0.00005008
  244      -16.3936668177      -0.0000000471     0.999990    0.00004983
  245      -16.3936668643      -0.0000000466     0.999990    0.00004958
  246      -16.3936669104      -0.0000000461     0.999990    0.00004933
  247      -16.3936669560      -0.0000000456     0.999990    0.00004908
  248      -16.3936670012      -0.0000000452     0.999990    0.00004884
  249      -16.3936670459      -0.0000000447     0.999990    0.00004860
  250      -16.3936670901      -0.0000000442     0.999990    0.00004836
  251      -16.3936671339      -0.0000000438     0.999990    0.00004812
  252      -16.3936671773      -0.0000000434     0.999990    0.00004788
  253      -16.3936672202      -0.0000000429     0.999990    0.00004765
  254      -16.3936672627      -0.0000000425     0.999990    0.00004742
  255      -16.3936673047      -0.0000000421     0.999990    0.00004719
  256      -16.3936673464      -0.0000000416     0.999990    0.00004696
  257      -16.3936673876      -0.0000000412     0.999990    0.00004673
  258      -16.3936674284      -0.0000000408     0.999990    0.00004651
  259      -16.3936674689      -0.0000000404     0.999990    0.00004629
  260      -16.3936675089      -0.0000000400     0.999990    0.00004607
  261      -16.3936675485      -0.0000000396     0.999990    0.00004585
  262      -16.3936675878      -0.0000000393     0.999990    0.00004563
  263      -16.3936676267      -0.0000000389     0.999990    0.00004542
  264      -16.3936676652      -0.0000000385     0.999990    0.00004521
  265      -16.3936677033      -0.0000000381     0.999990    0.00004500
  266      -16.3936677411      -0.0000000378     0.999990    0.00004479
  267      -16.3936677785      -0.0000000374     0.999990    0.00004458
  268      -16.3936678156      -0.0000000371     0.999990    0.00004437
  269      -16.3936678523      -0.0000000367     0.999990    0.00004417
  270      -16.3936678887      -0.0000000364     0.999990    0.00004397
  271      -16.3936679247      -0.0000000360     0.999990    0.00004376
  272      -16.3936679604      -0.0000000357     0.999990    0.00004357
  273      -16.3936679957      -0.0000000354     0.999990    0.00004337
  274      -16.3936680308      -0.0000000350     0.999990    0.00004317
  275      -16.3936680655      -0.0000000347     0.999990    0.00004298
  276      -16.3936680999      -0.0000000344     0.999990    0.00004278
  277      -16.3936681339      -0.0000000341     0.999990    0.00004259
  278      -16.3936681677      -0.0000000338     0.999990    0.00004240
  279      -16.3936682012      -0.0000000335     0.999990    0.00004223
  280      -16.3936682343      -0.0000000332     0.999990    0.00004205
  281      -16.3936682672      -0.0000000329     0.999990    0.00004188
  282      -16.3936682997      -0.0000000326     0.999990    0.00004170
  283      -16.3936683320      -0.0000000323     0.999990    0.00004153
  284      -16.3936683640      -0.0000000320     0.999990    0.00004136
  285      -16.3936683957      -0.0000000317     0.999990    0.00004119
  286      -16.3936684271      -0.0000000314     0.999991    0.00004103
  287      -16.3936684582      -0.0000000311     0.999991    0.00004086
  288      -16.3936684891      -0.0000000309     0.999991    0.00004070
  289      -16.3936685197      -0.0000000306     0.999991    0.00004053
  290      -16.3936685500      -0.0000000303     0.999991    0.00004037
  291      -16.3936685801      -0.0000000301     0.999991    0.00004021
  292      -16.3936686099      -0.0000000298     0.999991    0.00004005
  293      -16.3936686395      -0.0000000295     0.999991    0.00003989
  294      -16.3936686687      -0.0000000293     0.999991    0.00003973
  295      -16.3936686978      -0.0000000290     0.999991    0.00003957
  296      -16.3936687266      -0.0000000288     0.999991    0.00003942
  297      -16.3936687551      -0.0000000286     0.999991    0.00003926
  298      -16.3936687835      -0.0000000283     0.999991    0.00003911
  299      -16.3936688115      -0.0000000281     0.999991    0.00003896
  300      -16.3936688394      -0.0000000278     0.999991    0.00003881
  301      -16.3936688670      -0.0000000276     0.999991    0.00003866
  302      -16.3936688943      -0.0000000274     0.999991    0.00003851
  303      -16.3936689215      -0.0000000271     0.999991    0.00003836
  304      -16.3936689484      -0.0000000269     0.999991    0.00003821
  305      -16.3936689751      -0.0000000267     0.999991    0.00003807
  306      -16.3936690016      -0.0000000265     0.999991    0.00003792
  307      -16.3936690278      -0.0000000263     0.999991    0.00003778
  308      -16.3936690539      -0.0000000260     0.999991    0.00003764
  309      -16.3936690797      -0.0000000258     0.999991    0.00003750
  310      -16.3936691053      -0.0000000256     0.999991    0.00003736
  311      -16.3936691308      -0.0000000254     0.999991    0.00003722
  312      -16.3936691560      -0.0000000252     0.999991    0.00003708
  313      -16.3936691810      -0.0000000250     0.999991    0.00003694
  314      -16.3936692058      -0.0000000248     0.999991    0.00003681
  315      -16.3936692304      -0.0000000246     0.999991    0.00003667
  316      -16.3936692548      -0.0000000244     0.999991    0.00003654
  317      -16.3936692790      -0.0000000242     0.999991    0.00003640
  318      -16.3936693031      -0.0000000240     0.999991    0.00003627
  319      -16.3936693269      -0.0000000238     0.999991    0.00003614
  320      -16.3936693506      -0.0000000237     0.999991    0.00003601
  321      -16.3936693741      -0.0000000235     0.999991    0.00003588
  322      -16.3936693974      -0.0000000233     0.999991    0.00003575
  323      -16.3936694205      -0.0000000231     0.999991    0.00003562
  324      -16.3936694434      -0.0000000229     0.999991    0.00003549
  325      -16.3936694662      -0.0000000228     0.999991    0.00003537
  326      -16.3936694887      -0.0000000226     0.999991    0.00003524
  327      -16.3936695112      -0.0000000224     0.999991    0.00003512
  328      -16.3936695334      -0.0000000222     0.999991    0.00003499
  329      -16.3936695555      -0.0000000221     0.999991    0.00003487
  330      -16.3936695774      -0.0000000219     0.999991    0.00003475
  331      -16.3936695991      -0.0000000217     0.999991    0.00003463
  332      -16.3936696207      -0.0000000216     0.999991    0.00003451
  333      -16.3936696421      -0.0000000214     0.999991    0.00003439
  334      -16.3936696634      -0.0000000213     0.999991    0.00003427
  335      -16.3936696845      -0.0000000211     0.999991    0.00003415
  336      -16.3936697054      -0.0000000209     0.999991    0.00003403
  337      -16.3936697262      -0.0000000208     0.999991    0.00003392
  338      -16.3936697468      -0.0000000206     0.999991    0.00003380
  339      -16.3936697673      -0.0000000205     0.999991    0.00003369
  340      -16.3936697876      -0.0000000203     0.999991    0.00003357
  341      -16.3936698078      -0.0000000202     0.999991    0.00003346
  342      -16.3936698279      -0.0000000200     0.999991    0.00003335
  343      -16.3936698478      -0.0000000199     0.999991    0.00003324
  344      -16.3936698675      -0.0000000198     0.999991    0.00003313
  345      -16.3936698871      -0.0000000196     0.999991    0.00003302
  346      -16.3936699066      -0.0000000195     0.999991    0.00003291
  347      -16.3936699259      -0.0000000193     0.999991    0.00003280
  348      -16.3936699451      -0.0000000192     0.999991    0.00003269
  349      -16.3936699642      -0.0000000191     0.999991    0.00003258
  350      -16.3936699831      -0.0000000189     0.999991    0.00003248
  351      -16.3936700019      -0.0000000188     0.999991    0.00003237
  352      -16.3936700206      -0.0000000187     0.999991    0.00003227
  353      -16.3936700391      -0.0000000185     0.999991    0.00003216
  354      -16.3936700575      -0.0000000184     0.999991    0.00003206
  355      -16.3936700758      -0.0000000183     0.999991    0.00003195
  356      -16.3936700939      -0.0000000181     0.999991    0.00003185
  357      -16.3936701119      -0.0000000180     0.999991    0.00003175
  358      -16.3936701298      -0.0000000179     0.999991    0.00003165
  359      -16.3936701476      -0.0000000178     0.999991    0.00003155
  360      -16.3936701653      -0.0000000177     0.999991    0.00003145
  361      -16.3936701828      -0.0000000175     0.999991    0.00003135
  362      -16.3936702002      -0.0000000174     0.999991    0.00003125
  363      -16.3936702175      -0.0000000173     0.999991    0.00003115
  364      -16.3936702347      -0.0000000172     0.999991    0.00003106
  365      -16.3936702518      -0.0000000171     0.999991    0.00003096
  366      -16.3936702687      -0.0000000170     0.999991    0.00003086
  367      -16.3936702856      -0.0000000168     0.999991    0.00003077
  368      -16.3936703023      -0.0000000167     0.999991    0.00003067
  369      -16.3936703189      -0.0000000166     0.999991    0.00003058
  370      -16.3936703354      -0.0000000165     0.999991    0.00003049
  371      -16.3936703518      -0.0000000164     0.999991    0.00003039
  372      -16.3936703681      -0.0000000163     0.999991    0.00003030
  373      -16.3936703843      -0.0000000162     0.999991    0.00003021
  374      -16.3936704004      -0.0000000161     0.999991    0.00003012
  375      -16.3936704164      -0.0000000160     0.999992    0.00003003
  376      -16.3936704322      -0.0000000159     0.999992    0.00002994
  377      -16.3936704480      -0.0000000158     0.999992    0.00002985
  378      -16.3936704637      -0.0000000157     0.999992    0.00002976
  379      -16.3936704793      -0.0000000156     0.999992    0.00002967
  380      -16.3936704947      -0.0000000155     0.999992    0.00002958
  381      -16.3936705101      -0.0000000154     0.999992    0.00002949
  382      -16.3936705254      -0.0000000153     0.999992    0.00002941
  383      -16.3936705406      -0.0000000152     0.999992    0.00002932
  384      -16.3936705557      -0.0000000151     0.999992    0.00002924
  385      -16.3936705706      -0.0000000150     0.999992    0.00002915
  386      -16.3936705855      -0.0000000149     0.999992    0.00002907
  387      -16.3936706003      -0.0000000148     0.999992    0.00002898
  388      -16.3936706151      -0.0000000147     0.999992    0.00002890
  389      -16.3936706297      -0.0000000146     0.999992    0.00002882
  390      -16.3936706442      -0.0000000145     0.999992    0.00002873
  391      -16.3936706587      -0.0000000144     0.999992    0.00002865
  392      -16.3936706730      -0.0000000144     0.999992    0.00002857
  393      -16.3936706873      -0.0000000143     0.999992    0.00002849
  394      -16.3936707015      -0.0000000142     0.999992    0.00002841
  395      -16.3936707155      -0.0000000141     0.999992    0.00002833
  396      -16.3936707296      -0.0000000140     0.999992    0.00002825
  397      -16.3936707435      -0.0000000139     0.999992    0.00002817
  398      -16.3936707573      -0.0000000138     0.999992    0.00002809
  399      -16.3936707711      -0.0000000138     0.999992    0.00002801
  400      -16.3936707848      -0.0000000137     0.999992    0.00002793
  401      -16.3936707983      -0.0000000136     0.999992    0.00002786
  402      -16.3936708119      -0.0000000135     0.999992    0.00002778
  403      -16.3936708253      -0.0000000134     0.999992    0.00002770
  404      -16.3936708387      -0.0000000134     0.999992    0.00002763
  405      -16.3936708519      -0.0000000133     0.999992    0.00002755
  406      -16.3936708651      -0.0000000132     0.999992    0.00002748
  407      -16.3936708783      -0.0000000131     0.999992    0.00002740
  408      -16.3936708913      -0.0000000130     0.999992    0.00002733
  409      -16.3936709043      -0.0000000130     0.999992    0.00002725
  410      -16.3936709172      -0.0000000129     0.999992    0.00002718
  411      -16.3936709300      -0.0000000128     0.999992    0.00002711
  412      -16.3936709427      -0.0000000127     0.999992    0.00002704
  413      -16.3936709554      -0.0000000127     0.999992    0.00002696
  414      -16.3936709680      -0.0000000126     0.999992    0.00002689
  415      -16.3936709805      -0.0000000125     0.999992    0.00002682
  416      -16.3936709930      -0.0000000125     0.999992    0.00002675
  417      -16.3936710054      -0.0000000124     0.999992    0.00002668
  418      -16.3936710177      -0.0000000123     0.999992    0.00002661
  419      -16.3936710300      -0.0000000123     0.999992    0.00002654
  420      -16.3936710422      -0.0000000122     0.999992    0.00002647
  421      -16.3936710543      -0.0000000121     0.999992    0.00002640
  422      -16.3936710663      -0.0000000120     0.999992    0.00002634
  423      -16.3936710783      -0.0000000120     0.999992    0.00002627
  424      -16.3936710902      -0.0000000119     0.999992    0.00002620
  425      -16.3936711021      -0.0000000119     0.999992    0.00002613
  426      -16.3936711139      -0.0000000118     0.999992    0.00002607
  427      -16.3936711256      -0.0000000117     0.999992    0.00002600
  428      -16.3936711372      -0.0000000117     0.999992    0.00002594
  429      -16.3936711488      -0.0000000116     0.999992    0.00002587
  430      -16.3936711604      -0.0000000115     0.999992    0.00002580
  431      -16.3936711718      -0.0000000115     0.999992    0.00002574
  432      -16.3936711832      -0.0000000114     0.999992    0.00002568
  433      -16.3936711946      -0.0000000113     0.999992    0.00002561
  434      -16.3936712059      -0.0000000113     0.999992    0.00002555
  435      -16.3936712171      -0.0000000112     0.999992    0.00002548
  436      -16.3936712283      -0.0000000112     0.999992    0.00002542
  437      -16.3936712394      -0.0000000111     0.999992    0.00002536
  438      -16.3936712504      -0.0000000110     0.999992    0.00002530
  439      -16.3936712614      -0.0000000110     0.999992    0.00002524
  440      -16.3936712723      -0.0000000109     0.999992    0.00002517
  441      -16.3936712832      -0.0000000109     0.999992    0.00002511
  442      -16.3936712940      -0.0000000108     0.999992    0.00002505
  443      -16.3936713048      -0.0000000108     0.999992    0.00002499
  444      -16.3936713155      -0.0000000107     0.999992    0.00002493
  445      -16.3936713262      -0.0000000107     0.999992    0.00002487
  446      -16.3936713368      -0.0000000106     0.999992    0.00002481
  447      -16.3936713473      -0.0000000105     0.999992    0.00002475
  448      -16.3936713578      -0.0000000105     0.999992    0.00002469
  449      -16.3936713682      -0.0000000104     0.999992    0.00002464
  450      -16.3936713786      -0.0000000104     0.999992    0.00002458
  451      -16.3936713890      -0.0000000103     0.999992    0.00002452
  452      -16.3936713992      -0.0000000103     0.999992    0.00002446
  453      -16.3936714095      -0.0000000102     0.999992    0.00002440
  454      -16.3936714196      -0.0000000102     0.999992    0.00002435
  455      -16.3936714298      -0.0000000101     0.999992    0.00002429
  456      -16.3936714398      -0.0000000101     0.999992    0.00002424
  457      -16.3936714499      -0.0000000100     0.999992    0.00002418
  458      -16.3936714598      -0.0000000100     0.999992    0.00002412
  459      -16.3936714698      -0.0000000099     0.999992    0.00002407
  460      -16.3936714797      -0.0000000099     0.999992    0.00002401
  461      -16.3936714895      -0.0000000098     0.999992    0.00002396
  462      -16.3936714993      -0.0000000098     0.999992    0.00002390
  463      -16.3936715090      -0.0000000097     0.999992    0.00002385
  464      -16.3936715187      -0.0000000097     0.999992    0.00002380
  465      -16.3936715283      -0.0000000096     0.999992    0.00002374
  466      -16.3936715379      -0.0000000096     0.999992    0.00002369
  467      -16.3936715475      -0.0000000095     0.999992    0.00002364
  468      -16.3936715570      -0.0000000095     0.999992    0.00002358
  469      -16.3936715664      -0.0000000095     0.999992    0.00002353
  470      -16.3936715759      -0.0000000094     0.999992    0.00002348
  471      -16.3936715852      -0.0000000094     0.999992    0.00002343
  472      -16.3936715946      -0.0000000093     0.999992    0.00002338
  473      -16.3936716038      -0.0000000093     0.999992    0.00002333
  474      -16.3936716131      -0.0000000092     0.999992    0.00002327
  475      -16.3936716223      -0.0000000092     0.999992    0.00002322
  476      -16.3936716314      -0.0000000092     0.999992    0.00002317
  477      -16.3936716405      -0.0000000091     0.999992    0.00002312
  478      -16.3936716496      -0.0000000091     0.999992    0.00002307
  479      -16.3936716586      -0.0000000090     0.999992    0.00002302
  480      -16.3936716676      -0.0000000090     0.999992    0.00002297
  481      -16.3936716766      -0.0000000089     0.999992    0.00002293
  482      -16.3936716855      -0.0000000089     0.999992    0.00002288
  483      -16.3936716943      -0.0000000089     0.999992    0.00002283
  484      -16.3936717031      -0.0000000088     0.999992    0.00002278
  485      -16.3936717119      -0.0000000088     0.999992    0.00002273
  486      -16.3936717207      -0.0000000087     0.999992    0.00002268
  487      -16.3936717294      -0.0000000087     0.999992    0.00002264
  488      -16.3936717380      -0.0000000087     0.999992    0.00002259
  489      -16.3936717467      -0.0000000086     0.999992    0.00002254
  490      -16.3936717552      -0.0000000086     0.999992    0.00002250
  491      -16.3936717638      -0.0000000085     0.999992    0.00002245
  492      -16.3936717723      -0.0000000085     0.999992    0.00002240
  493      -16.3936717808      -0.0000000085     0.999992    0.00002236
  494      -16.3936717892      -0.0000000084     0.999992    0.00002231
  495      -16.3936717976      -0.0000000084     0.999992    0.00002227
  496      -16.3936718060      -0.0000000084     0.999992    0.00002222
  497      -16.3936718143      -0.0000000083     0.999992    0.00002218
  498      -16.3936718226      -0.0000000083     0.999992    0.00002213
  499      -16.3936718308      -0.0000000083     0.999992    0.00002209
  500      -16.3936718391      -0.0000000082     0.999992    0.00002204
  501      -16.3936718472      -0.0000000082     0.999992    0.00002200
  502      -16.3936718554      -0.0000000081     0.999992    0.00002195
  503      -16.3936718635      -0.0000000081     0.999992    0.00002191
  504      -16.3936718716      -0.0000000081     0.999993    0.00002187
  505      -16.3936718796      -0.0000000080     0.999993    0.00002182
  506      -16.3936718876      -0.0000000080     0.999993    0.00002178
  507      -16.3936718956      -0.0000000080     0.999993    0.00002174
  508      -16.3936719036      -0.0000000079     0.999993    0.00002170
  509      -16.3936719115      -0.0000000079     0.999993    0.00002165
  510      -16.3936719194      -0.0000000079     0.999993    0.00002161
  511      -16.3936719272      -0.0000000078     0.999993    0.00002157
  512      -16.3936719350      -0.0000000078     0.999993    0.00002153
  513      -16.3936719428      -0.0000000078     0.999993    0.00002149
  514      -16.3936719505      -0.0000000077     0.999993    0.00002145
  515      -16.3936719583      -0.0000000077     0.999993    0.00002141
  516      -16.3936719659      -0.0000000077     0.999993    0.00002137
  517      -16.3936719736      -0.0000000077     0.999993    0.00002132
  518      -16.3936719812      -0.0000000076     0.999993    0.00002128
  519      -16.3936719888      -0.0000000076     0.999993    0.00002124
  520      -16.3936719964      -0.0000000076     0.999993    0.00002120
  521      -16.3936720039      -0.0000000075     0.999993    0.00002116
  522      -16.3936720114      -0.0000000075     0.999993    0.00002113
  523      -16.3936720189      -0.0000000075     0.999993    0.00002109
  524      -16.3936720263      -0.0000000074     0.999993    0.00002105
  525      -16.3936720337      -0.0000000074     0.999993    0.00002101
  526      -16.3936720411      -0.0000000074     0.999993    0.00002097
  527      -16.3936720485      -0.0000000074     0.999993    0.00002093
  528      -16.3936720558      -0.0000000073     0.999993    0.00002089
  529      -16.3936720631      -0.0000000073     0.999993    0.00002085
  530      -16.3936720704      -0.0000000073     0.999993    0.00002082
  531      -16.3936720776      -0.0000000072     0.999993    0.00002078
  532      -16.3936720848      -0.0000000072     0.999993    0.00002074
  533      -16.3936720920      -0.0000000072     0.999993    0.00002070
  534      -16.3936720991      -0.0000000072     0.999993    0.00002067
  535      -16.3936721063      -0.0000000071     0.999993    0.00002063
  536      -16.3936721134      -0.0000000071     0.999993    0.00002059
  537      -16.3936721204      -0.0000000071     0.999993    0.00002056
  538      -16.3936721275      -0.0000000070     0.999993    0.00002052
  539      -16.3936721345      -0.0000000070     0.999993    0.00002049
  540      -16.3936721415      -0.0000000070     0.999993    0.00002045
  541      -16.3936721485      -0.0000000070     0.999993    0.00002041
  542      -16.3936721554      -0.0000000069     0.999993    0.00002038
  543      -16.3936721623      -0.0000000069     0.999993    0.00002034
  544      -16.3936721692      -0.0000000069     0.999993    0.00002031
  545      -16.3936721761      -0.0000000069     0.999993    0.00002027
  546      -16.3936721829      -0.0000000068     0.999993    0.00002024
  547      -16.3936721897      -0.0000000068     0.999993    0.00002020
  548      -16.3936721965      -0.0000000068     0.999993    0.00002017
  549      -16.3936722033      -0.0000000068     0.999993    0.00002013
  550      -16.3936722100      -0.0000000067     0.999993    0.00002010
  551      -16.3936722167      -0.0000000067     0.999993    0.00002007
  552      -16.3936722234      -0.0000000067     0.999993    0.00002003
  553      -16.3936722301      -0.0000000067     0.999993    0.00002000
  554      -16.3936722367      -0.0000000066     0.999993    0.00001996
  555      -16.3936722434      -0.0000000066     0.999993    0.00001993
  556      -16.3936722499      -0.0000000066     0.999993    0.00001990
  557      -16.3936722565      -0.0000000066     0.999993    0.00001987
  558      -16.3936722631      -0.0000000065     0.999993    0.00001983
  559      -16.3936722696      -0.0000000065     0.999993    0.00001980
  560      -16.3936722761      -0.0000000065     0.999993    0.00001977
  561      -16.3936722826      -0.0000000065     0.999993    0.00001974
  562      -16.3936722890      -0.0000000065     0.999993    0.00001970
  563      -16.3936722955      -0.0000000064     0.999993    0.00001967
  564      -16.3936723019      -0.0000000064     0.999993    0.00001964
  565      -16.3936723083      -0.0000000064     0.999993    0.00001961
  566      -16.3936723146      -0.0000000064     0.999993    0.00001958
  567      -16.3936723210      -0.0000000063     0.999993    0.00001954
  568      -16.3936723273      -0.0000000063     0.999993    0.00001951
  569      -16.3936723336      -0.0000000063     0.999993    0.00001948
  570      -16.3936723399      -0.0000000063     0.999993    0.00001945
  571      -16.3936723461      -0.0000000063     0.999993    0.00001942
  572      -16.3936723524      -0.0000000062     0.999993    0.00001939
  573      -16.3936723586      -0.0000000062     0.999993    0.00001936
  574      -16.3936723648      -0.0000000062     0.999993    0.00001933
  575      -16.3936723709      -0.0000000062     0.999993    0.00001930
  576      -16.3936723771      -0.0000000062     0.999993    0.00001927
  577      -16.3936723832      -0.0000000061     0.999993    0.00001924
  578      -16.3936723893      -0.0000000061     0.999993    0.00001921
  579      -16.3936723954      -0.0000000061     0.999993    0.00001918
  580      -16.3936724015      -0.0000000061     0.999993    0.00001915
  581      -16.3936724076      -0.0000000061     0.999993    0.00001912
  582      -16.3936724136      -0.0000000060     0.999993    0.00001909
  583      -16.3936724196      -0.0000000060     0.999993    0.00001906
  584      -16.3936724256      -0.0000000060     0.999993    0.00001904
  585      -16.3936724316      -0.0000000060     0.999993    0.00001901
  586      -16.3936724375      -0.0000000060     0.999993    0.00001898
  587      -16.3936724435      -0.0000000059     0.999993    0.00001895
  588      -16.3936724494      -0.0000000059     0.999993    0.00001892
  589      -16.3936724553      -0.0000000059     0.999993    0.00001889
  590      -16.3936724612      -0.0000000059     0.999993    0.00001887
  591      -16.3936724670      -0.0000000059     0.999993    0.00001884
  592      -16.3936724729      -0.0000000058     0.999993    0.00001881
  593      -16.3936724787      -0.0000000058     0.999993    0.00001878
  594      -16.3936724845      -0.0000000058     0.999993    0.00001876
  595      -16.3936724903      -0.0000000058     0.999993    0.00001873
  596      -16.3936724960      -0.0000000058     0.999993    0.00001870
  597      -16.3936725018      -0.0000000058     0.999993    0.00001868
  598      -16.3936725075      -0.0000000057     0.999993    0.00001865
  599      -16.3936725132      -0.0000000057     0.999993    0.00001862
  600      -16.3936725189      -0.0000000057     0.999993    0.00001860
  601      -16.3936725246      -0.0000000057     0.999993    0.00001857
  602      -16.3936725303      -0.0000000057     0.999993    0.00001854
  603      -16.3936725359      -0.0000000056     0.999993    0.00001852
  604      -16.3936725415      -0.0000000056     0.999993    0.00001849
  605      -16.3936725472      -0.0000000056     0.999993    0.00001847
  606      -16.3936725527      -0.0000000056     0.999993    0.00001844
  607      -16.3936725583      -0.0000000056     0.999993    0.00001841
  608      -16.3936725639      -0.0000000056     0.999993    0.00001839
  609      -16.3936725694      -0.0000000055     0.999993    0.00001836
  610      -16.3936725750      -0.0000000055     0.999993    0.00001834
  611      -16.3936725805      -0.0000000055     0.999993    0.00001831
  612      -16.3936725860      -0.0000000055     0.999993    0.00001829
  613      -16.3936725914      -0.0000000055     0.999993    0.00001826
  614      -16.3936725969      -0.0000000055     0.999993    0.00001824
  615      -16.3936726024      -0.0000000054     0.999993    0.00001821
  616      -16.3936726078      -0.0000000054     0.999993    0.00001819
  617      -16.3936726132      -0.0000000054     0.999993    0.00001816
  618      -16.3936726186      -0.0000000054     0.999993    0.00001814
  619      -16.3936726240      -0.0000000054     0.999993    0.00001812
  620      -16.3936726294      -0.0000000054     0.999993    0.00001809
  621      -16.3936726347      -0.0000000054     0.999993    0.00001807
  622      -16.3936726400      -0.0000000053     0.999993    0.00001805
  623      -16.3936726454      -0.0000000053     0.999993    0.00001802
  624      -16.3936726507      -0.0000000053     0.999993    0.00001800
  625      -16.3936726560      -0.0000000053     0.999993    0.00001797
  626      -16.3936726612      -0.0000000053     0.999993    0.00001795
  627      -16.3936726665      -0.0000000053     0.999993    0.00001793
  628      -16.3936726718      -0.0000000052     0.999993    0.00001791
  629      -16.3936726770      -0.0000000052     0.999993    0.00001788
  630      -16.3936726822      -0.0000000052     0.999993    0.00001786
  631      -16.3936726874      -0.0000000052     0.999993    0.00001784
  632      -16.3936726926      -0.0000000052     0.999993    0.00001781
  633      -16.3936726978      -0.0000000052     0.999993    0.00001779
  634      -16.3936727030      -0.0000000052     0.999993    0.00001777
  635      -16.3936727081      -0.0000000051     0.999993    0.00001775
  636      -16.3936727132      -0.0000000051     0.999993    0.00001773
  637      -16.3936727184      -0.0000000051     0.999993    0.00001770
  638      -16.3936727235      -0.0000000051     0.999993    0.00001768
  639      -16.3936727286      -0.0000000051     0.999993    0.00001766
  640      -16.3936727336      -0.0000000051     0.999993    0.00001764
  641      -16.3936727387      -0.0000000051     0.999993    0.00001762
  642      -16.3936727438      -0.0000000051     0.999993    0.00001760
  643      -16.3936727488      -0.0000000050     0.999993    0.00001757
  644      -16.3936727538      -0.0000000050     0.999993    0.00001755
  645      -16.3936727588      -0.0000000050     0.999993    0.00001753
  646      -16.3936727638      -0.0000000050     0.999993    0.00001751
  647      -16.3936727688      -0.0000000050     0.999993    0.00001749
  648      -16.3936727738      -0.0000000050     0.999993    0.00001747
  649      -16.3936727788      -0.0000000050     0.999993    0.00001745
  650      -16.3936727837      -0.0000000049     0.999993    0.00001743
  651      -16.3936727887      -0.0000000049     0.999993    0.00001741
  652      -16.3936727936      -0.0000000049     0.999993    0.00001739
  653      -16.3936727985      -0.0000000049     0.999993    0.00001737
  654      -16.3936728034      -0.0000000049     0.999993    0.00001735
  655      -16.3936728083      -0.0000000049     0.999993    0.00001733
  656      -16.3936728131      -0.0000000049     0.999993    0.00001731
  657      -16.3936728180      -0.0000000049     0.999993    0.00001729
  658      -16.3936728229      -0.0000000049     0.999993    0.00001727
  659      -16.3936728277      -0.0000000048     0.999993    0.00001725
  660      -16.3936728325      -0.0000000048     0.999993    0.00001723
  661      -16.3936728373      -0.0000000048     0.999993    0.00001721
  662      -16.3936728421      -0.0000000048     0.999993    0.00001719
  663      -16.3936728469      -0.0000000048     0.999993    0.00001717
  664      -16.3936728517      -0.0000000048     0.999993    0.00001715
  665      -16.3936728565      -0.0000000048     0.999993    0.00001713
  666      -16.3936728612      -0.0000000048     0.999993    0.00001711
  667      -16.3936728660      -0.0000000047     0.999993    0.00001709
  668      -16.3936728707      -0.0000000047     0.999993    0.00001708
  669      -16.3936728754      -0.0000000047     0.999993    0.00001706
  670      -16.3936728801      -0.0000000047     0.999993    0.00001704
  671      -16.3936728848      -0.0000000047     0.999993    0.00001702
  672      -16.3936728895      -0.0000000047     0.999993    0.00001700
  673      -16.3936728942      -0.0000000047     0.999993    0.00001698
  674      -16.3936728989      -0.0000000047     0.999993    0.00001697
  675      -16.3936729035      -0.0000000047     0.999993    0.00001695
  676      -16.3936729082      -0.0000000046     0.999993    0.00001693
  677      -16.3936729128      -0.0000000046     0.999993    0.00001691
  678      -16.3936729174      -0.0000000046     0.999993    0.00001689
  679      -16.3936729221      -0.0000000046     0.999993    0.00001688
  680      -16.3936729267      -0.0000000046     0.999993    0.00001686
  681      -16.3936729312      -0.0000000046     0.999993    0.00001684
  682      -16.3936729358      -0.0000000046     0.999993    0.00001682
  683      -16.3936729404      -0.0000000046     0.999993    0.00001681
  684      -16.3936729450      -0.0000000046     0.999993    0.00001679
  685      -16.3936729495      -0.0000000046     0.999993    0.00001677
  686      -16.3936729541      -0.0000000045     0.999993    0.00001675
  687      -16.3936729586      -0.0000000045     0.999993    0.00001674
  688      -16.3936729631      -0.0000000045     0.999993    0.00001672
  689      -16.3936729676      -0.0000000045     0.999993    0.00001670
  690      -16.3936729721      -0.0000000045     0.999993    0.00001669
  691      -16.3936729766      -0.0000000045     0.999994    0.00001667
  692      -16.3936729811      -0.0000000045     0.999994    0.00001665
  693      -16.3936729856      -0.0000000045     0.999994    0.00001664
  694      -16.3936729900      -0.0000000045     0.999994    0.00001662
  695      -16.3936729945      -0.0000000045     0.999994    0.00001660
  696      -16.3936729989      -0.0000000044     0.999994    0.00001659
  697      -16.3936730034      -0.0000000044     0.999994    0.00001657
  698      -16.3936730078      -0.0000000044     0.999994    0.00001656
  699      -16.3936730122      -0.0000000044     0.999994    0.00001654
  700      -16.3936730166      -0.0000000044     0.999994    0.00001653
  701      -16.3936730210      -0.0000000044     0.999994    0.00001651
  702      -16.3936730254      -0.0000000044     0.999994    0.00001649
  703      -16.3936730298      -0.0000000044     0.999994    0.00001648
  704      -16.3936730341      -0.0000000044     0.999994    0.00001646
  705      -16.3936730385      -0.0000000044     0.999994    0.00001645
  706      -16.3936730428      -0.0000000044     0.999994    0.00001643
  707      -16.3936730472      -0.0000000043     0.999994    0.00001642
  708      -16.3936730515      -0.0000000043     0.999994    0.00001640
  709      -16.3936730558      -0.0000000043     0.999994    0.00001639
  710      -16.3936730602      -0.0000000043     0.999994    0.00001637
  711      -16.3936730645      -0.0000000043     0.999994    0.00001636
  712      -16.3936730688      -0.0000000043     0.999994    0.00001634
  713      -16.3936730731      -0.0000000043     0.999994    0.00001633
  714      -16.3936730773      -0.0000000043     0.999994    0.00001631
  715      -16.3936730816      -0.0000000043     0.999994    0.00001630
  716      -16.3936730859      -0.0000000043     0.999994    0.00001628
  717      -16.3936730901      -0.0000000043     0.999994    0.00001627
  718      -16.3936730944      -0.0000000042     0.999994    0.00001625
  719      -16.3936730986      -0.0000000042     0.999994    0.00001624
  720      -16.3936731028      -0.0000000042     0.999994    0.00001623
  721      -16.3936731071      -0.0000000042     0.999994    0.00001621
  722      -16.3936731113      -0.0000000042     0.999994    0.00001620
  723      -16.3936731155      -0.0000000042     0.999994    0.00001618
  724      -16.3936731197      -0.0000000042     0.999994    0.00001617
  725      -16.3936731239      -0.0000000042     0.999994    0.00001616
  726      -16.3936731281      -0.0000000042     0.999994    0.00001614
  727      -16.3936731322      -0.0000000042     0.999994    0.00001613
  728      -16.3936731364      -0.0000000042     0.999994    0.00001612
  729      -16.3936731406      -0.0000000042     0.999994    0.00001610
  730      -16.3936731447      -0.0000000042     0.999994    0.00001609
  731      -16.3936731489      -0.0000000041     0.999994    0.00001608
  732      -16.3936731530      -0.0000000041     0.999994    0.00001606
  733      -16.3936731571      -0.0000000041     0.999994    0.00001605
  734      -16.3936731613      -0.0000000041     0.999994    0.00001604
  735      -16.3936731654      -0.0000000041     0.999994    0.00001602
  736      -16.3936731695      -0.0000000041     0.999994    0.00001601
  737      -16.3936731736      -0.0000000041     0.999994    0.00001600
  738      -16.3936731777      -0.0000000041     0.999994    0.00001598
  739      -16.3936731818      -0.0000000041     0.999994    0.00001597
  740      -16.3936731858      -0.0000000041     0.999994    0.00001596
  741      -16.3936731899      -0.0000000041     0.999994    0.00001595
  742      -16.3936731940      -0.0000000041     0.999994    0.00001593
  743      -16.3936731980      -0.0000000041     0.999994    0.00001592
  744      -16.3936732021      -0.0000000041     0.999994    0.00001591
  745      -16.3936732061      -0.0000000040     0.999994    0.00001590
  746      -16.3936732102      -0.0000000040     0.999994    0.00001588
  747      -16.3936732142      -0.0000000040     0.999994    0.00001587
  748      -16.3936732182      -0.0000000040     0.999994    0.00001586
  749      -16.3936732222      -0.0000000040     0.999994    0.00001585
  750      -16.3936732262      -0.0000000040     0.999994    0.00001584
  751      -16.3936732302      -0.0000000040     0.999994    0.00001582
  752      -16.3936732342      -0.0000000040     0.999994    0.00001581
  753      -16.3936732382      -0.0000000040     0.999994    0.00001580
  754      -16.3936732422      -0.0000000040     0.999994    0.00001579
  755      -16.3936732462      -0.0000000040     0.999994    0.00001578
  756      -16.3936732502      -0.0000000040     0.999994    0.00001577
  757      -16.3936732541      -0.0000000040     0.999994    0.00001575
  758      -16.3936732581      -0.0000000040     0.999994    0.00001574
  759      -16.3936732620      -0.0000000040     0.999994    0.00001573
  760      -16.3936732660      -0.0000000039     0.999994    0.00001572
  761      -16.3936732699      -0.0000000039     0.999994    0.00001571
  762      -16.3936732738      -0.0000000039     0.999994    0.00001570
  763      -16.3936732778      -0.0000000039     0.999994    0.00001569
  764      -16.3936732817      -0.0000000039     0.999994    0.00001568
  765      -16.3936732856      -0.0000000039     0.999994    0.00001567
  766      -16.3936732895      -0.0000000039     0.999994    0.00001566
  767      -16.3936732934      -0.0000000039     0.999994    0.00001564
  768      -16.3936732973      -0.0000000039     0.999994    0.00001563
  769      -16.3936733012      -0.0000000039     0.999994    0.00001562
  770      -16.3936733051      -0.0000000039     0.999994    0.00001561
  771      -16.3936733089      -0.0000000039     0.999994    0.00001560
  772      -16.3936733128      -0.0000000039     0.999994    0.00001559
  773      -16.3936733167      -0.0000000039     0.999994    0.00001558
  774      -16.3936733205      -0.0000000039     0.999994    0.00001557
  775      -16.3936733244      -0.0000000039     0.999994    0.00001556
  776      -16.3936733282      -0.0000000038     0.999994    0.00001555
  777      -16.3936733321      -0.0000000038     0.999994    0.00001554
  778      -16.3936733359      -0.0000000038     0.999994    0.00001553
  779      -16.3936733397      -0.0000000038     0.999994    0.00001552
  780      -16.3936733436      -0.0000000038     0.999994    0.00001551
  781      -16.3936733474      -0.0000000038     0.999994    0.00001550
  782      -16.3936733512      -0.0000000038     0.999994    0.00001549
  783      -16.3936733550      -0.0000000038     0.999994    0.00001548
  784      -16.3936733588      -0.0000000038     0.999994    0.00001547
  785      -16.3936733626      -0.0000000038     0.999994    0.00001546
  786      -16.3936733664      -0.0000000038     0.999994    0.00001545
  787      -16.3936733702      -0.0000000038     0.999994    0.00001544
  788      -16.3936733740      -0.0000000038     0.999994    0.00001543
  789      -16.3936733778      -0.0000000038     0.999994    0.00001542
  790      -16.3936733815      -0.0000000038     0.999994    0.00001542
  791      -16.3936733853      -0.0000000038     0.999994    0.00001541
  792      -16.3936733891      -0.0000000038     0.999994    0.00001540
  793      -16.3936733928      -0.0000000038     0.999994    0.00001539
  794      -16.3936733966      -0.0000000038     0.999994    0.00001538
  795      -16.3936734003      -0.0000000037     0.999994    0.00001537
  796      -16.3936734041      -0.0000000037     0.999994    0.00001536
  797      -16.3936734078      -0.0000000037     0.999994    0.00001535
  798      -16.3936734115      -0.0000000037     0.999994    0.00001534
  799      -16.3936734153      -0.0000000037     0.999994    0.00001533
  800      -16.3936734190      -0.0000000037     0.999994    0.00001533
  801      -16.3936734227      -0.0000000037     0.999994    0.00001532
  802      -16.3936734264      -0.0000000037     0.999994    0.00001531
  803      -16.3936734301      -0.0000000037     0.999994    0.00001530
  804      -16.3936734338      -0.0000000037     0.999994    0.00001529
  805      -16.3936734375      -0.0000000037     0.999994    0.00001528
  806      -16.3936734412      -0.0000000037     0.999994    0.00001528
  807      -16.3936734449      -0.0000000037     0.999994    0.00001527
  808      -16.3936734486      -0.0000000037     0.999994    0.00001526
  809      -16.3936734523      -0.0000000037     0.999994    0.00001525
  810      -16.3936734560      -0.0000000037     0.999994    0.00001524
  811      -16.3936734596      -0.0000000037     0.999994    0.00001523
  812      -16.3936734633      -0.0000000037     0.999994    0.00001523
  813      -16.3936734670      -0.0000000037     0.999994    0.00001522
  814      -16.3936734706      -0.0000000037     0.999994    0.00001521
  815      -16.3936734743      -0.0000000037     0.999994    0.00001520
  816      -16.3936734779      -0.0000000037     0.999994    0.00001520
  817      -16.3936734816      -0.0000000036     0.999994    0.00001519
  818      -16.3936734852      -0.0000000036     0.999994    0.00001518
  819      -16.3936734888      -0.0000000036     0.999994    0.00001517
  820      -16.3936734925      -0.0000000036     0.999994    0.00001517
  821      -16.3936734961      -0.0000000036     0.999994    0.00001516
  822      -16.3936734997      -0.0000000036     0.999994    0.00001515
  823      -16.3936735033      -0.0000000036     0.999994    0.00001514
  824      -16.3936735070      -0.0000000036     0.999994    0.00001514
  825      -16.3936735106      -0.0000000036     0.999994    0.00001513
  826      -16.3936735142      -0.0000000036     0.999994    0.00001512
  827      -16.3936735178      -0.0000000036     0.999994    0.00001511
  828      -16.3936735214      -0.0000000036     0.999994    0.00001511
  829      -16.3936735250      -0.0000000036     0.999994    0.00001510
  830      -16.3936735286      -0.0000000036     0.999994    0.00001509
  831      -16.3936735322      -0.0000000036     0.999994    0.00001509
  832      -16.3936735358      -0.0000000036     0.999994    0.00001508
  833      -16.3936735393      -0.0000000036     0.999994    0.00001507
  834      -16.3936735429      -0.0000000036     0.999994    0.00001507
  835      -16.3936735465      -0.0000000036     0.999994    0.00001506
  836      -16.3936735501      -0.0000000036     0.999994    0.00001505
  837      -16.3936735536      -0.0000000036     0.999994    0.00001505
  838      -16.3936735572      -0.0000000036     0.999994    0.00001504
  839      -16.3936735608      -0.0000000036     0.999994    0.00001503
  840      -16.3936735643      -0.0000000036     0.999994    0.00001503
  841      -16.3936735679      -0.0000000036     0.999994    0.00001502
  842      -16.3936735714      -0.0000000035     0.999994    0.00001502
  843      -16.3936735750      -0.0000000035     0.999994    0.00001501
  844      -16.3936735785      -0.0000000035     0.999994    0.00001500
  845      -16.3936735820      -0.0000000035     0.999994    0.00001500
  846      -16.3936735856      -0.0000000035     0.999994    0.00001499
  847      -16.3936735891      -0.0000000035     0.999994    0.00001499
  848      -16.3936735926      -0.0000000035     0.999994    0.00001498
  849      -16.3936735962      -0.0000000035     0.999994    0.00001497
  850      -16.3936735997      -0.0000000035     0.999994    0.00001497
  851      -16.3936736032      -0.0000000035     0.999994    0.00001496
  852      -16.3936736067      -0.0000000035     0.999994    0.00001496
  853      -16.3936736102      -0.0000000035     0.999994    0.00001495
  854      -16.3936736137      -0.0000000035     0.999994    0.00001494
  855      -16.3936736172      -0.0000000035     0.999994    0.00001494
  856      -16.3936736207      -0.0000000035     0.999994    0.00001493
  857      -16.3936736242      -0.0000000035     0.999994    0.00001493
  858      -16.3936736277      -0.0000000035     0.999994    0.00001492
  859      -16.3936736312      -0.0000000035     0.999994    0.00001492
  860      -16.3936736347      -0.0000000035     0.999994    0.00001491
  861      -16.3936736382      -0.0000000035     0.999994    0.00001491
  862      -16.3936736417      -0.0000000035     0.999994    0.00001490
  863      -16.3936736452      -0.0000000035     0.999994    0.00001490
  864      -16.3936736487      -0.0000000035     0.999994    0.00001489
  865      -16.3936736521      -0.0000000035     0.999994    0.00001489
  866      -16.3936736556      -0.0000000035     0.999994    0.00001488
  867      -16.3936736591      -0.0000000035     0.999994    0.00001488
  868      -16.3936736626      -0.0000000035     0.999994    0.00001487
  869      -16.3936736660      -0.0000000035     0.999994    0.00001487
  870      -16.3936736695      -0.0000000035     0.999994    0.00001486
  871      -16.3936736729      -0.0000000035     0.999994    0.00001486
  872      -16.3936736764      -0.0000000035     0.999994    0.00001485
  873      -16.3936736798      -0.0000000035     0.999994    0.00001485
  874      -16.3936736833      -0.0000000035     0.999994    0.00001484
  875      -16.3936736867      -0.0000000034     0.999994    0.00001484
  876      -16.3936736902      -0.0000000034     0.999994    0.00001483
  877      -16.3936736936      -0.0000000034     0.999994    0.00001483
  878      -16.3936736971      -0.0000000034     0.999994    0.00001483
  879      -16.3936737005      -0.0000000034     0.999994    0.00001482
  880      -16.3936737040      -0.0000000034     0.999994    0.00001482
  881      -16.3936737074      -0.0000000034     0.999994    0.00001481
  882      -16.3936737108      -0.0000000034     0.999994    0.00001481
  883      -16.3936737142      -0.0000000034     0.999994    0.00001481
  884      -16.3936737177      -0.0000000034     0.999994    0.00001480
  885      -16.3936737211      -0.0000000034     0.999994    0.00001480
  886      -16.3936737245      -0.0000000034     0.999994    0.00001479
  887      -16.3936737279      -0.0000000034     0.999994    0.00001479
  888      -16.3936737314      -0.0000000034     0.999994    0.00001479
  889      -16.3936737348      -0.0000000034     0.999994    0.00001478
  890      -16.3936737382      -0.0000000034     0.999994    0.00001478
  891      -16.3936737416      -0.0000000034     0.999994    0.00001477
  892      -16.3936737450      -0.0000000034     0.999994    0.00001477
  893      -16.3936737484      -0.0000000034     0.999994    0.00001477
  894      -16.3936737518      -0.0000000034     0.999994    0.00001476
  895      -16.3936737552      -0.0000000034     0.999994    0.00001476
  896      -16.3936737586      -0.0000000034     0.999994    0.00001476
  897      -16.3936737620      -0.0000000034     0.999994    0.00001475
  898      -16.3936737654      -0.0000000034     0.999994    0.00001475
  899      -16.3936737688      -0.0000000034     0.999994    0.00001475
  900      -16.3936737722      -0.0000000034     0.999994    0.00001474
  901      -16.3936737756      -0.0000000034     0.999994    0.00001474
  902      -16.3936737790      -0.0000000034     0.999994    0.00001474
  903      -16.3936737824      -0.0000000034     0.999994    0.00001473
  904      -16.3936737857      -0.0000000034     0.999994    0.00001473
  905      -16.3936737891      -0.0000000034     0.999994    0.00001473
  906      -16.3936737925      -0.0000000034     0.999994    0.00001472
  907      -16.3936737959      -0.0000000034     0.999994    0.00001472
  908      -16.3936737993      -0.0000000034     0.999994    0.00001472
  909      -16.3936738026      -0.0000000034     0.999994    0.00001472
  910      -16.3936738060      -0.0000000034     0.999994    0.00001471
  911      -16.3936738094      -0.0000000034     0.999994    0.00001471
  912      -16.3936738127      -0.0000000034     0.999994    0.00001471
  913      -16.3936738161      -0.0000000034     0.999994    0.00001470
  914      -16.3936738195      -0.0000000034     0.999994    0.00001470
  915      -16.3936738228      -0.0000000034     0.999994    0.00001470
  916      -16.3936738262      -0.0000000034     0.999994    0.00001470
  917      -16.3936738296      -0.0000000034     0.999994    0.00001469
  918      -16.3936738329      -0.0000000034     0.999994    0.00001469
  919      -16.3936738363      -0.0000000034     0.999994    0.00001469
  920      -16.3936738396      -0.0000000034     0.999994    0.00001469
  921      -16.3936738430      -0.0000000034     0.999994    0.00001469
  922      -16.3936738463      -0.0000000034     0.999994    0.00001468
  923      -16.3936738497      -0.0000000034     0.999994    0.00001468
  924      -16.3936738530      -0.0000000033     0.999994    0.00001468
  925      -16.3936738564      -0.0000000033     0.999994    0.00001468
  926      -16.3936738597      -0.0000000033     0.999994    0.00001467
  927      -16.3936738631      -0.0000000033     0.999994    0.00001467
  928      -16.3936738664      -0.0000000033     0.999994    0.00001467
  929      -16.3936738698      -0.0000000033     0.999994    0.00001467
  930      -16.3936738731      -0.0000000033     0.999994    0.00001467
  931      -16.3936738764      -0.0000000033     0.999994    0.00001466
  932      -16.3936738798      -0.0000000033     0.999994    0.00001466
  933      -16.3936738831      -0.0000000033     0.999994    0.00001466
  934      -16.3936738865      -0.0000000033     0.999994    0.00001466
  935      -16.3936738898      -0.0000000033     0.999994    0.00001466
  936      -16.3936738931      -0.0000000033     0.999994    0.00001466
  937      -16.3936738965      -0.0000000033     0.999994    0.00001465
  938      -16.3936738998      -0.0000000033     0.999994    0.00001465
  939      -16.3936739031      -0.0000000033     0.999994    0.00001465
  940      -16.3936739065      -0.0000000033     0.999994    0.00001465
  941      -16.3936739098      -0.0000000033     0.999994    0.00001465
  942      -16.3936739131      -0.0000000033     0.999994    0.00001465
  943      -16.3936739164      -0.0000000033     0.999994    0.00001465
  944      -16.3936739198      -0.0000000033     0.999995    0.00001465
  945      -16.3936739231      -0.0000000033     0.999995    0.00001464
  946      -16.3936739264      -0.0000000033     0.999995    0.00001464
  947      -16.3936739297      -0.0000000033     0.999995    0.00001464
  948      -16.3936739331      -0.0000000033     0.999995    0.00001464
  949      -16.3936739364      -0.0000000033     0.999995    0.00001464
  950      -16.3936739397      -0.0000000033     0.999995    0.00001464
  951      -16.3936739430      -0.0000000033     0.999995    0.00001464
  952      -16.3936739463      -0.0000000033     0.999995    0.00001464
  953      -16.3936739496      -0.0000000033     0.999995    0.00001464
  954      -16.3936739530      -0.0000000033     0.999995    0.00001464
  955      -16.3936739563      -0.0000000033     0.999995    0.00001463
  956      -16.3936739596      -0.0000000033     0.999995    0.00001463
  957      -16.3936739629      -0.0000000033     0.999995    0.00001463
  958      -16.3936739662      -0.0000000033     0.999995    0.00001463
  959      -16.3936739695      -0.0000000033     0.999995    0.00001463
  960      -16.3936739728      -0.0000000033     0.999995    0.00001463
  961      -16.3936739762      -0.0000000033     0.999995    0.00001463
  962      -16.3936739795      -0.0000000033     0.999995    0.00001463
  963      -16.3936739828      -0.0000000033     0.999995    0.00001463
  964      -16.3936739861      -0.0000000033     0.999995    0.00001463
  965      -16.3936739894      -0.0000000033     0.999995    0.00001463
  966      -16.3936739927      -0.0000000033     0.999995    0.00001463
  967      -16.3936739960      -0.0000000033     0.999995    0.00001463
  968      -16.3936739993      -0.0000000033     0.999995    0.00001463
  969      -16.3936740026      -0.0000000033     0.999995    0.00001463
  970      -16.3936740059      -0.0000000033     0.999995    0.00001463
  971      -16.3936740092      -0.0000000033     0.999995    0.00001463
  972      -16.3936740125      -0.0000000033     0.999995    0.00001463
  973      -16.3936740158      -0.0000000033     0.999995    0.00001463
  974      -16.3936740191      -0.0000000033     0.999995    0.00001463
  975      -16.3936740224      -0.0000000033     0.999995    0.00001463
  976      -16.3936740257      -0.0000000033     0.999995    0.00001463
  977      -16.3936740290      -0.0000000033     0.999995    0.00001463
  978      -16.3936740324      -0.0000000033     0.999995    0.00001463
  979      -16.3936740357      -0.0000000033     0.999995    0.00001463
  980      -16.3936740390      -0.0000000033     0.999995    0.00001463
  981      -16.3936740423      -0.0000000033     0.999995    0.00001463
  982      -16.3936740456      -0.0000000033     0.999995    0.00001463
  983      -16.3936740489      -0.0000000033     0.999995    0.00001463
  984      -16.3936740522      -0.0000000033     0.999995    0.00001463
  985      -16.3936740555      -0.0000000033     0.999995    0.00001463
  986      -16.3936740588      -0.0000000033     0.999995    0.00001463
  987      -16.3936740621      -0.0000000033     0.999995    0.00001463
  988      -16.3936740654      -0.0000000033     0.999995    0.00001464
  989      -16.3936740687      -0.0000000033     0.999995    0.00001464
  990      -16.3936740720      -0.0000000033     0.999995    0.00001464
  991      -16.3936740753      -0.0000000033     0.999995    0.00001464
  992      -16.3936740786      -0.0000000033     0.999995    0.00001464
  993      -16.3936740819      -0.0000000033     0.999995    0.00001464
  994      -16.3936740852      -0.0000000033     0.999995    0.00001464
  995      -16.3936740885      -0.0000000033     0.999995    0.00001464
  996      -16.3936740918      -0.0000000033     0.999995    0.00001464
  997      -16.3936740951      -0.0000000033     0.999995    0.00001464
  998      -16.3936740984      -0.0000000033     0.999995    0.00001464
  999      -16.3936741017      -0.0000000033     0.999995    0.00001465
 1000      -16.3936741050      -0.0000000033     0.999995    0.00001465

Total Energy:                      -16.3936741050 H         -446.0946 eV
Extrapolated to 0:                 -16.3656117089 H         -445.3310 eV

----------------------------------------------------------------------------------
 Solving CP-REKS equation for  1 state vector...
----------------------------------------------------------------------------------
  CG solver: Constructing Y initial guess
  CG solver: Iteration    1    eps =    0.041692720186
  CG solver: Iteration    2    eps =    0.048817802469
  CG solver: Iteration    3    eps =    0.102932364787
  CG solver: Iteration    4    eps =    0.581512673622
  CG solver: Iteration    5    eps =    0.724851581755
  CG solver: Iteration    6    eps =    5.645743083718
  CG solver: Iteration    7    eps = 6869.392929333709
  CG solver: Iteration    8    eps =    4.763568444874
  CG solver: Iteration    9    eps =    0.577941481438
  CG solver: Iteration   10    eps =    0.074700837460
  CG solver: Iteration   11    eps =    0.025211296063
  CG solver: Iteration   12    eps =    0.003807903922
  CG solver: Iteration   13    eps =    0.000736769083
  CG solver: Iteration   14    eps =    0.000071340187
  CG solver: Iteration   15    eps =    0.000007393275
  CG solver: Iteration   16    eps =    0.000000909995
  CG solver: Iteration   17    eps =    0.000000054083
  CG solver: Iteration   18    eps =    0.000000002627
  Convergence reached in CG solver after   18 iterations
  CG solver: Calculating converged R, Z, Q2 matrix
----------------------------------------------------------------------------------

----------------------------------------------------------------------------------
 Solving CP-REKS equation for SI between  1 and  2 state vectors...
----------------------------------------------------------------------------------
  CG solver: Constructing Y initial guess
  CG solver: Iteration    1    eps =    0.047349374996
  CG solver: Iteration    2    eps =    0.005188283426
  CG solver: Iteration    3    eps =    0.029870697422
  CG solver: Iteration    4    eps =    0.134897918873
  CG solver: Iteration    5    eps =    0.469964172143
  CG solver: Iteration    6    eps =   18.524011302023
  CG solver: Iteration    7    eps =   30.734107669841
  CG solver: Iteration    8    eps =    1.298856643479
  CG solver: Iteration    9    eps =    0.160507473835
  CG solver: Iteration   10    eps =    0.049859147862
  CG solver: Iteration   11    eps =    0.003096573323
  CG solver: Iteration   12    eps =    0.000158198139
  CG solver: Iteration   13    eps =    0.000019129676
  CG solver: Iteration   14    eps =    0.000002190379
  CG solver: Iteration   15    eps =    0.000000204414
  CG solver: Iteration   16    eps =    0.000000014158
  CG solver: Iteration   17    eps =    0.000000001239
  Convergence reached in CG solver after   17 iterations
  CG solver: Calculating converged R, Z, Q2 matrix
----------------------------------------------------------------------------------

--------------------------------------------------
 Gradient Information
--------------------------------------------------
           1 st state (SSR)
     0.00000000     0.00000000     0.00000000
     0.00000000     0.00000000     0.00000000
     0.00000000     0.00000000     0.00000000
     0.00000000     0.00000000     0.00000000
     0.00000000     0.00000000     0.00000000
     0.00000000     0.00000000     0.00000000
     0.00000000     0.00000000     0.00000000
     0.00000000     0.00000000     0.00000000
     0.00000000     0.00000000     0.00000000
     0.00000000     0.00000000     0.00000000
     0.00000000     0.00000000     0.00000000
     0.00000000     0.00000000     0.00000000
     0.00000000     0.00000000     0.00000000
     0.00000000     0.00000000     0.00000000

           2 st state (SSR)
     0.00000000     0.00000000     0.00000000
     0.00000000     0.00000000     0.00000000
     0.00000000     0.00000000     0.00000000
     0.00000000     0.00000000     0.00000000
     0.00000000     0.00000000     0.00000000
     0.00000000     0.00000000     0.00000000
     0.00000000     0.00000000     0.00000000
     0.00000000     0.00000000     0.00000000
     0.00000000     0.00000000     0.00000000
     0.00000000     0.00000000     0.00000000
     0.00000000     0.00000000     0.00000000
     0.00000000     0.00000000     0.00000000
     0.00000000     0.00000000     0.00000000
     0.00000000     0.00000000     0.00000000
--------------------------------------------------
 Coupling Information
--------------------------------------------------
 between  1 and  2 states
--------------------------------------------------
 g vector - difference gradient
    26.17427341    14.33883099     3.89403059
   -29.94719678   -11.11520502   -19.02304015
     0.90493994    -8.88963331    -3.04283869
     1.10092956     3.00309331     1.51278241
    14.08242337     4.55384599    -2.08846380
   -45.61499620     3.00728809    17.61362827
    24.51530752    -9.52513065     1.47670242
     5.33030786     2.13881852    -6.64298883
     0.03688352    -1.09843976     3.75937154
     2.65848010     3.09499647     2.60257593
    -0.41379060    -0.03335761     1.13172697
    -0.01157437    -0.00679671    -0.90875133
     0.33179537     1.01265030     0.83005750
     0.85221729    -0.48096060    -1.11479284

 h vector - derivative coupling
    15.26262650     8.44711149     2.28358069
   -17.45232532    -6.52740866   -11.04308283
     0.54714951    -5.20638416    -1.78969107
     0.59544443     1.64006387     0.87109353
     8.19828233     2.67279847    -1.21295416
   -26.49341093     1.90794236    10.13396409
    14.09320756    -5.71838193     0.79375004
     3.15464328     1.21825346    -3.83873988
     0.03633063    -0.65287379     2.29448341
     1.84225816     1.95999229     1.60875799
    -0.23457906    -0.00579836     0.61554521
    -0.22620725    -0.02956315    -0.57498951
     0.18528697     0.56220581     0.53630206
     0.49129316    -0.26795769    -0.67801956

 G vector - GDV
     0.00000000     0.00000000     0.00000000
     0.00000000     0.00000000     0.00000000
     0.00000000     0.00000000     0.00000000
     0.00000000     0.00000000     0.00000000
     0.00000000     0.00000000     0.00000000
     0.00000000     0.00000000     0.00000000
     0.00000000     0.00000000     0.00000000
     0.00000000     0.00000000     0.00000000
     0.00000000     0.00000000     0.00000000
     0.00000000     0.00000000     0.00000000
     0.00000000     0.00000000     0.00000000
     0.00000000     0.00000000     0.00000000
     0.00000000     0.00000000     0.00000000
     0.00000000     0.00000000     0.00000000

 H vector - DCV - non-adiabatic coupling
     0.00000000     0.00000000     0.00000000
     0.00000000     0.00000000     0.00000000
     0.00000000     0.00000000     0.00000000
     0.00000000     0.00000000     0.00000000
     0.00000000     0.00000000     0.00000000
     0.00000000     0.00000000     0.00000000
     0.00000000     0.00000000     0.00000000
     0.00000000     0.00000000     0.00000000
     0.00000000     0.00000000     0.00000000
     0.00000000     0.00000000     0.00000000
     0.00000000     0.00000000     0.00000000
     0.00000000     0.00000000     0.00000000
     0.00000000     0.00000000     0.00000000
     0.00000000     0.00000000     0.00000000
--------------------------------------------------

WARNING!
-> SCC is NOT converged, maximal SCC iterations exceeded

--------------------------------------------------------------------------------
DFTB+ running times                          cpu [s]             wall clock [s]
--------------------------------------------------------------------------------
SCC                                    +     1.38  ( 76.4%)      1.38  ( 76.2%)
      Sparse to dense                        0.07  (  3.9%)      0.07  (  3.9%)
      Dense to sparse                        0.24  ( 13.4%)      0.24  ( 13.2%)
      Range separated Hamiltonian            0.12  (  6.9%)      0.13  (  7.0%)
  Density matrix creation                    0.15  (  8.3%)      0.15  (  8.1%)
  Force calculation                          0.42  ( 23.5%)      0.43  ( 23.4%)
--------------------------------------------------------------------------------
Missing                                +     0.43  ( 23.6%)      0.43  ( 23.8%)
Total                                  =     1.81  (100.0%)      1.82  (100.0%)
--------------------------------------------------------------------------------
