|===============================================================================
|
|  DFTB+ release 20.1
|
|  Copyright (C) 2006 - 2020  DFTB+ developers group
|
|===============================================================================
|
|  When publishing results obtained with DFTB+, please cite the following
|  reference:
|
|  * DFTB+, a software package for efficient approximate density functional
|    theory based atomistic simulations, J. Chem. Phys. 152, 124101 (2020).
|    [doi: 10.1063/1.5143190]
|
|  You should also cite additional publications crediting the parametrization
|  data you use. Please consult the documentation of the SK-files for the
|  references.
|
|===============================================================================

Reading input file 'dftb_in.hsd'
Parser version: 8

--------------------------------------------------------------------------------
Reading SK-files:
Done.


Processed input in HSD format written to 'dftb_pin.hsd'

Starting initialization...
--------------------------------------------------------------------------------
OpenMP threads:              1
Chosen random seed:          511717324
Mode:                        Static calculation
Self consistent charges:     Yes
SCC-tolerance:                 0.100000E-05
Max. scc iterations:                   1000
Shell resolved Hubbard:      No
Spin polarisation:           No
Nr. of up electrons:             6.000000
Nr. of down electrons:           6.000000
Periodic boundaries:         No
Electronic solver:           Relatively robust
Maximal SCC-cycles:                    1000
Initial charges:             Set automatically (system chrg:   0.100E+01)
Included shells:             C:  s, p
                             N:  s, p
                             H:  s
Spin coupling constants:     C   1(s)-1(s):  -0.455900E-01
                             C   1(s)-2(p):  -0.293000E-01
                             C   2(p)-1(s):  -0.293000E-01
                             C   2(p)-2(p):  -0.275500E-01
                             N   1(s)-1(s):  -0.468700E-01
                             N   1(s)-2(p):  -0.317000E-01
                             N   2(p)-1(s):  -0.317000E-01
                             N   2(p)-2(p):  -0.307200E-01
                             H   1(s)-1(s):  -0.792500E-01
Range separated hybrid:      Yes
  Screening parameter omega:   0.300000E+00
  Range separated algorithm:   MatrixBased
Extra options:
                             Mulliken analysis
                             Force calculation
Force type                   original
                             Eigenvector printing


REKS Calcuation:             Yes
SSR(2,2) Calcuation:         Yes
Energy Functional:           (PPS+OSS)/2
Number of Core Orbitals:                  5
Number of Active Orbitals:                2
Number of Basis:                         12
Number of States:                         2
State-Averaging Weight:          0.500000
                                 0.500000
State of Interest:                        1
Initial Guess:               Diagonalize H0 matrix
Newton-Raphson for FON opt:  Yes
NR max. Iterations:                      50
Level Shifting:              Yes
Shift Value:                     0.300000
W Scale Factor:              C  =    3.000000
                             N  =    3.000000
                             H  =    3.000000
Transition Dipole:           No
Gradient of Microstate:      No
CP-REKS Solver:              Preconditioned Conjugate-Gradient
CG max. Iterations:                     100
CG Tolerance:                  0.100000E-07
Memory for A and Hxc:        Direct Updating Without Saving
Non-Adiabatic Coupling:      Yes

--------------------------------------------------------------------------------

***  Geometry step: 0

  iSCC       reks energy        Diff energy         x_a       SCC error   
    1       -6.2611502093       0.0000000000     0.999429    1.18784069
    2       -6.2739814291      -0.0128312198     0.999763    0.09854125
    3       -6.2781954048      -0.0042139757     0.999869    0.04346911
    4       -6.2804109373      -0.0022155325     0.999915    0.02165292
    5       -6.2817374118      -0.0013264745     0.999937    0.01125250
    6       -6.2825688640      -0.0008314522     0.999949    0.00801345
    7       -6.2830943017      -0.0005254377     0.999956    0.00703936
    8       -6.2834240299      -0.0003297282     0.999960    0.00592470
    9       -6.2836287996      -0.0002047697     0.999963    0.00484635
   10       -6.2837548498      -0.0001260502     0.999964    0.00388652
   11       -6.2838320058      -0.0000771560     0.999965    0.00307349
   12       -6.2838791210      -0.0000471152     0.999966    0.00240666
   13       -6.2839079028      -0.0000287818     0.999966    0.00187163
   14       -6.2839255286      -0.0000176258     0.999967    0.00144885
   15       -6.2839363648      -0.0000108361     0.999967    0.00112865
   16       -6.2839430583      -0.0000066936     0.999967    0.00088963
   17       -6.2839472141      -0.0000041558     0.999967    0.00073370
   18       -6.2839498076      -0.0000025934     0.999967    0.00060335
   19       -6.2839514339      -0.0000016263     0.999967    0.00049486
   20       -6.2839524583      -0.0000010244     0.999967    0.00040492
   21       -6.2839531062      -0.0000006479     0.999967    0.00033064
   22       -6.2839535174      -0.0000004112     0.999967    0.00026948
   23       -6.2839537791      -0.0000002617     0.999967    0.00022025
   24       -6.2839539461      -0.0000001670     0.999967    0.00018063
   25       -6.2839540529      -0.0000001068     0.999967    0.00014773
   26       -6.2839541213      -0.0000000684     0.999967    0.00012055
   27       -6.2839541652      -0.0000000439     0.999967    0.00009817
   28       -6.2839541934      -0.0000000282     0.999967    0.00007982
   29       -6.2839542115      -0.0000000181     0.999967    0.00006480
   30       -6.2839542232      -0.0000000117     0.999967    0.00005253
   31       -6.2839542307      -0.0000000075     0.999967    0.00004255
   32       -6.2839542355      -0.0000000048     0.999967    0.00003442
   33       -6.2839542387      -0.0000000031     0.999967    0.00002783
   34       -6.2839542407      -0.0000000020     0.999967    0.00002248
   35       -6.2839542420      -0.0000000013     0.999967    0.00001815
   36       -6.2839542428      -0.0000000008     0.999967    0.00001464
   37       -6.2839542433      -0.0000000005     0.999967    0.00001181
   38       -6.2839542437      -0.0000000003     0.999967    0.00000952
   39       -6.2839542439      -0.0000000002     0.999967    0.00000767
   40       -6.2839542441      -0.0000000001     0.999967    0.00000618
   41       -6.2839542441      -0.0000000001     0.999967    0.00000497
   42       -6.2839542442      -0.0000000001     0.999967    0.00000400
   43       -6.2839542442      -0.0000000000     0.999967    0.00000322
   44       -6.2839542443      -0.0000000000     0.999967    0.00000259
   45       -6.2839542443      -0.0000000000     0.999967    0.00000209
   46       -6.2839542443      -0.0000000000     0.999967    0.00000168
   47       -6.2839542443      -0.0000000000     0.999967    0.00000135
   48       -6.2839542443      -0.0000000000     0.999967    0.00000109
   49       -6.2839542443      -0.0000000000     0.999967    0.00000087
  
--------------------------------------------------
 Final SA-REKS(2,2) energy:      -6.28395424
  
 State     Energy      FON(1)    FON(2)   Spin
  PPS   -6.41285354   1.999933  0.000067  0.00
  OSS   -6.15505495   1.000000  1.000000  0.00
 Trip   -6.23407357   1.000000  1.000000  1.00
--------------------------------------------------

 Lagrangian Wab:  -0.00372693 -0.00372680

--------------------------------------------------
 SSR: 2SI-2SA-REKS(2,2) Hamiltonian matrix
               PPS           OSS
   PPS    -6.41285354   -0.00524018
   OSS    -0.00524018   -6.15505495
--------------------------------------------------

----------------------------------------------------------------
 SSR: 2SI-2SA-REKS(2,2) states
                    E_n       C_{PPS}    C_{OSS}
 SSR state  1   -6.41296001  -0.999794  -0.020314
 SSR state  2   -6.15494848   0.020314  -0.999794
----------------------------------------------------------------

 unrelaxed SSR FONs for S0:  1.999521  0.000479

Total Energy:                       -6.4129600107 H         -174.5055 eV
Extrapolated to 0:                  -6.4129600107 H         -174.5055 eV

----------------------------------------------------------------------------------
 Solving CP-REKS equation for  1 state vector...
----------------------------------------------------------------------------------
  CG solver: Constructing Y initial guess
  CG solver: Iteration    1    eps =    0.000061159862
  CG solver: Iteration    2    eps =    0.000018453212
  CG solver: Iteration    3    eps =    0.000000654638
  CG solver: Iteration    4    eps =    0.000000211768
  CG solver: Iteration    5    eps =    0.000000013221
  CG solver: Iteration    6    eps =    0.000000000749
  Convergence reached in CG solver after    6 iterations
  CG solver: Calculating converged R, Z, Q2 matrix
----------------------------------------------------------------------------------

----------------------------------------------------------------------------------
 Solving CP-REKS equation for SI between  1 and  2 state vectors...
----------------------------------------------------------------------------------
  CG solver: Constructing Y initial guess
  CG solver: Iteration    1    eps =    0.001043276821
  CG solver: Iteration    2    eps =    0.000898954900
  CG solver: Iteration    3    eps =    0.000221528793
  CG solver: Iteration    4    eps =    0.000002953094
  CG solver: Iteration    5    eps =    0.000000416010
  CG solver: Iteration    6    eps =    0.000000008202
  Convergence reached in CG solver after    6 iterations
  CG solver: Calculating converged R, Z, Q2 matrix
----------------------------------------------------------------------------------

--------------------------------------------------
 Gradient Information
--------------------------------------------------
           1 st state (SSR)
     0.00396723    -0.01171737     0.01526859
    -0.01606974    -0.00083272    -0.01892934
     0.00882165     0.00201136     0.00917821
     0.01452637     0.00244833     0.00043716
    -0.00277038     0.00590449    -0.00186918
    -0.00847512     0.00218591    -0.00408543

           2 st state (SSR)
    -0.00541519    -0.00112482     0.12280496
     0.01239824     0.00912469    -0.14279985
    -0.00834998    -0.01581714     0.02338690
    -0.01087314     0.00770741    -0.00712924
     0.00238698    -0.00559648    -0.01085310
     0.00985309     0.00570633     0.01459033
--------------------------------------------------
 Coupling Information
--------------------------------------------------
 between  1 and  2 states
--------------------------------------------------
 g vector - difference gradient
     0.00465760    -0.00513528    -0.05400688
    -0.01441223    -0.00519262     0.06213052
     0.00897246     0.00882061    -0.00712673
     0.01311863    -0.00256590     0.00376671
    -0.00288849     0.00582698     0.00455536
    -0.00944797    -0.00175379    -0.00931898

 h vector - derivative coupling
     0.00092202    -0.00406776     0.00477906
     0.00409511     0.00516076    -0.00354477
    -0.00933637     0.00248458     0.00040622
    -0.01004552    -0.00161905     0.00048257
     0.00756828    -0.00176488    -0.00146830
     0.00679648    -0.00019366    -0.00065478

 G vector - GDV
     0.00469121    -0.00529627    -0.05376819
    -0.01423399    -0.00497870     0.06193525
     0.00858581     0.00891425    -0.00710435
     0.01269975    -0.00262954     0.00378320
    -0.00257868     0.00575049     0.00449196
    -0.00916410    -0.00176021    -0.00933788

 H vector - DCV - non-adiabatic coupling
     0.00283733    -0.01494433     0.02700989
     0.01812768     0.02080305    -0.02350892
    -0.03756857     0.00823311     0.00269513
    -0.04096757    -0.00586597     0.00127579
     0.02976365    -0.00775202    -0.00640331
     0.02780747    -0.00047384    -0.00106858
--------------------------------------------------


--------------------------------------------------------------------------------
DFTB+ running times                          cpu [s]             wall clock [s]
--------------------------------------------------------------------------------
SCC                                    +     0.02  ( 65.8%)      0.02  ( 63.2%)
Post-SCC processing                    +     0.01  ( 30.4%)      0.01  ( 26.3%)
--------------------------------------------------------------------------------
Missing                                +     0.00  (  3.7%)      0.00  ( 10.5%)
Total                                  =     0.03  (100.0%)      0.04  (100.0%)
--------------------------------------------------------------------------------
