     6
  Step:   600            Position(A)                                  Velocity(au)
C        -0.06341387    -0.16445513     0.05865290    -0.00048410    -0.00042489    -0.00027076
N        -0.07764222     0.15215397     1.35380266     0.00025074     0.00063934    -0.00012208
H         1.06605909     0.23155186    -0.49894584     0.00283944     0.00385566    -0.00082885
H         0.71280469    -0.57644659     1.24780587     0.00004127    -0.00401580    -0.00137805
H        -0.75348454    -0.46050512     1.76883025    -0.00341067    -0.00361541     0.00518221
H        -0.40324509    -0.01900188    -1.13757834     0.00281419    -0.00004593     0.00194765
