    14
  Step:     0            Position(A)                                  Velocity(au)
C        -5.99186608    -0.65228589    -0.08386315    -0.00021551    -0.00012148     0.00032584
C        -4.72231126    -0.83438001     0.12881220     0.00009732    -0.00032434     0.00005696
H        -6.41845292     0.32610513    -0.29778978     0.00016020     0.00084069    -0.00129202
H        -6.71508797    -1.41875224     0.04929470    -0.00076159    -0.00013809    -0.00085011
H        -4.23705997    -1.79421735     0.44504208     0.00057621    -0.00063285    -0.00015158
C        -3.88491881     0.34927717    -0.10127685     0.00000658     0.00026577    -0.00025868
C        -2.51315302     0.51034730     0.18250763    -0.00004469     0.00007107     0.00005244
H        -4.40817938     1.28946897    -0.37378000    -0.00011342     0.00100822    -0.00086253
H        -1.90830790    -0.41967107     0.42152692     0.00031530     0.00089745     0.00025884
C        -1.85862370     1.68277645    -0.00722841     0.00032310     0.00000671     0.00007835
H        -2.31886976     2.63593306    -0.37069154    -0.00056966     0.00027859     0.00016540
N        -0.56044554     1.84221689     0.20394001    -0.00009451     0.00000532     0.00000055
H        -0.02287446     2.75899623     0.11980640     0.00074879    -0.00039981     0.00034350
H        -0.09838235     1.08272671     0.76891275    -0.00102998    -0.00070944    -0.00065660
    14
  Step:     1            Position(A)                                  Velocity(au)
C        -5.99485079    -0.65355239    -0.08035013    -0.00032817    -0.00010848     0.00031558
C        -4.72046744    -0.83782912     0.12948690     0.00023659    -0.00030494     0.00006566
H        -6.41650033     0.33540317    -0.31213980     0.00020924     0.00082240    -0.00131769
H        -6.72424591    -1.42130842     0.03998778    -0.00090126    -0.00031663    -0.00084968
H        -4.23144106    -1.80023099     0.44305406     0.00044668    -0.00045716    -0.00021297
C        -3.88529441     0.35208696    -0.10410330    -0.00007589     0.00024805    -0.00025834
C        -2.51333310     0.51082912     0.18314325     0.00001150     0.00001915     0.00006343
H        -4.40937131     1.29969796    -0.38339523    -0.00009422     0.00083777    -0.00088645
H        -1.90555599    -0.40855282     0.42424307     0.00019146     0.00111545     0.00024089
C        -1.85522480     1.68319275    -0.00646696     0.00029451     0.00007028     0.00006000
H        -2.32547301     2.63772997    -0.36864964    -0.00062581     0.00003994     0.00021148
N        -0.56107263     1.84227987     0.20408811    -0.00001950     0.00000612     0.00002632
H        -0.01622353     2.75254772     0.12367574     0.00046753    -0.00077046     0.00036196
H        -0.10997316     1.07643585     0.76061966    -0.00107338    -0.00045122    -0.00084854
    14
  Step:     2            Position(A)                                  Velocity(au)
C        -5.99904547    -0.65465913    -0.07695931    -0.00043494    -0.00009337     0.00030383
C        -4.71713536    -0.84105126     0.13024874     0.00036688    -0.00028224     0.00007243
H        -6.41387549     0.34409673    -0.32661677     0.00027926     0.00073539    -0.00131579
H        -6.73480480    -1.42567908     0.03070631    -0.00101297    -0.00046447    -0.00084576
H        -4.22728805    -1.80421857     0.44038285     0.00031312    -0.00026953    -0.00027413
C        -3.88657894     0.35470363    -0.10692846    -0.00015851     0.00023012    -0.00025820
C        -2.51290147     0.51076620     0.18389523     0.00006637    -0.00002737     0.00007333
H        -4.41024057     1.30779688    -0.39317271    -0.00005791     0.00062520    -0.00089357
H        -1.90411943    -0.39526847     0.42679696     0.00008057     0.00128516     0.00023167
C        -1.85218083     1.68431390    -0.00591582     0.00025898     0.00013437     0.00004035
H        -2.33256059     2.63680687    -0.36606499    -0.00066047    -0.00021062     0.00026194
N        -0.56087211     1.84235075     0.20451582     0.00005483     0.00000641     0.00005106
H        -0.01264634     2.74214091     0.12772505     0.00019847    -0.00110591     0.00037502
H        -0.12186463     1.07285532     0.75034942    -0.00107895    -0.00022578    -0.00101035
    14
  Step:     3            Position(A)                                  Velocity(au)
C        -6.00436592    -0.65559501    -0.07370327    -0.00053243    -0.00007823     0.00029122
C        -4.71244134    -0.84400370     0.13107151     0.00048347    -0.00025506     0.00007642
H        -6.41039109     0.35149131    -0.34092531     0.00036229     0.00059139    -0.00128814
H        -6.74640667    -1.43146951     0.02148517    -0.00108893    -0.00057282    -0.00083856
H        -4.22459105    -1.80612754     0.43705688     0.00018529    -0.00008415    -0.00033043
C        -3.88876216     0.35712136    -0.10975186    -0.00023918     0.00021126    -0.00025775
C        -2.51188116     0.51023039     0.18474749     0.00011838    -0.00006624     0.00008139
H        -4.41063830     1.31337548    -0.40294376    -0.00001166     0.00038383    -0.00088688
H        -1.90379342    -0.38043737     0.42931119    -0.00000583     0.00139049     0.00023616
C        -1.84955902     1.68613243    -0.00558432     0.00021821     0.00019662     0.00002029
H        -2.33992214     2.63312217    -0.36291913    -0.00067845    -0.00045690     0.00031144
N        -0.55987307     1.84242018     0.20520522     0.00012452     0.00000544     0.00007361
H        -0.01188159     2.72835379     0.13187995    -0.00003446    -0.00137075     0.00038002
H        -0.13357734     1.07149649     0.73851634    -0.00103577    -0.00005620    -0.00112759
    14
  Step:     4            Position(A)                                  Velocity(au)
C        -6.01069333    -0.65637067    -0.07058833    -0.00061779    -0.00006487     0.00027825
C        -4.70655849    -0.84663119     0.13192054     0.00058267    -0.00022229     0.00007694
H        -6.40594977     0.35703455    -0.35479738     0.00045017     0.00040393    -0.00123770
H        -6.75862725    -1.43821059     0.01236112    -0.00112505    -0.00063696    -0.00082767
H        -4.22323455    -1.80605950     0.43315410     0.00007251     0.00008514    -0.00037742
C        -3.89181153     0.35932539    -0.11256721    -0.00031601     0.00019057    -0.00025645
C        -2.51031177     0.50931713     0.18567580     0.00016607    -0.00009544     0.00008688
H        -4.41049568     1.31619382    -0.41257487     0.00003724     0.00012752    -0.00086983
H        -1.90424702    -0.36484895     0.43196346    -0.00005656     0.00141697     0.00025918
C        -1.84740707     1.68861541    -0.00547185     0.00017407     0.00025475     0.00000076
H        -2.34740308     2.62681136    -0.35925161    -0.00068525    -0.00068280     0.00035471
N        -0.55814808     1.84246978     0.20612621     0.00018572     0.00000230     0.00009296
H        -0.01340023     2.71215310     0.13603870    -0.00020701    -0.00153033     0.00037467
H        -0.14452401     1.07162590     0.72568114    -0.00093575     0.00003716    -0.00118874
    14
  Step:     5            Position(A)                                  Velocity(au)
C        -6.01788135    -0.65701417    -0.06761602    -0.00068894    -0.00005466     0.00026529
C        -4.69969422    -0.84886663     0.13275466     0.00066197    -0.00018290     0.00007350
H        -6.40054271     0.36032801    -0.36800241     0.00053510     0.00018733    -0.00116820
H        -6.77101930    -1.44540418     0.00337840    -0.00112093    -0.00065610    -0.00081233
H        -4.22300475    -1.80426505     0.42880011    -0.00001672     0.00022523    -0.00041088
C        -3.89567555     0.36129044    -0.11536213    -0.00038743     0.00016702    -0.00025374
C        -2.50824812     0.50814250     0.18664822     0.00020822    -0.00011336     0.00008918
H        -4.40982357     1.31616515    -0.42197286     0.00008159    -0.00012971    -0.00084632
H        -1.90503068    -0.34943836     0.43498118    -0.00006215     0.00135389     0.00030460
C        -1.84575097     1.69170568    -0.00556761     0.00012858     0.00030663    -0.00001731
H        -2.35491323     2.61818456    -0.35515919    -0.00068705    -0.00087267     0.00038659
N        -0.55581007     1.84247040     0.20723900     0.00023511    -0.00000405     0.00010843
H        -0.01641043     2.69487486     0.14007652    -0.00029690    -0.00155401     0.00035719
H        -0.15404860     1.07230947     0.71251033    -0.00077520     0.00003990    -0.00118714
    14
  Step:     6            Position(A)                                  Velocity(au)
C        -6.02576530    -0.65756642    -0.06478457    -0.00074468    -0.00004857     0.00025258
C        -4.69207655    -0.85063257     0.13352850     0.00072015    -0.00013608     0.00006584
H        -6.39424349     0.36113268    -0.38035409     0.00060992    -0.00004382    -0.00108396
H        -6.78314966    -1.45256406    -0.00541023    -0.00107922    -0.00063286    -0.00079184
H        -4.22360042    -1.80113224     0.42416533    -0.00007517     0.00032447    -0.00042700
C        -3.90028734     0.36297932    -0.11811827    -0.00045219     0.00013949    -0.00024909
C        -2.50575660     0.50683717     0.18762671     0.00024401    -0.00011910     0.00008782
H        -4.40871081     1.31335614    -0.43108968     0.00011437    -0.00037389    -0.00082059
H        -1.90560659    -0.33522995     0.43862725    -0.00001705     0.00119712     0.00037465
C        -1.84459417     1.69532354    -0.00585064     0.00008380     0.00035031    -0.00003304
H        -2.36243357     2.60771997    -0.35079413    -0.00069057    -0.00101176     0.00040221
N        -0.55300467     1.84238119     0.20849830     0.00027033    -0.00001457     0.00011976
H        -0.01989551     2.67815613     0.14385289    -0.00028802    -0.00142136     0.00032676
H        -0.16148309     1.07249869     0.69971012    -0.00055640    -0.00005247    -0.00112326
    14
  Step:     7            Position(A)                                  Velocity(au)
C        -6.03417256    -0.65807671    -0.06209028    -0.00078471    -0.00004719     0.00024026
C        -4.68393958    -0.85184363     0.13419499     0.00075728    -0.00008129     0.00005391
H        -6.38719950     0.35936944    -0.39171615     0.00066835    -0.00027498    -0.00098983
H        -6.79462926    -1.45924916    -0.01394466    -0.00100498    -0.00057252    -0.00076559
H        -4.22464930    -1.79716663     0.41945856    -0.00009754     0.00037387    -0.00042284
C        -3.90556807     0.36434208    -0.12081154    -0.00050929     0.00010683    -0.00024199
C        -2.50290995     0.50553705     0.18856947     0.00027315    -0.00011276     0.00008264
H        -4.40732144     1.30798553    -0.43992494     0.00012896    -0.00059140    -0.00079703
H        -1.90540361    -0.32324898     0.44317741     0.00007791     0.00095230     0.00046887
C        -1.84391764     1.69936944    -0.00629043     0.00004172     0.00038416    -0.00004561
H        -2.37002079     2.59605042    -0.34636002    -0.00070267    -0.00108707     0.00039723
N        -0.54989609     1.84215161     0.20985898     0.00029062    -0.00002985     0.00012725
H        -0.02271139     2.66377982     0.14722499    -0.00017617    -0.00113049     0.00028406
H        -0.16622094     1.07116167     0.68793677    -0.00028866    -0.00023096    -0.00100623
    14
  Step:     8            Position(A)                                  Velocity(au)
C        -6.04293223    -0.65859882    -0.05952832    -0.00080956    -0.00005080     0.00022842
C        -4.67550970    -0.85241090     0.13470792     0.00077459    -0.00001852     0.00003793
H        -6.37962211     0.35511699    -0.40200852     0.00070500    -0.00049192    -0.00089116
H        -6.80513550    -1.46508899    -0.02215904    -0.00090493    -0.00048234    -0.00073321
H        -4.22573423    -1.79295312     0.41491493    -0.00008132     0.00036883    -0.00039680
C        -3.91142911     0.36531642    -0.12341235    -0.00055787     0.00006802    -0.00023196
C        -2.49978096     0.50437031     0.18943452     0.00029590    -0.00009572     0.00007378
H        -4.40588958     1.30041824    -0.44852615     0.00011936    -0.00076948    -0.00077988
H        -1.90390219    -0.31439665     0.44888465     0.00021364     0.00063684     0.00058325
C        -1.84368149     1.70372781    -0.00684836     0.00000409     0.00040701    -0.00005438
H        -2.37780593     2.58393817    -0.34210394    -0.00072947    -0.00108898     0.00036842
N        -0.54664682     1.84172821     0.21128222     0.00029720    -0.00004963     0.00013172
H        -0.02374960     2.65342445     0.15006728     0.00002587    -0.00070527     0.00023173
H        -0.16779812     1.06744598     0.67769702     0.00001172    -0.00047189    -0.00085361
    14
  Step:     9            Position(A)                                  Velocity(au)
C        -6.05188333    -0.65918801    -0.05709321    -0.00082041    -0.00005942     0.00021711
C        -4.66699403    -0.85224875     0.13502484     0.00077421     0.00005151     0.00001838
H        -6.37177620     0.34860780    -0.41121201     0.00071554    -0.00068096    -0.00079366
H        -6.81442628    -1.46980122    -0.02998499    -0.00078676    -0.00037087    -0.00069461
H        -4.22642837    -1.78909772     0.41077778    -0.00002750     0.00031078    -0.00034917
C        -3.91777245     0.36583012    -0.12588614    -0.00059700     0.00002238    -0.00021859
C        -2.49643666     0.50344293     0.19018357     0.00031295    -0.00007061     0.00006177
H        -4.40471032     1.29115173    -0.45698633     0.00008064    -0.00089711    -0.00077304
H        -1.90072974    -0.30931686     0.45593702     0.00037284     0.00027945     0.00070998
C        -1.84382820     1.70827350    -0.00748012    -0.00002770     0.00041835    -0.00005899
H        -2.38597934     2.57222693    -0.33830009    -0.00077503    -0.00101310     0.00031440
N        -0.54339433     1.84106597     0.21274053     0.00029327    -0.00007254     0.00013430
H        -0.02214535     2.64835067     0.15229456     0.00028706    -0.00019692     0.00017435
H        -0.16596462     1.06083815     0.66926243     0.00032324    -0.00073937    -0.00068892
    14
  Step:    10            Position(A)                                  Velocity(au)
C        -6.06088033    -0.65989870    -0.05477866    -0.00081875    -0.00007289     0.00020642
C        -4.65857246    -0.85128398     0.13511010     0.00075877     0.00012716    -0.00000398
H        -6.36396840     0.34021970    -0.41937131     0.00069673    -0.00082953    -0.00070315
H        -6.82234734    -1.47320246    -0.03735504    -0.00065864    -0.00024744    -0.00065001
H        -4.22633595    -1.78615431     0.40727607     0.00005910     0.00020832    -0.00028246
C        -3.92448957     0.36580595    -0.12819442    -0.00062568    -0.00003018    -0.00020161
C        -2.49293448     0.50282561     0.19078584     0.00032524    -0.00004097     0.00004740
H        -4.40412544     1.28079228    -0.46543793     0.00000968    -0.00096633    -0.00077951
H        -1.89574553    -0.30828321     0.46441681     0.00053237    -0.00008365     0.00083821
C        -1.84428746     1.71288007    -0.00813891    -0.00005277     0.00041853    -0.00005939
H        -2.39476125     2.56177457    -0.33522580    -0.00083992    -0.00086220     0.00023637
N        -0.54023091     1.84014127     0.21422019     0.00028346    -0.00009623     0.00013621
H        -0.01746963     2.64911642     0.15388160     0.00056290     0.00032370     0.00011778
H        -0.16072665     1.05127084     0.66262567     0.00062243    -0.00099170    -0.00053707
    14
  Step:    11            Position(A)                                  Velocity(au)
C        -6.06979504    -0.66078252    -0.05257730    -0.00080612    -0.00009086     0.00019648
C        -4.65039439    -0.84946683     0.13493786     0.00073104     0.00020581    -0.00002814
H        -6.35653379     0.33046029    -0.42659470     0.00064667    -0.00092688    -0.00062521
H        -6.82883530    -1.47521449    -0.04420530    -0.00052891    -0.00012180    -0.00059981
H        -4.22513540    -1.78454029     0.40459845     0.00017009     0.00007735    -0.00020136
C        -3.93146040     0.36516989    -0.13029675    -0.00064292    -0.00008889    -0.00018099
C        -2.48932134     0.50254664     0.19122051     0.00033367    -0.00001064     0.00003162
H        -4.40449864     1.27001131    -0.47403967    -0.00009399    -0.00097402    -0.00080077
H        -1.88908309    -0.31114689     0.47427454     0.00066789    -0.00041509     0.00095580
C        -1.84498274     1.71742960    -0.00877945    -0.00007092     0.00040874    -0.00005590
H        -2.40435417     2.55336471    -0.33312909    -0.00091981    -0.00064740     0.00013864
N        -0.53719321     1.83896069     0.21572043     0.00027269    -0.00011793     0.00013849
H        -0.00983085     2.65543213     0.15487128     0.00080585     0.00078199     0.00006792
H        -0.15234772     1.03914282     0.65751300     0.00088759    -0.00118962    -0.00041952
    14
  Step:    12            Position(A)                                  Velocity(au)
C        -6.07851572    -0.66188647    -0.05048034    -0.00078390    -0.00011280     0.00018739
C        -4.64257954    -0.84678140     0.13449456     0.00069351     0.00028402    -0.00005291
H        -6.34982115     0.31994245    -0.43304907     0.00056492    -0.00096530    -0.00056459
H        -6.83391826    -1.47586707    -0.05047701    -0.00040583    -0.00000377    -0.00054449
H        -4.22261496    -1.78446219     0.40287088     0.00029451    -0.00006084    -0.00011224
C        -3.93855467     0.36386124    -0.13215401    -0.00064794    -0.00015204    -0.00015705
C        -2.48563478     0.50259286     0.19147750     0.00033895     0.00001698     0.00001534
H        -4.40618171     1.25948366    -0.48295628    -0.00022744    -0.00092326    -0.00083612
H        -1.88113422    -0.31736416     0.48532666     0.00075893    -0.00068324     0.00105151
C        -1.84583899     1.72182196    -0.00936190    -0.00008260     0.00039093    -0.00004917
H        -2.41488388     2.54761139    -0.33219269    -0.00100515    -0.00038783     0.00002859
N        -0.53426519     1.83756139     0.21725003     0.00026514    -0.00013519     0.00014181
H         0.00015993     2.66622384     0.15536739     0.00097699     0.00111734     0.00002940
H        -0.14130886     1.02524559     0.65344780     0.00110199    -0.00130368    -0.00035056
    14
  Step:    13            Position(A)                                  Velocity(au)
C        -6.08694434    -0.66325022    -0.04847786    -0.00075317    -0.00013788     0.00017922
C        -4.63522250    -0.84325338     0.13378044     0.00064813     0.00035780    -0.00007701
H        -6.34417508     0.30934242    -0.43894623     0.00045275    -0.00094164    -0.00052436
H        -6.83771352    -1.47529707    -0.05611701    -0.00029731     0.00009705    -0.00048456
H        -4.21869236    -1.78587121     0.40214288     0.00042056    -0.00018281    -0.00002216
C        -3.94563541     0.36184379    -0.13373252    -0.00064036    -0.00021685    -0.00013049
C        -2.48190625     0.50291817     0.19155616     0.00034146     0.00003945    -0.00000067
H        -4.40947425     1.24981313    -0.49233134    -0.00038395    -0.00082419    -0.00088217
H        -1.87248015    -0.32609402     0.49727827     0.00079248    -0.00086693     0.00111693
C        -1.84678975     1.72598185    -0.00985513    -0.00008882     0.00036752    -0.00004007
H        -2.42634386     2.54488020    -0.33250371    -0.00108216    -0.00010821    -0.00008427
N        -0.53139267     1.83600316     0.21882273     0.00026339    -0.00014649     0.00014639
H         0.01154270     2.67987609     0.15551443     0.00105373     0.00129479     0.00000481
H        -0.12823967     1.01062240     0.64984381     0.00125567    -0.00131834    -0.00033586
    14
  Step:    14            Position(A)                                  Velocity(au)
C        -6.09499282    -0.66490276    -0.04655963    -0.00071470    -0.00016494     0.00017192
C        -4.62840044    -0.83895391     0.13280977     0.00059610     0.00042303    -0.00009921
H        -6.33991642     0.29934223    -0.44452036     0.00031321    -0.00085844    -0.00050519
H        -6.84042247    -1.47374392    -0.06107778    -0.00021061     0.00017176    -0.00042054
H        -4.21341446    -1.78846145     0.40238613     0.00053730    -0.00026700     0.00006227
C        -3.95256378     0.35911714    -0.13500882    -0.00062022    -0.00027967    -0.00010246
C        -2.47816476     0.50345580     0.19146284     0.00034127     0.00005544    -0.00001592
H        -4.41458130     1.24145297    -0.50225538    -0.00055334    -0.00069343    -0.00093277
H        -1.86379731    -0.33632988     0.50976166     0.00076411    -0.00095707     0.00114742
C        -1.84778220     1.72986216    -0.01023850    -0.00009092     0.00034105    -0.00002956
H        -2.43855809     2.54524417    -0.33403625    -0.00113509     0.00016493    -0.00018965
N        -0.52850294     1.83435664     0.22045254     0.00026830    -0.00015135     0.00015210
H         0.02321228     2.69454994     0.15547264     0.00103126     0.00130711    -0.00000543
H        -0.11383865     0.99640448     0.64610025     0.00134566    -0.00123215    -0.00037330
    14
  Step:    15            Position(A)                                  Velocity(au)
C        -6.10257979    -0.66685862    -0.04471673    -0.00066899    -0.00019251     0.00016529
C        -4.62218169    -0.83399869     0.13160998     0.00053784     0.00047589    -0.00011839
H        -6.33732308     0.29056233    -0.44999813     0.00015103    -0.00072468    -0.00050479
H        -6.84232108    -1.47153956    -0.06531703    -0.00015179     0.00021273    -0.00035286
H        -4.20693794    -1.79171238     0.40350507     0.00063613    -0.00029722     0.00013577
C        -3.95920386     0.35572542    -0.13597399    -0.00058793    -0.00033622    -0.00007440
C        -2.47444037     0.50413110     0.19120795     0.00033819     0.00006472    -0.00003015
H        -4.42157952     1.23464301    -0.51273740    -0.00072311    -0.00055185    -0.00097967
H        -1.85576380    -0.34703169     0.52238031     0.00067685    -0.00095521     0.00114205
C        -1.84877888     1.73344296    -0.01050192    -0.00009024     0.00031378    -0.00001855
H        -2.45117618     2.54848828    -0.33665265    -0.00114936     0.00040754    -0.00027823
N        -0.52552320     1.83269217     0.22215030     0.00027925    -0.00015010     0.00015856
H         0.03410353     2.70847160     0.15539572     0.00091899     0.00116924    -0.00000261
H        -0.09880074     0.98366667     0.64167715     0.00137495    -0.00105522    -0.00045507
    14
  Step:    16            Position(A)                                  Velocity(au)
C        -6.10962830    -0.66911428    -0.04294360    -0.00061644    -0.00021883     0.00015891
C        -4.61663426    -0.82854293     0.13021972     0.00047311     0.00051313    -0.00013364
H        -6.33661235     0.28348855    -0.45556354    -0.00002766    -0.00055545    -0.00051777
H        -6.84374326    -1.46909014    -0.06879727    -0.00012500     0.00021446    -0.00028194
H        -4.19949783    -1.79496366     0.40535630     0.00071153    -0.00026471     0.00019503
C        -3.96542598     0.35176174    -0.13663641    -0.00054419    -0.00038209    -0.00004792
C        -2.47076619     0.50487172     0.19080330     0.00033192     0.00006782    -0.00004332
H        -4.43040075     1.22938009    -0.52368743    -0.00088025    -0.00042110    -0.00101378
H        -1.84898988    -0.35722687     0.53474609     0.00053887    -0.00087058     0.00110284
C        -1.84975633     1.73672659    -0.01064432    -0.00008786     0.00028740    -0.00000773
H        -2.46370249     2.55415979    -0.34012298    -0.00111414     0.00060148    -0.00034299
N        -0.52239386     1.83107287     0.22392141     0.00029470    -0.00014356     0.00016522
H         0.04331702     2.72012923     0.15541560     0.00073490     0.00090962     0.00001092
H        -0.08375902     0.97331953     0.63614477     0.00135096    -0.00080543    -0.00057005
    14
  Step:    17            Position(A)                                  Velocity(au)
C        -6.11606568    -0.67164605    -0.04124025    -0.00055753    -0.00024211     0.00015220
C        -4.61183148    -0.82277293     0.12868632     0.00040133     0.00053239    -0.00014429
H        -6.33792812     0.27841090    -0.46132540    -0.00021587    -0.00037026    -0.00053626
H        -6.84505578    -1.46684776    -0.07148494    -0.00013171     0.00017451    -0.00020807
H        -4.19137190    -1.79750339     0.40777176     0.00076097    -0.00016839     0.00023877
C        -3.97110909     0.34736645    -0.13702231    -0.00048982    -0.00041332    -0.00002457
C        -2.46717889     0.50561472     0.19026020     0.00032217     0.00006576    -0.00005554
H        -4.44083677     1.22543060    -0.53491579    -0.00101308    -0.00031992    -0.00102676
H        -1.84397508    -0.36607732     0.54650700     0.00036103    -0.00071691     0.00103382
C        -1.85070105     1.73973042    -0.01067099    -0.00008448     0.00026295     0.00000245
H        -2.47555016     2.56164687    -0.34415614    -0.00102407     0.00073625    -0.00037997
N        -0.51907610     1.82955157     0.22576488     0.00031258    -0.00013267     0.00017150
H         0.05018079     2.72837139     0.15563467     0.00050065     0.00056274     0.00003232
H        -0.06924599     0.96604631     0.62920621     0.00128403    -0.00050510    -0.00070583
    14
  Step:    18            Position(A)                                  Velocity(au)
C        -6.12182526    -0.67441081    -0.03961385    -0.00049295    -0.00026073     0.00014449
C        -4.60785446    -0.81689591     0.12706300     0.00032184     0.00053229    -0.00014995
H        -6.34133489     0.27538846    -0.46729517    -0.00040639    -0.00019026    -0.00055104
H        -6.84662478    -1.46527241    -0.07334927    -0.00017003     0.00009423    -0.00013145
H        -4.18285019    -1.79864758     0.41057982     0.00078443    -0.00001379     0.00026746
C        -3.97614163     0.34271959    -0.13717400    -0.00042572    -0.00042686    -0.00000566
C        -2.46371818     0.50631031     0.18958829     0.00030868     0.00005983    -0.00006699
H        -4.45256385     1.22238121    -0.54614975    -0.00111273    -0.00026131    -0.00101237
H        -1.84109170    -0.37291054     0.55736294     0.00015516    -0.00050995     0.00094020
C        -1.85160440     1.74247904    -0.01059062    -0.00008030     0.00024077     0.00001181
H        -2.48610594     2.57026675    -0.34843557    -0.00087938     0.00080881    -0.00038826
N        -0.51555548     1.82817043     0.22767322     0.00033062    -0.00011838     0.00017680
H         0.05426970     2.73244035     0.15612262     0.00023868     0.00016456     0.00005856
H        -0.05566836     0.96226952     0.62070330     0.00118637    -0.00017867    -0.00084995
    14
  Step:    19            Position(A)                                  Velocity(au)
C        -6.12684982    -0.67734998    -0.03807927    -0.00042378    -0.00027361     0.00013510
C        -4.60479057    -0.81112816     0.12540586     0.00023430     0.00051256    -0.00015048
H        -6.34681870     0.27424862    -0.47338043    -0.00059238    -0.00003513    -0.00055312
H        -6.84877549    -1.46478625    -0.07436075    -0.00023420    -0.00002063    -0.00005212
H        -4.17421108    -1.79780497     0.41362296     0.00078369     0.00018859     0.00028298
C        -3.98042245     0.33802817    -0.13714604    -0.00035290    -0.00042094     0.00000794
C        -2.46042595     0.50692365     0.18879472     0.00029131     0.00005142    -0.00007791
H        -4.46517993     1.21971393    -0.55706328    -0.00117390    -0.00025120    -0.00096734
H        -1.84058075    -0.37723340     0.56707557    -0.00006695    -0.00026612     0.00082782
C        -1.85245784     1.74499781    -0.01041271    -0.00007520     0.00022075     0.00002034
H        -2.49478828     2.57934124    -0.35265018    -0.00068498     0.00082216    -0.00036944
N        -0.51184315     1.82696172     0.22963281     0.00034645    -0.00010158     0.00018062
H         0.05540234     2.73197135     0.15691586    -0.00002898    -0.00024917     0.00008658
H        -0.04329195     0.96213762     0.61061203     0.00107130     0.00014862    -0.00099054
    14
  Step:    20            Position(A)                                  Velocity(au)
C        -6.13109620    -0.68039658    -0.03665828    -0.00035150    -0.00028038     0.00012349
C        -4.60272877    -0.80568261     0.12377095     0.00013885     0.00047412    -0.00014603
H        -6.35429425     0.27461997    -0.47939573    -0.00076781     0.00007959    -0.00053512
H        -6.85174829    -1.46572373    -0.07448959    -0.00031469    -0.00016007     0.00002999
H        -4.16570556    -1.79452185     0.41677063     0.00076165     0.00042502     0.00028816
C        -3.98386201     0.33351066    -0.13700029    -0.00027254    -0.00039529     0.00001579
C        -2.45734531     0.50743525     0.18788380     0.00026995     0.00004192    -0.00008860
H        -4.47824516     1.21688579    -0.56731220    -0.00119471    -0.00028882    -0.00089147
H        -1.84255632    -0.37873249     0.57547308    -0.00029392    -0.00000177     0.00070296
C        -1.85324949     1.74730830    -0.01014568    -0.00006875     0.00020240     0.00002821
H        -2.50109120     2.58825308    -0.35651774    -0.00044911     0.00078356    -0.00032685
N        -0.50797627     1.82594810     0.23162463     0.00035767    -0.00008318     0.00018249