 Fermi distribution function

Calculation with static geometry


********************************************************************************
 iSCC Total electronic   Diff electronic      SCC error    
   14   -0.52487006E+01   -0.94688701E-11    0.68161876E-08
********************************************************************************

 Total charge:     1.00000000

 Atomic gross charges (e)
 Atom           Charge
    1       0.30920302
    2      -0.18906013
    3       0.18849348
    4       0.25888136
    5       0.25304036
    6       0.17944191

Nr. of electrons (up):     12.00000000
Atom populations (up)
 Atom       Population
    1       3.69079698
    2       5.18906013
    3       0.81150652
    4       0.74111864
    5       0.74695964
    6       0.82055809

l-shell populations (up)
 Atom Sh.   l       Population
    1   1   0       1.42412097
    1   2   1       2.26667601
    2   1   0       1.54850544
    2   2   1       3.64055469
    3   1   0       0.81150652
    4   1   0       0.74111864
    5   1   0       0.74695964
    6   1   0       0.82055809

Orbital populations (up)
 Atom Sh.   l   m       Population  Label
    1   1   0   0       1.42412097  s
    1   2   1  -1       0.37194103  p_y
    1   2   1   0       0.88080476  p_z
    1   2   1   1       1.01393022  p_x
    2   1   0   0       1.54850544  s
    2   2   1  -1       1.35607702  p_y
    2   2   1   0       1.10562957  p_z
    2   2   1   1       1.17884810  p_x
    3   1   0   0       0.81150652  s
    4   1   0   0       0.74111864  s
    5   1   0   0       0.74695964  s
    6   1   0   0       0.82055809  s

Fermi level:                        -0.5234228453 H          -14.2431 eV
Band energy:                        -8.6421728250 H         -235.1655 eV
TS:                                  0.0000000000 H            0.0000 eV
Band free energy (E-TS):            -8.6421728250 H         -235.1655 eV
Extrapolated E(0K):                 -8.6421728250 H         -235.1655 eV
Input / Output electrons (q):     12.0000000000     12.0000000000

Energy H0:                          -5.3865002715 H         -146.5741 eV
Energy SCC:                          0.1377996294 H            3.7497 eV
Total Electronic energy:            -5.2487006422 H         -142.8244 eV
Repulsive energy:                    0.1289935277 H            3.5101 eV
Total energy:                       -5.1197071144 H         -139.3143 eV
Extrapolated to 0:                  -5.1197071144 H         -139.3143 eV
Total Mermin free energy:           -5.1197071144 H         -139.3143 eV
Force related energy:               -5.1197071144 H         -139.3143 eV

SCC converged

Excitation Energy:                   0.0971933982 H            2.6448 eV

Total Forces
    1      0.004173941485      0.000611010210      0.015420590806
    2      0.015406889430     -0.023099558287     -0.026104492756
    3     -0.000444526108      0.007109554834     -0.001245176770
    4     -0.012091245900      0.011619868335     -0.000077484243
    5     -0.007663046934      0.007677306827      0.011559327431
    6      0.000617988027     -0.003918181919      0.000447235533

Maximal derivative component:        0.261045E-01 au


