 Fermi distribution function

Calculation with static geometry


********************************************************************************
 iSCC Total electronic   Diff electronic      SCC error    
   10   -0.53891823E+01   -0.24424907E-12    0.39261363E-07
********************************************************************************

 Total charge:     1.00000000

 Atomic gross charges (e)
 Atom           Charge
    1       0.14092830
    2      -0.03960969
    3       0.20794127
    4       0.27758529
    5       0.27236890
    6       0.14078593

Nr. of electrons (up):     12.00000000
Atom populations (up)
 Atom       Population
    1       3.85907170
    2       5.03960969
    3       0.79205873
    4       0.72241471
    5       0.72763110
    6       0.85921407

l-shell populations (up)
 Atom Sh.   l       Population
    1   1   0       1.32728661
    1   2   1       2.53178509
    2   1   0       1.43345419
    2   2   1       3.60615551
    3   1   0       0.79205873
    4   1   0       0.72241471
    5   1   0       0.72763110
    6   1   0       0.85921407

Orbital populations (up)
 Atom Sh.   l   m       Population  Label
    1   1   0   0       1.32728661  s
    1   2   1  -1       0.59830527  p_y
    1   2   1   0       0.87277667  p_z
    1   2   1   1       1.06070315  p_x
    2   1   0   0       1.43345419  s
    2   2   1  -1       1.29167830  p_y
    2   2   1   0       1.10451306  p_z
    2   2   1   1       1.20996415  p_x
    3   1   0   0       0.79205873  s
    4   1   0   0       0.72241471  s
    5   1   0   0       0.72763110  s
    6   1   0   0       0.85921407  s

Fermi level:                        -0.4991707160 H          -13.5831 eV
Band energy:                        -8.9192306808 H         -242.7046 eV
TS:                                  0.0000000000 H            0.0000 eV
Band free energy (E-TS):            -8.9192306808 H         -242.7046 eV
Extrapolated E(0K):                 -8.9192306808 H         -242.7046 eV
Input / Output electrons (q):     12.0000000000     12.0000000000

Energy H0:                          -5.5232161564 H         -150.2944 eV
Energy SCC:                          0.1340338066 H            3.6472 eV
Total Electronic energy:            -5.3891823498 H         -146.6471 eV
Repulsive energy:                    0.1834866580 H            4.9929 eV
Total energy:                       -5.2056956918 H         -141.6542 eV
Extrapolated to 0:                  -5.2056956918 H         -141.6542 eV
Total Mermin free energy:           -5.2056956918 H         -141.6542 eV
Force related energy:               -5.2056956918 H         -141.6542 eV

SCC converged

Excitation Energy:                   0.1227582171 H            3.3404 eV

Total Forces
    1      0.003277822491      0.013436439727      0.041971569943
    2     -0.010313405036     -0.000966206175     -0.042171839362
    3     -0.004229947500      0.002036109003     -0.002765454780
    4     -0.004781310493     -0.007161530981      0.006522478280
    5      0.015254723664      0.001249168137     -0.002620965858
    6      0.000792116875     -0.008593979711     -0.000935788223

Maximal derivative component:        0.421718E-01 au


