|===============================================================================
|
|  DFTB+ release 20.1
|
|  Copyright (C) 2006 - 2020  DFTB+ developers group
|
|===============================================================================
|
|  When publishing results obtained with DFTB+, please cite the following
|  reference:
|
|  * DFTB+, a software package for efficient approximate density functional
|    theory based atomistic simulations, J. Chem. Phys. 152, 124101 (2020).
|    [doi: 10.1063/1.5143190]
|
|  You should also cite additional publications crediting the parametrization
|  data you use. Please consult the documentation of the SK-files for the
|  references.
|
|===============================================================================

Reading input file 'dftb_in.hsd'
Parser version: 8

--------------------------------------------------------------------------------
Reading SK-files:
Done.


Processed input in HSD format written to 'dftb_pin.hsd'

Starting initialization...
--------------------------------------------------------------------------------
WARNING!
-> Excited state forces are not implemented yet for fractional occupations, kT=  0.3158E-02K
OpenMP threads:              1
Chosen random seed:          435508675
Mode:                        Static calculation
Self consistent charges:     Yes
SCC-tolerance:                 0.100000E-05
Max. scc iterations:                    100
Shell resolved Hubbard:      No
Spin polarisation:           No
Nr. of up electrons:             6.000000
Nr. of down electrons:           6.000000
Periodic boundaries:         No
Electronic solver:           Relatively robust
Mixer:                       Broyden mixer
Mixing parameter:                  0.200000
Maximal SCC-cycles:                     100
Nr. of chrg. vec. in memory:              0
Electronic temperature:        0.100000E-07 H      0.272114E-06 eV
Initial charges:             Set automatically (system chrg:   0.100E+01)
Included shells:             C:  s, p
                             N:  s, p
                             H:  s
Extra options:
                             Mulliken analysis
                             Force calculation
Force type                   original
                             Eigenvector printing

--------------------------------------------------------------------------------

***  Geometry step: 0

 iSCC Total electronic   Diff electronic      SCC error    
    1   -0.53829594E+01    0.00000000E+00    0.62666037E+00
    2   -0.53864656E+01   -0.35062696E-02    0.42580497E+00
    3   -0.53888973E+01   -0.24316128E-02    0.68994827E-01
    4   -0.53891791E+01   -0.28186274E-03    0.17130711E-01
    5   -0.53891789E+01    0.24673653E-06    0.50897542E-02
    6   -0.53891823E+01   -0.34751886E-05    0.32111459E-03
    7   -0.53891823E+01   -0.21123086E-08    0.47007324E-04
    8   -0.53891823E+01   -0.81136875E-10    0.60586444E-05
    9   -0.53891823E+01   -0.12700951E-11    0.15648311E-05
   10   -0.53891823E+01   -0.24424907E-12    0.39261363E-07
>> Charges saved for restart in charges.bin

Total Energy:                       -5.0829374748 H         -138.3138 eV
Extrapolated to 0:                  -5.2056956918 H         -141.6542 eV
Total Mermin free energy:           -5.0829374748 H         -138.3138 eV
Force related energy:               -5.2056956918 H         -141.6542 eV

--------------------------------------------------------------------------------
DFTB+ running times                          cpu [s]             wall clock [s]
--------------------------------------------------------------------------------
SCC                                    +     0.01  ( 53.4%)      0.03  ( 61.4%)
Post-SCC processing                    +     0.00  ( 38.1%)      0.01  ( 27.3%)
--------------------------------------------------------------------------------
Missing                                +     0.00  (  8.5%)      0.00  ( 11.4%)
Total                                  =     0.01  (100.0%)      0.04  (100.0%)
--------------------------------------------------------------------------------
