     6
  Step:     0            Position(A)                                  Velocity(au)
C        -0.04219823     0.00355266     0.00453500     0.00002715     0.00007906     0.00025773
N        -0.03793033    -0.05138738     1.30892024     0.00014169    -0.00011550    -0.00014677
H         0.93174543     0.02252410    -0.47154109     0.00012439    -0.00035946    -0.00027266
H         0.82447534    -0.10158556     1.82850313    -0.00073039     0.00071660    -0.00083116
H        -0.93814244    -0.05255589     1.87440557    -0.00130056     0.00036358     0.00056481
H        -1.00108643     0.13360292    -0.58258199    -0.00038605    -0.00005770    -0.00049261
     6
  Step:     1            Position(A)                                  Velocity(au)
C        -0.04207960     0.00398627     0.00586908     0.00001604     0.00007968     0.00022887
N        -0.03720006    -0.05201996     1.30820047     0.00012358    -0.00011590    -0.00011576
H         0.93267863     0.02057980    -0.47338292     0.00021354    -0.00035205    -0.00039893
H         0.82074274    -0.09768190     1.82421142    -0.00062175     0.00071097    -0.00072940
H        -0.94495070    -0.05058543     1.87737139    -0.00117605     0.00035706     0.00051136
H        -1.00304112     0.13329707    -0.58530930    -0.00032424    -0.00005479    -0.00050159
     6
  Step:     2            Position(A)                                  Velocity(au)
C        -0.04202279     0.00442415     0.00703829     0.00000469     0.00008064     0.00019764
N        -0.03657870    -0.05265504     1.30765404     0.00010218    -0.00011647    -0.00008356
H         0.93408100     0.01867351    -0.47590448     0.00029498    -0.00034573    -0.00052073
H         0.81767481    -0.09380921     1.82052517    -0.00048921     0.00070580    -0.00061114
H        -0.95100564    -0.04865044     1.87999864    -0.00102762     0.00035069     0.00044258
H        -1.00463283     0.13300359    -0.58806825    -0.00025400    -0.00005311    -0.00050472
     6
  Step:     3            Position(A)                                  Velocity(au)
C        -0.04202835     0.00486815     0.00803034    -0.00000665     0.00008195     0.00016431
N        -0.03608270    -0.05329362     1.30728673     0.00007808    -0.00011727    -0.00005041
H         0.93590431     0.01679915    -0.47907728     0.00036679    -0.00034060    -0.00063690
H         0.81539304    -0.08996367     1.81752832    -0.00033665     0.00070174    -0.00047905
H        -0.95618814    -0.04675054     1.88221116    -0.00085960     0.00034440     0.00036129
H        -1.00581870     0.13271628    -0.59082856    -0.00017652    -0.00005248    -0.00050277
     6
  Step:     4            Position(A)                                  Velocity(au)
C        -0.04209546     0.00532007     0.00883449    -0.00001772     0.00008360     0.00012915
N        -0.03572511    -0.05393696     1.30710294     0.00005192    -0.00011832    -0.00001654
H         0.93809070     0.01495018    -0.48286695     0.00042743    -0.00033672    -0.00074651
H         0.81399463    -0.08613798     1.81528826    -0.00016885     0.00069935    -0.00033633
H        -0.96040257    -0.04488548     1.88394813    -0.00067603     0.00033820     0.00027015
H        -1.00656246     0.13242986    -0.59356440    -0.00009295    -0.00005274    -0.00049655
     6
  Step:     5            Position(A)                                  Velocity(au)
C        -0.04222202     0.00578168     0.00944158    -0.00002833     0.00008557     0.00009244
N        -0.03551538    -0.05458652     1.30710605     0.00002434    -0.00011967     0.00001792
H         0.94057486     0.01311972    -0.48723449     0.00047568    -0.00033414    -0.00084880
H         0.81354803    -0.08232175     1.81385318     0.00000871     0.00069915    -0.00018660
H        -0.96357518    -0.04305503     1.88516318    -0.00048068     0.00033205     0.00017170
H        -1.00683441     0.13213996    -0.59625441    -0.00000447    -0.00005372    -0.00048685
     6
  Step:     6            Position(A)                                  Velocity(au)
C        -0.04240487     0.00625465     0.00984405    -0.00003828     0.00008784     0.00005446
N        -0.03545928    -0.05524393     1.30729865    -0.00000398    -0.00012132     0.00005283
H         0.94328600     0.01130079    -0.49213735     0.00051071    -0.00033283    -0.00094317
H         0.81408972    -0.07850206     1.81325027     0.00019002     0.00070149    -0.00003375
H        -0.96565243    -0.04125894     1.88582340    -0.00027709     0.00032595     0.00006830
H        -1.00661127     0.13184316    -0.59888169     0.00008778    -0.00005524    -0.00047445
     6
  Step:     7            Position(A)                                  Velocity(au)
C        -0.04263990     0.00674052     0.01003603    -0.00004741     0.00009037     0.00001552
N        -0.03555888    -0.05591091     1.30768272    -0.00003238    -0.00012330     0.00008807
H         0.94614984     0.00948650    -0.49753029     0.00053198    -0.00033275    -0.00102915
H         0.81562237    -0.07466421     1.81348472     0.00036888     0.00070660     0.00011818
H        -0.96659992    -0.03949694     1.88590878    -0.00006868     0.00031989    -0.00003772
H        -1.00587624     0.13153696    -0.60143362     0.00018260    -0.00005713    -0.00046011
     6
  Step:     8            Position(A)                                  Velocity(au)
C        -0.04292217     0.00724065     0.01001335    -0.00005558     0.00009313    -0.00002405
N        -0.03581253    -0.05658919     1.30825955    -0.00006016    -0.00012558     0.00012350
H         0.94909027     0.00767026    -0.50336601     0.00053924    -0.00033382    -0.00110632
H         0.81811443    -0.07079259     1.81453967     0.00053906     0.00071454     0.00026521
H        -0.96640177    -0.03776874     1.88541181     0.00014112     0.00031387    -0.00014406
H        -1.00461902     0.13121983    -0.60390180     0.00027875    -0.00005921    -0.00044456
     6
  Step:     9            Position(A)                                  Velocity(au)
C        -0.04324603     0.00775618     0.00977374    -0.00006265     0.00009607    -0.00006388
N        -0.03621497    -0.05728041     1.30902962    -0.00008667    -0.00012813     0.00015894
H         0.95203070     0.00584590    -0.50959551     0.00053246    -0.00033594    -0.00117430
H         0.82150127    -0.06687164     1.81637702     0.00069467     0.00072518     0.00040355
H        -0.96506090    -0.03607400     1.88433766     0.00034872     0.00030788    -0.00024832
H        -1.00283620     0.13089122    -0.60628186     0.00037492    -0.00006130    -0.00042851
     6
  Step:    10            Position(A)                                  Velocity(au)
C        -0.04360514     0.00828797     0.00931696    -0.00006849     0.00009912    -0.00010355
N        -0.03675739    -0.05798601     1.30999230    -0.00011126    -0.00013090     0.00019412
H         0.95489518     0.00400786    -0.51616820     0.00051185    -0.00033897    -0.00123276
H         0.82568765    -0.06288675     1.81893910     0.00083033     0.00073824     0.00052975
H        -0.96260001    -0.03441229     1.88270468     0.00055026     0.00030193    -0.00034793
H        -1.00053162     0.13055156    -0.60857344     0.00046967    -0.00006320    -0.00041270
     6
  Step:    11            Position(A)                                  Velocity(au)
C        -0.04399255     0.00883654     0.00864505    -0.00007300     0.00010222    -0.00014262
N        -0.03742762    -0.05870716     1.31114541    -0.00013331    -0.00013384     0.00022869
H         0.95760966     0.00215130    -0.52303205     0.00047785    -0.00034276    -0.00128138
H         0.83055153    -0.05882520     1.82215105     0.00094149     0.00075328     0.00064086
H        -0.95906332    -0.03278306     1.88054538     0.00074148     0.00029607    -0.00044015
H        -0.99771700     0.13020235    -0.61078016     0.00056143    -0.00006473    -0.00039785
     6
  Step:    12            Position(A)                                  Velocity(au)
C        -0.04440079     0.00940207     0.00776253    -0.00007608     0.00010530    -0.00018059
N        -0.03821027    -0.05944470     1.31248476    -0.00015223    -0.00013687     0.00026222
H         0.96010318     0.00027222    -0.53013378     0.00043113    -0.00034714    -0.00131989
H         0.83594888    -0.05467686     1.82592375     0.00102454     0.00076975     0.00073450
H        -0.95451866    -0.03118542     1.87790756     0.00091773     0.00029037    -0.00052200
H        -0.99441262     0.12984613    -0.61290959     0.00064854    -0.00006567    -0.00038469
     6
  Step:    13            Position(A)                                  Velocity(au)
C        -0.04482185     0.00998430     0.00667662    -0.00007764     0.00010827    -0.00021692
N        -0.03908696    -0.06019904     1.31400364    -0.00016750    -0.00013991     0.00029419
H         0.96230904    -0.00163252    -0.53741898     0.00037259    -0.00035194    -0.00134809
H         0.84171916    -0.05043484     1.83015713     0.00107696     0.00078702     0.00080893
H        -0.94905994    -0.02961804     1.87485551     0.00107395     0.00028492    -0.00059033
H        -0.99064784     0.12948652    -0.61497332     0.00072923    -0.00006584    -0.00037396
     6
  Step:    14            Position(A)                                  Velocity(au)
C        -0.04524732     0.01058256     0.00539737    -0.00007761     0.00011106    -0.00025109
N        -0.04003659    -0.06097017     1.31569243    -0.00017865    -0.00014288     0.00032403
H         0.96416564    -0.00356512    -0.54483236     0.00030330    -0.00035701    -0.00136586
H         0.84769130    -0.04609578     1.83474378     0.00109741     0.00080442     0.00086316
H        -0.94280914    -0.02807884     1.87147106     0.00120483     0.00027990    -0.00064187
H        -0.98646164     0.12912822    -0.61698693     0.00080170    -0.00006505    -0.00036638
     6
  Step:    15            Position(A)                                  Velocity(au)
C        -0.04566845     0.01119576     0.00393769    -0.00007595     0.00011359    -0.00028256
N        -0.04103569    -0.06175766     1.31753828    -0.00018528    -0.00014572     0.00035113
H         0.96561758    -0.00552688    -0.55231823     0.00022456    -0.00036218    -0.00137323
H         0.85369006    -0.04166001     1.83957276     0.00108574     0.00082129     0.00089688
H        -0.93591723    -0.02656475     1.86785375     0.00130511     0.00027553    -0.00067346
H        -0.98190268     0.12877696    -0.61896995     0.00086417    -0.00006310    -0.00036270
     6
  Step:    16            Position(A)                                  Velocity(au)
C        -0.04607626     0.01182239     0.00231325    -0.00007263     0.00011579    -0.00031084
N        -0.04205893    -0.06256072     1.31952500    -0.00018711    -0.00014836     0.00037489
H         0.96661672    -0.00751831    -0.55982120     0.00013784    -0.00036730    -0.00137039
H         0.85954221    -0.03713142     1.84453327     0.00104285     0.00083703     0.00091045
H        -0.92856379    -0.02507137     1.86412025     0.00136979     0.00027207    -0.00068213
H        -0.97702924     0.12843945    -0.62094577     0.00091496    -0.00005988    -0.00036359
     6
  Step:    17            Position(A)                                  Velocity(au)
C        -0.04646175     0.01246058     0.00054236    -0.00006767     0.00011761    -0.00033551
N        -0.04307951    -0.06337820     1.32163321    -0.00018396    -0.00015075     0.00039477
H         0.96712324    -0.00953892    -0.56728718     0.00004476    -0.00037227    -0.00135774
H         0.86508125    -0.03251706     1.84951766     0.00097067     0.00085114     0.00090484
H        -0.92095483    -0.02359286     1.86040272     0.00139458     0.00026983    -0.00066544
H        -0.97190851     0.12812294    -0.62294144     0.00095261    -0.00005523    -0.00036966
     6
  Step:    18            Position(A)                                  Velocity(au)
C        -0.04681600     0.01310816    -0.00135459    -0.00006111     0.00011901    -0.00035624
N        -0.04407004    -0.06420875     1.32384070    -0.00017582    -0.00015287     0.00041034
H         0.96710608    -0.01158801    -0.57466428    -0.00005299    -0.00037706    -0.00133587
H         0.87015376    -0.02782657     1.85442513     0.00087204     0.00086326     0.00088162
H        -0.91331808    -0.02212150     1.85684551     0.00137627     0.00026916    -0.00062167
H        -0.96661513     0.12783565    -0.62498693     0.00097599    -0.00004904    -0.00038138
     6
  Step:    19            Position(A)                                  Velocity(au)
C        -0.04713042     0.01376278    -0.00335552    -0.00005305     0.00011997    -0.00037280
N        -0.04500324    -0.06505091     1.32612302    -0.00016279    -0.00015472     0.00042128
H         0.96654342    -0.01366458    -0.58190393    -0.00015371    -0.00038165    -0.00130554
H         0.87462293    -0.02307149     1.85916407     0.00075038     0.00087315     0.00084272
H        -0.90589600    -0.02064782     1.85360061     0.00131323     0.00027036    -0.00055006
H        -0.96122950     0.12758631    -0.62711445     0.00098431    -0.00004125    -0.00039910
     6
  Step:    20            Position(A)                                  Velocity(au)
C        -0.04739696     0.01442196    -0.00543727    -0.00004359     0.00012047    -0.00038507
N        -0.04585282    -0.06590316     1.32845426    -0.00014517    -0.00015630     0.00042743
H         0.96542274    -0.01576759    -0.58896177    -0.00025571    -0.00038607    -0.00126766
H         0.87837152    -0.01826436     1.86365406     0.00060952     0.00088073     0.00079037
H        -0.89893634    -0.01916065     1.85082163     0.00120570     0.00027372    -0.00045107
H        -0.95583561     0.12738392    -0.62935759     0.00097720    -0.00003182    -0.00042294
     6
  Step:    21            Position(A)                                  Velocity(au)
C        -0.04760822     0.01508320    -0.00757619    -0.00003289     0.00012053    -0.00039305
N        -0.04659445    -0.06676406     1.33080801    -0.00012342    -0.00015763     0.00042883
H         0.96374061    -0.01789618    -0.59579845    -0.00035739    -0.00039038    -0.00122325
H         0.88130369    -0.01341802     1.86782709     0.00045349     0.00088606     0.00072696
H        -0.89268057    -0.01764760     1.84865656     0.00105606     0.00027941    -0.00032648
H        -0.95051865     0.12723754    -0.63175022     0.00095473    -0.00002077    -0.00045287
     6
  Step:    22            Position(A)                                  Velocity(au)
C        -0.04775771     0.01574408    -0.00974879    -0.00002111     0.00012017    -0.00039681
N        -0.04720669    -0.06763226     1.33315828    -0.00009815    -0.00015873     0.00042564
H         0.96150231    -0.02004985    -0.60238019    -0.00045724    -0.00039467    -0.00117337
H         0.88334604    -0.00854477     1.87162845     0.00028642     0.00088930     0.00065497
H        -0.88735193    -0.01609561     1.84724034     0.00086884     0.00028748    -0.00017941
H        -0.94536271     0.12715608    -0.63432534     0.00091737    -0.00000815    -0.00048859
     6
  Step:    23            Position(A)                                  Velocity(au)
C        -0.04783995     0.01640234    -0.01193220    -0.00000846     0.00011942    -0.00039654
N        -0.04767190    -0.06850655     1.33548040    -0.00007013    -0.00015964     0.00041818
H         0.95872128    -0.02222865    -0.60867903    -0.00055385    -0.00039905    -0.00111908
H         0.88444783    -0.00365579     1.87501700     0.00011239     0.00089071     0.00057686
H        -0.88314287    -0.01449180     1.84668711     0.00065075     0.00029779    -0.00001430
H        -0.94044831     0.12714807    -0.63711367     0.00086600     0.00000595    -0.00052954
     6
  Step:    24            Position(A)                                  Velocity(au)
C        -0.04785067     0.01705590    -0.01410465     0.00000483     0.00011833    -0.00039246
N        -0.04797704    -0.06938581     1.33775184    -0.00004025    -0.00016035     0.00040690
H         0.95541850    -0.02443327    -0.61467278    -0.00064591    -0.00040361    -0.00106139
H         0.88458062     0.00123930     1.87796500    -0.00006462     0.00089061     0.00049501
H        -0.88020369    -0.01282453     1.84708326     0.00041028     0.00031000     0.00016327
H        -0.93585008     0.12722143    -0.64014216     0.00080190     0.00002137    -0.00057490
     6
  Step:    25            Position(A)                                  Velocity(au)
C        -0.04778689     0.01770289    -0.01624573     0.00001852     0.00011692    -0.00038482
N        -0.04811426    -0.07026899     1.33995271    -0.00000948    -0.00016088     0.00039230
H         0.95162201    -0.02666472    -0.62034483    -0.00073220    -0.00040844    -0.00100124
H         0.88373758     0.00613300     1.88045774    -0.00024077     0.00088935     0.00041175
H        -0.87863343    -0.01108460     1.84848167     0.00015729     0.00032358     0.00034691
H        -0.93163455     0.12738298    -0.64343240     0.00072666     0.00003796    -0.00062353
     6
  Step:    26            Position(A)                                  Velocity(au)
C        -0.04764703     0.01834170    -0.01833654     0.00003235     0.00011524    -0.00037389
N        -0.04808130    -0.07115501     1.34206603     0.00002114    -0.00016120     0.00037490
H         0.94736630    -0.02892501    -0.62568359    -0.00081157    -0.00041369    -0.00093946
H         0.88193283     0.01101965     1.88249305    -0.00041231     0.00088725     0.00032927
H        -0.87847390    -0.00926603     1.85089829    -0.00009759     0.00033785     0.00052973
H        -0.92785888     0.12763890    -0.64699927     0.00064211     0.00005555    -0.00067408
     6
  Step:    27            Position(A)                                  Velocity(au)
C        -0.04743098     0.01897089    -0.02035978     0.00004603     0.00011331    -0.00035997
N        -0.04788162    -0.07204271     1.34407789     0.00005059    -0.00016129     0.00035525
H         0.94269209    -0.03121667    -0.63068204    -0.00088287    -0.00041942    -0.00087683
H         0.87920086     0.01589572     1.88408078    -0.00057556     0.00088468     0.00024972
H        -0.87970719    -0.00736708     1.85431045    -0.00034362     0.00035196     0.00070476
H        -0.92456924     0.12799426    -0.65084950     0.00055034     0.00007393    -0.00072491
     6
  Step:    28            Position(A)                                  Velocity(au)
C        -0.04714019     0.01958924    -0.02229980     0.00005929     0.00011117    -0.00034336
N        -0.04752429    -0.07293075     1.34597726     0.00007789    -0.00016111     0.00033384
H         0.93764606    -0.03354274    -0.63533729    -0.00094501    -0.00042569    -0.00081402
H         0.87559606     0.02075979     1.88524241    -0.00072692     0.00088198     0.00017517
H        -0.88225711    -0.00539096     1.85865762    -0.00057067     0.00036498     0.00086539
H        -0.92179971     0.12845288    -0.65498045     0.00045363     0.00009285    -0.00077423
     6
  Step:    29            Position(A)                                  Velocity(au)
C        -0.04677774     0.02019569    -0.02414261     0.00007182     0.00010885    -0.00032435
N        -0.04702355    -0.07381763     1.34775580     0.00010213    -0.00016062     0.00031111
H         0.93228077    -0.03590658    -0.63965022    -0.00099694    -0.00043255    -0.00075172
H         0.87119230     0.02561265     1.88601067    -0.00086289     0.00087956     0.00010763
H        -0.88599429    -0.00334601     1.86384456    -0.00076980     0.00037597     0.00100574
H        -0.91957151     0.12901720    -0.65937928     0.00035438     0.00011204    -0.00082010
     6
  Step:    30            Position(A)                                  Velocity(au)
C        -0.04634830     0.02078934    -0.02587590     0.00008334     0.00010637    -0.00030326
N        -0.04639822    -0.07470163     1.34940744     0.00012258    -0.00015979     0.00028747
H         0.92665433    -0.03831183    -0.64362533    -0.00103768    -0.00044003    -0.00069056
H         0.86608230     0.03045737     1.88642908    -0.00098014     0.00087782     0.00004899
H        -0.89074451    -0.00124565     1.86974637    -0.00093385     0.00038406     0.00112104
H        -0.91789253     0.12968820    -0.66402249     0.00025503     0.00013124    -0.00086060
     6
  Step:    31            Position(A)                                  Velocity(au)
C        -0.04585811     0.02136946    -0.02748910     0.00009356     0.00010376    -0.00028043
N        -0.04567083    -0.07558092     1.35092800     0.00013866    -0.00015861     0.00026321
H         0.92082989    -0.04076234    -0.64727063    -0.00106644    -0.00044817    -0.00063122
H         0.86037643     0.03529949     1.88655133    -0.00107567     0.00087725     0.00000102
H        -0.89629938     0.00089214     1.87621530    -0.00105780     0.00038851     0.00120791
H        -0.91675729     0.13046540    -0.66887602     0.00015800     0.00015017    -0.00089388
     6
  Step:    32            Position(A)                                  Velocity(au)
C        -0.04531484     0.02193548    -0.02897343     0.00010513     0.00010253    -0.00029219
N        -0.04486658    -0.07645362     1.35231482     0.00014930    -0.00015954     0.00026457
H         0.91487471    -0.04326224    -0.65059759    -0.00111726    -0.00051336    -0.00053978
H         0.85420073     0.04014723     1.88644030    -0.00115981     0.00094775    -0.00004363
H        -0.90242872     0.00304572     1.88308859    -0.00113130     0.00032942     0.00126282
H        -0.91614735     0.13134696    -0.67389603     0.00008082     0.00023154    -0.00087435
     6
  Step:    33            Position(A)                                  Velocity(au)
C        -0.04469565     0.02250316    -0.03072001     0.00011764     0.00010280    -0.00034297
N        -0.04401989    -0.07734505     1.35385357     0.00015428    -0.00016260     0.00029545
H         0.90847552    -0.04643888    -0.65323935    -0.00118874    -0.00062527    -0.00041393
H         0.84755159     0.04577950     1.88606883    -0.00123198     0.00107833    -0.00008709
H        -0.90880899     0.00453477     1.89017921    -0.00115072     0.00021561     0.00128074
H        -0.91586361     0.13302570    -0.67854435     0.00002562     0.00036593    -0.00079867
     6
  Step:    34            Position(A)                                  Velocity(au)
C        -0.04401240     0.02307367    -0.03277065     0.00012784     0.00010310    -0.00039724
N        -0.04315843    -0.07825386     1.35558597     0.00015427    -0.00016529     0.00033042
H         0.90171331    -0.05018499    -0.65518049    -0.00124312    -0.00072157    -0.00028916
H         0.84056070     0.05208620     1.88547610    -0.00127739     0.00119325    -0.00012075
H        -0.91516907     0.00543286     1.89726857    -0.00112447     0.00011183     0.00126266
H        -0.91586372     0.13539839    -0.68273860    -0.00002230     0.00048491    -0.00071100
     6
  Step:    35            Position(A)                                  Velocity(au)
C        -0.04327816     0.02364631    -0.03512446     0.00013556     0.00010320    -0.00044974
N        -0.04230936    -0.07917772     1.35751721     0.00014947    -0.00016750     0.00036498
H         0.89469210    -0.05443950    -0.65644547    -0.00127719    -0.00080761    -0.00017101
H         0.83338818     0.05901000     1.88472995    -0.00129260     0.00129867    -0.00014105
H        -0.92127688     0.00577470     1.90417925    -0.00105918     0.00001379     0.00121475
H        -0.91611089     0.13840228    -0.68642769    -0.00006362     0.00059309    -0.00061559
     6
  Step:    36            Position(A)                                  Velocity(au)
C        -0.04250695     0.02421972    -0.03776517     0.00014067     0.00010301    -0.00049829
N        -0.04149845    -0.08011397     1.35963926     0.00014025    -0.00016920     0.00039725
H         0.88752962    -0.05915382    -0.65707959    -0.00128906    -0.00088516    -0.00006285
H         0.82620580     0.06650849     1.88390963    -0.00127659     0.00139676    -0.00014658
H        -0.92693175     0.00558601     1.91075885    -0.00096099    -0.00007950     0.00114173
H        -0.91657025     0.14198486    -0.68957503    -0.00009870     0.00069182    -0.00051498
     6
  Step:    37            Position(A)                                  Velocity(au)
C        -0.04171337     0.02479217    -0.04066742     0.00014313     0.00010251    -0.00054163
N        -0.04074921    -0.08105993     1.36193617     0.00012712    -0.00017045     0.00042611
H         0.88035277    -0.06428595    -0.65714456    -0.00127776    -0.00095541     0.00003269
H         0.81918752     0.07454744     1.88309941    -0.00123010     0.00148895    -0.00013701
H        -0.93196677     0.00489034     1.91687973    -0.00083640    -0.00016825     0.00104843
H        -0.91720880     0.14609802    -0.69215627    -0.00012793     0.00078192    -0.00041139
     6
  Step:    38            Position(A)                                  Velocity(au)
C        -0.04091217     0.02536187    -0.04380004     0.00014300     0.00010171    -0.00057904
N        -0.04008206    -0.08201314     1.36438696     0.00011073    -0.00017132     0.00045093
H         0.87329275    -0.06979900    -0.65671532    -0.00124321    -0.00101948     0.00011361
H         0.81249999     0.08309844     1.88238308    -0.00115554     0.00157653    -0.00011298
H        -0.93625092     0.00371137     1.92244047    -0.00069215    -0.00025242     0.00093983
H        -0.91799566     0.15069699    -0.69415877    -0.00015181     0.00086415    -0.00030693
     6
  Step:    39            Position(A)                                  Velocity(au)
C        -0.04011776     0.02592714    -0.04712866     0.00014039     0.00010068    -0.00061029
N        -0.03951368    -0.08297160     1.36696790     0.00009180    -0.00017193     0.00047151
H         0.86648038    -0.07566181    -0.65587684    -0.00118615    -0.00107869     0.00017854
H         0.80629340     0.09213908     1.88183877    -0.00105685     0.00166085    -0.00007598
H        -0.93969014     0.00207367     1.92736678    -0.00053481    -0.00033204     0.00082085
H        -0.91890271     0.15574058    -0.69558114    -0.00017089     0.00093944    -0.00020348
     6
  Step:    40            Position(A)                                  Velocity(au)
C        -0.03934377     0.02648665    -0.05061810     0.00013552     0.00009949    -0.00063553
N        -0.03905644    -0.08393392     1.36965458     0.00007114    -0.00017243     0.00048796
H         0.86004129    -0.08184999    -0.65472067    -0.00110800    -0.00113459     0.00022682
H         0.80069298     0.10165323     1.88153429    -0.00093908     0.00174341    -0.00002818
H        -0.94222580     0.00000191     1.93161090    -0.00037048    -0.00040720     0.00069613
H        -0.91990483     0.16119226    -0.69643197    -0.00018587     0.00100899    -0.00010264
     6
  Step:    41            Position(A)                                  Velocity(au)
C        -0.03860256     0.02703956    -0.05423448     0.00012864     0.00009825    -0.00065526
N        -0.03871831    -0.08489950     1.37242373     0.00004949    -0.00017297     0.00050069
H         0.85409196    -0.08834746    -0.65334080    -0.00101076    -0.00118887     0.00025847
H         0.79579363     0.11163193     1.88152368    -0.00080795     0.00182574     0.00002776
H        -0.94383246    -0.00247920     1.93515013    -0.00020454    -0.00047819     0.00056980
H        -0.92098086     0.16702193    -0.69672879    -0.00019749     0.00107424    -0.00000571
     6
  Step:    42            Position(A)                                  Velocity(au)
C        -0.03790494     0.02758556    -0.05794692     0.00012005     0.00009705    -0.00067011
N        -0.03850290    -0.08586852     1.37525457     0.00002760    -0.00017368     0.00051021
H         0.84873630    -0.09514714    -0.65182972    -0.00089672    -0.00124323     0.00027413
H         0.79165636     0.12207351     1.88184478    -0.00066946     0.00190910     0.00008892
H        -0.94451347    -0.00534652     1.93798391    -0.00004145    -0.00054551     0.00044530
H        -0.92211372     0.17320732    -0.69649581    -0.00020646     0.00113669     0.00008651
     6
  Step:    43            Position(A)                                  Velocity(au)
C        -0.03726006     0.02812488    -0.06172839     0.00011001     0.00009597    -0.00068077
N        -0.03840966    -0.08684175     1.37812954     0.00000613    -0.00017463     0.00051711
H         0.84406384    -0.10225067    -0.65027518    -0.00076831    -0.00129913     0.00027487
H         0.78830694     0.13298173     1.88251804    -0.00052954     0.00199433     0.00015226
H        -0.94429598    -0.00857968     1.94013005     0.00011513    -0.00060973     0.00032543
H        -0.92328977     0.17973371    -0.69576128    -0.00021339     0.00119771     0.00017357
     6
  Step:    44            Position(A)                                  Velocity(au)
C        -0.03667539     0.02865816    -0.06555589     0.00009880     0.00009504    -0.00068786
N        -0.03843439    -0.08782030     1.38103430    -0.00001432    -0.00017583     0.00052186
H         0.84014894    -0.10966745    -0.64875753    -0.00062804    -0.00135768     0.00026215
H         0.78573775     0.14436401     1.88354658    -0.00039367     0.00208163     0.00021481
H        -0.94322665    -0.01216145     1.94162119     0.00026217    -0.00067142     0.00021237
H        -0.92449878     0.18659400    -0.69455578    -0.00021882     0.00125846     0.00025524
     6