     6
  Step:   600            Position(A)                                  Velocity(au)
C         0.04919414    -0.15217511    -0.07111545    -0.00056748     0.00027810    -0.00007730
N        -0.12851670     0.08613488     1.36926616     0.00013468    -0.00049500    -0.00091464
H        -0.11558193    -1.09338753    -0.84997407     0.00360701    -0.00275748     0.00687223
H        -0.52164268     1.03557295     1.73177791    -0.00044962     0.00622371     0.00469930
H         0.30129326    -0.79058774     1.91004679    -0.00003691    -0.00333055     0.00075964
H         0.32313397     0.79545818    -0.08042966     0.00177014     0.00342926     0.00130012
