 Fermi distribution function

Calculation with static geometry


********************************************************************************
 iSCC Total electronic   Diff electronic      SCC error    
    9   -0.54348557E+01   -0.42683190E-10    0.85341148E-06
********************************************************************************

 Total charge:     1.00000000

 Atomic gross charges (e)
 Atom           Charge
    1       0.25584945
    2      -0.14325487
    3       0.16353447
    4       0.29477373
    5       0.29342263
    6       0.13567459

Nr. of electrons (up):     12.00000000
Atom populations (up)
 Atom       Population
    1       3.74415055
    2       5.14325487
    3       0.83646553
    4       0.70522627
    5       0.70657737
    6       0.86432541

l-shell populations (up)
 Atom Sh.   l       Population
    1   1   0       1.27346973
    1   2   1       2.47068083
    2   1   0       1.39198922
    2   2   1       3.75126565
    3   1   0       0.83646553
    4   1   0       0.70522627
    5   1   0       0.70657737
    6   1   0       0.86432541

Orbital populations (up)
 Atom Sh.   l   m       Population  Label
    1   1   0   0       1.27346973  s
    1   2   1  -1       0.58625353  p_y
    1   2   1   0       0.90154159  p_z
    1   2   1   1       0.98288571  p_x
    2   1   0   0       1.39198922  s
    2   2   1  -1       1.35185841  p_y
    2   2   1   0       1.08573080  p_z
    2   2   1   1       1.31367644  p_x
    3   1   0   0       0.83646553  s
    4   1   0   0       0.70522627  s
    5   1   0   0       0.70657737  s
    6   1   0   0       0.86432541  s

Fermi level:                        -0.4768366342 H          -12.9754 eV
Band energy:                        -8.9381851936 H         -243.2204 eV
TS:                                  0.0000000000 H            0.0000 eV
Band free energy (E-TS):            -8.9381851936 H         -243.2204 eV
Extrapolated E(0K):                 -8.9381851936 H         -243.2204 eV
Input / Output electrons (q):     12.0000000000     12.0000000000

Energy H0:                          -5.5677491710 H         -151.5062 eV
Energy SCC:                          0.1328934541 H            3.6162 eV
Total Electronic energy:            -5.4348557168 H         -147.8899 eV
Repulsive energy:                    0.2326325349 H            6.3303 eV
Total energy:                       -5.2022231820 H         -141.5597 eV
Extrapolated to 0:                  -5.2022231820 H         -141.5597 eV
Total Mermin free energy:           -5.2022231820 H         -141.5597 eV
Force related energy:               -5.2022231820 H         -141.5597 eV

SCC converged

Excitation Energy:                   0.1001838096 H            2.7261 eV

Total Forces
    1      0.007590351164     -0.001903830199     -0.057934804564
    2     -0.006515116076     -0.002031962518      0.052206848109
    3     -0.004165467605     -0.012488444854     -0.000197355293
    4     -0.007087372441      0.011193106244      0.004030564332
    5      0.010466343014     -0.010072535966     -0.001462128213
    6     -0.000288738056      0.015303667291      0.003356875630

Maximal derivative component:        0.579348E-01 au


