 Fermi distribution function

Calculation with static geometry


********************************************************************************
 iSCC Total electronic   Diff electronic      SCC error    
   10   -0.54540834E+01   -0.35527137E-13    0.12957351E-07
********************************************************************************

 Total charge:     1.00000000

 Atomic gross charges (e)
 Atom           Charge
    1       0.16079043
    2      -0.02643298
    3       0.16341724
    4       0.26791506
    5       0.27083392
    6       0.16347633

Nr. of electrons (up):     12.00000000
Atom populations (up)
 Atom       Population
    1       3.83920957
    2       5.02643298
    3       0.83658276
    4       0.73208494
    5       0.72916608
    6       0.83652367

l-shell populations (up)
 Atom Sh.   l       Population
    1   1   0       1.30087637
    1   2   1       2.53833320
    2   1   0       1.42471487
    2   2   1       3.60171810
    3   1   0       0.83658276
    4   1   0       0.73208494
    5   1   0       0.72916608
    6   1   0       0.83652367

Orbital populations (up)
 Atom Sh.   l   m       Population  Label
    1   1   0   0       1.30087637  s
    1   2   1  -1       0.60437511  p_y
    1   2   1   0       0.88261388  p_z
    1   2   1   1       1.05134421  p_x
    2   1   0   0       1.42471487  s
    2   2   1  -1       1.34617564  p_y
    2   2   1   0       1.10010155  p_z
    2   2   1   1       1.15544092  p_x
    3   1   0   0       0.83658276  s
    4   1   0   0       0.73208494  s
    5   1   0   0       0.72916608  s
    6   1   0   0       0.83652367  s

Fermi level:                        -0.4921948537 H          -13.3933 eV
Band energy:                        -9.0028992339 H         -244.9814 eV
TS:                                  0.0000000000 H            0.0000 eV
Band free energy (E-TS):            -9.0028992339 H         -244.9814 eV
Extrapolated E(0K):                 -9.0028992339 H         -244.9814 eV
Input / Output electrons (q):     12.0000000000     12.0000000000

Energy H0:                          -5.5886183422 H         -152.0740 eV
Energy SCC:                          0.1345349523 H            3.6609 eV
Total Electronic energy:            -5.4540833899 H         -148.4132 eV
Repulsive energy:                    0.2034696940 H            5.5367 eV
Total energy:                       -5.2506136959 H         -142.8765 eV
Extrapolated to 0:                  -5.2506136959 H         -142.8765 eV
Total Mermin free energy:           -5.2506136959 H         -142.8765 eV
Force related energy:               -5.2506136959 H         -142.8765 eV

SCC converged

Excitation Energy:                   0.1786653804 H            4.8617 eV

Total Forces
    1     -0.004352580259      0.017470952561     -0.015868091110
    2     -0.013136710913     -0.006545311959      0.002697983004
    3      0.000481337216     -0.004900233890      0.000390847933
    4      0.005122286478      0.000477180149      0.008318510514
    5      0.008049400266     -0.000650749599      0.000869785609
    6      0.003836267212     -0.005851837262      0.003590964050

Maximal derivative component:        0.174710E-01 au


