|===============================================================================
|
|  DFTB+ release 20.1
|
|  Copyright (C) 2006 - 2020  DFTB+ developers group
|
|===============================================================================
|
|  When publishing results obtained with DFTB+, please cite the following
|  reference:
|
|  * DFTB+, a software package for efficient approximate density functional
|    theory based atomistic simulations, J. Chem. Phys. 152, 124101 (2020).
|    [doi: 10.1063/1.5143190]
|
|  You should also cite additional publications crediting the parametrization
|  data you use. Please consult the documentation of the SK-files for the
|  references.
|
|===============================================================================

Reading input file 'dftb_in.hsd'
Parser version: 8

--------------------------------------------------------------------------------
Reading SK-files:
Done.


Processed input in HSD format written to 'dftb_pin.hsd'

Starting initialization...
--------------------------------------------------------------------------------
OpenMP threads:              1
Chosen random seed:          498843513
Mode:                        Static calculation
Self consistent charges:     Yes
SCC-tolerance:                 0.100000E-05
Max. scc iterations:                   1000
Shell resolved Hubbard:      No
Spin polarisation:           No
Nr. of up electrons:            16.000000
Nr. of down electrons:          16.000000
Periodic boundaries:         No
Electronic solver:           Relatively robust
Maximal SCC-cycles:                    1000
Initial charges:             Set automatically (system chrg:   0.100E+01)
Included shells:             C:  s, p
                             H:  s
                             N:  s, p
Spin coupling constants:     C   1(s)-1(s):  -0.455900E-01
                             C   1(s)-2(p):  -0.293000E-01
                             C   2(p)-1(s):  -0.293000E-01
                             C   2(p)-2(p):  -0.275500E-01
                             H   1(s)-1(s):  -0.792500E-01
                             N   1(s)-1(s):  -0.468700E-01
                             N   1(s)-2(p):  -0.317000E-01
                             N   2(p)-1(s):  -0.317000E-01
                             N   2(p)-2(p):  -0.307200E-01
Range separated hybrid:      Yes
  Screening parameter omega:   0.300000E+00
  Range separated algorithm:   MatrixBased
Extra options:
                             Mulliken analysis
                             Force calculation
Force type                   original
                             Eigenvector printing


REKS Calcuation:             Yes
SSR(2,2) Calcuation:         Yes
Energy Functional:           (PPS+OSS)/2
Number of Core Orbitals:                 15
Number of Active Orbitals:                2
Number of Basis:                         32
Number of States:                         2
State-Averaging Weight:          0.500000
                                 0.500000
State of Interest:                        1
Initial Guess:               Diagonalize H0 matrix
Newton-Raphson for FON opt:  Yes
NR max. Iterations:                      50
Level Shifting:              Yes
Shift Value:                     0.300000
W Scale Factor:              C  =    3.200000
                             H  =    3.200000
                             N  =    3.200000
Transition Dipole:           No
Gradient of Microstate:      No
CP-REKS Solver:              Preconditioned Conjugate-Gradient
CG max. Iterations:                     100
CG Tolerance:                  0.100000E-07
Memory for A and Hxc:        Direct Updating Without Saving
Non-Adiabatic Coupling:      Yes

--------------------------------------------------------------------------------

***  Geometry step: 0

  iSCC       reks energy        Diff energy         x_a       SCC error   
    1      -16.4093691750       0.0000000000     0.991173    1.24449012
    2      -16.4299169171      -0.0205477422     0.998455    0.06408186
    3      -16.4339297278      -0.0040128107     0.999363    0.02008599
    4      -16.4353429895      -0.0014132616     0.999626    0.00853585
    5      -16.4359549315      -0.0006119420     0.999736    0.00520880
    6      -16.4362480386      -0.0002931072     0.999792    0.00402856
    7      -16.4363978943      -0.0001498556     0.999824    0.00313226
    8      -16.4364782312      -0.0000803370     0.999844    0.00244895
    9      -16.4365230245      -0.0000447933     0.999856    0.00192530
   10      -16.4365489239      -0.0000258994     0.999865    0.00152185
   11      -16.4365644425      -0.0000155186     0.999871    0.00120942
   12      -16.4365740762      -0.0000096337     0.999875    0.00096631
   13      -16.4365802667      -0.0000061905     0.999878    0.00077625
   14      -16.4365843764      -0.0000041098     0.999880    0.00062697
   15      -16.4365871869      -0.0000028105     0.999882    0.00050916
   16      -16.4365891594      -0.0000019725     0.999883    0.00041574
   17      -16.4365905747      -0.0000014153     0.999884    0.00034128
   18      -16.4365916088      -0.0000010341     0.999885    0.00028164
   19      -16.4365923758      -0.0000007669     0.999885    0.00023361
   20      -16.4365929513      -0.0000005755     0.999886    0.00019473
   21      -16.4365933873      -0.0000004360     0.999886    0.00016310
   22      -16.4365937201      -0.0000003328     0.999887    0.00013723
   23      -16.4365939756      -0.0000002555     0.999887    0.00011596
   24      -16.4365941728      -0.0000001971     0.999887    0.00009839
   25      -16.4365943254      -0.0000001527     0.999887    0.00008381
   26      -16.4365944440      -0.0000001186     0.999887    0.00007213
   27      -16.4365945364      -0.0000000923     0.999887    0.00006375
   28      -16.4365946084      -0.0000000721     0.999888    0.00005637
   29      -16.4365946647      -0.0000000563     0.999888    0.00004987
   30      -16.4365947088      -0.0000000441     0.999888    0.00004414
   31      -16.4365947434      -0.0000000345     0.999888    0.00003908
   32      -16.4365947705      -0.0000000271     0.999888    0.00003460
   33      -16.4365947917      -0.0000000213     0.999888    0.00003065
   34      -16.4365948085      -0.0000000167     0.999888    0.00002715
   35      -16.4365948216      -0.0000000131     0.999888    0.00002406
   36      -16.4365948319      -0.0000000103     0.999888    0.00002132
   37      -16.4365948401      -0.0000000081     0.999888    0.00001889
   38      -16.4365948465      -0.0000000064     0.999888    0.00001674
   39      -16.4365948515      -0.0000000050     0.999888    0.00001484
   40      -16.4365948555      -0.0000000040     0.999888    0.00001315
   41      -16.4365948586      -0.0000000031     0.999888    0.00001166
   42      -16.4365948611      -0.0000000025     0.999888    0.00001034
   43      -16.4365948631      -0.0000000020     0.999888    0.00000916
   44      -16.4365948646      -0.0000000015     0.999888    0.00000812
   45      -16.4365948658      -0.0000000012     0.999888    0.00000720
   46      -16.4365948668      -0.0000000010     0.999888    0.00000638
   47      -16.4365948675      -0.0000000008     0.999888    0.00000566
   48      -16.4365948681      -0.0000000006     0.999888    0.00000502
   49      -16.4365948686      -0.0000000005     0.999888    0.00000445
   50      -16.4365948690      -0.0000000004     0.999888    0.00000394
   51      -16.4365948693      -0.0000000003     0.999888    0.00000349
   52      -16.4365948695      -0.0000000002     0.999888    0.00000310
   53      -16.4365948697      -0.0000000002     0.999888    0.00000275
   54      -16.4365948698      -0.0000000001     0.999888    0.00000243
   55      -16.4365948700      -0.0000000001     0.999888    0.00000216
   56      -16.4365948700      -0.0000000001     0.999888    0.00000191
   57      -16.4365948701      -0.0000000001     0.999888    0.00000169
   58      -16.4365948702      -0.0000000001     0.999888    0.00000150
   59      -16.4365948702      -0.0000000000     0.999888    0.00000133
   60      -16.4365948703      -0.0000000000     0.999888    0.00000118
   61      -16.4365948703      -0.0000000000     0.999888    0.00000105
   62      -16.4365948703      -0.0000000000     0.999888    0.00000093
  
--------------------------------------------------
 Final SA-REKS(2,2) energy:     -16.43659487
  
 State     Energy      FON(1)    FON(2)   Spin
  PPS  -16.49977763   1.999776  0.000224  0.00
  OSS  -16.37341211   1.000000  1.000000  0.00
 Trip  -16.42175217   1.000000  1.000000  1.00
--------------------------------------------------

 Lagrangian Wab:  -0.01253458 -0.01253583

--------------------------------------------------
 SSR: 2SI-2SA-REKS(2,2) Hamiltonian matrix
               PPS           OSS
   PPS   -16.49977763   -0.01753816
   OSS    -0.01753816  -16.37341211
--------------------------------------------------

----------------------------------------------------------------
 SSR: 2SI-2SA-REKS(2,2) states
                    E_n       C_{PPS}    C_{OSS}
 SSR state  1  -16.50216657  -0.990850  -0.134968
 SSR state  2  -16.37102317   0.134968  -0.990850
----------------------------------------------------------------

 unrelaxed SSR FONs for S0:  1.981564  0.018436

Total Energy:                      -16.5021665750 H         -449.0468 eV
Extrapolated to 0:                 -16.5021665750 H         -449.0468 eV

----------------------------------------------------------------------------------
 Solving CP-REKS equation for  1 state vector...
----------------------------------------------------------------------------------
  CG solver: Constructing Y initial guess
  CG solver: Iteration    1    eps =    0.003717878193
  CG solver: Iteration    2    eps =    0.000722846884
  CG solver: Iteration    3    eps =    0.000029870442
  CG solver: Iteration    4    eps =    0.000015993000
  CG solver: Iteration    5    eps =    0.000002290889
  CG solver: Iteration    6    eps =    0.000002007507
  CG solver: Iteration    7    eps =    0.000000197330
  CG solver: Iteration    8    eps =    0.000000037635
  CG solver: Iteration    9    eps =    0.000000014931
  CG solver: Iteration   10    eps =    0.000000001477
  Convergence reached in CG solver after   10 iterations
  CG solver: Calculating converged R, Z, Q2 matrix
----------------------------------------------------------------------------------

----------------------------------------------------------------------------------
 Solving CP-REKS equation for SI between  1 and  2 state vectors...
----------------------------------------------------------------------------------
  CG solver: Constructing Y initial guess
  CG solver: Iteration    1    eps =    0.052965225132
  CG solver: Iteration    2    eps =    0.005445709269
  CG solver: Iteration    3    eps =    0.001696855166
  CG solver: Iteration    4    eps =    0.000131692916
  CG solver: Iteration    5    eps =    0.000021945440
  CG solver: Iteration    6    eps =    0.000014994577
  CG solver: Iteration    7    eps =    0.000005407083
  CG solver: Iteration    8    eps =    0.000000855799
  CG solver: Iteration    9    eps =    0.000000426416
  CG solver: Iteration   10    eps =    0.000000020171
  CG solver: Iteration   11    eps =    0.000000001919
  Convergence reached in CG solver after   11 iterations
  CG solver: Calculating converged R, Z, Q2 matrix
----------------------------------------------------------------------------------

--------------------------------------------------
 Gradient Information
--------------------------------------------------
           1 st state (SSR)
    -0.00751598    -0.00165182    -0.03582545
     0.01777319    -0.01887673    -0.05838062
     0.00481661     0.00506835     0.01242525
     0.01737724     0.00047116     0.01004074
    -0.00685648     0.02315071     0.03812719
    -0.04562141     0.01423905     0.11361624
     0.07641999     0.04283364     0.00708872
    -0.00764938    -0.03288526    -0.05405530
    -0.00642598    -0.00496446    -0.01433991
     0.04280445    -0.00504171     0.01405785
     0.00262388     0.01054951    -0.02744884
    -0.11578120    -0.02348385    -0.00081118
     0.02989426    -0.01568470     0.00234984
    -0.00185920     0.00627610    -0.00684454

           2 st state (SSR)
     0.03245914     0.02609838    -0.02680719
    -0.04556792    -0.05547125    -0.03561264
     0.00545464     0.00533467     0.01313441
     0.01364416     0.00425105     0.00620851
    -0.00689350     0.02342610     0.03751845
     0.07412930     0.07427149     0.08205747
    -0.02501948    -0.01695775    -0.01677440
    -0.00658320    -0.03394672    -0.05305831
    -0.00390283    -0.00763528    -0.01120466
     0.09788624     0.03394237     0.02351503
     0.00382443     0.00602213    -0.02259324
    -0.16808663    -0.05452226     0.00899053
     0.02912197    -0.00515227     0.00123938
    -0.00046633     0.00033934    -0.00661332
--------------------------------------------------
 Coupling Information
--------------------------------------------------
 between  1 and  2 states
--------------------------------------------------
 g vector - difference gradient
    -0.02253410    -0.01610114    -0.00392203
     0.04155243     0.01840908    -0.01751263
    -0.00000746    -0.00016942     0.00002066
     0.00155697    -0.00165972     0.00132961
     0.00026250    -0.00059327     0.00045303
    -0.08796541    -0.03580235     0.02358871
     0.07461684     0.04470782     0.01934902
    -0.00028707     0.00061842    -0.00054315
    -0.00076108     0.00105310    -0.00106444
    -0.02976918    -0.02333315    -0.01640194
    -0.00028521     0.00110530    -0.00123388
     0.02353132     0.01275974    -0.00381420
     0.00068890    -0.00486370     0.00081939
    -0.00059944     0.00386930    -0.00106815

 h vector - derivative coupling
     0.00645156     0.00612951    -0.00272928
    -0.03128637     0.00208950     0.02052831
    -0.00116584     0.00011250    -0.00140014
     0.00136950    -0.00108684     0.00237395
    -0.00087648     0.00162248    -0.00049409
     0.09304104     0.01675642    -0.02598440
    -0.07918266    -0.04928978    -0.02509680
    -0.00095894    -0.00024361     0.00009296
    -0.00197493     0.00119896    -0.00202630
     0.00427615     0.01118287     0.04141015
    -0.00121679     0.00448155    -0.00463190
     0.01300616     0.01205515    -0.00458233
    -0.00103809    -0.00216744    -0.00087602
    -0.00044430    -0.00284129     0.00341588

 G vector - GDV
    -0.01998756    -0.01387510    -0.00450913
     0.03167055     0.01829726    -0.01138399
    -0.00031901    -0.00013316    -0.00035458
     0.00186654    -0.00188994     0.00191612
     0.00001851    -0.00013769     0.00030437
    -0.05987535    -0.03001622     0.01577939
     0.05071974     0.02989569     0.01193156
    -0.00053309     0.00053073    -0.00049850
    -0.00126158     0.00133541    -0.00156762
    -0.02754090    -0.01949204    -0.00472859
    -0.00060027     0.00226369    -0.00242780
     0.02615272     0.01551920    -0.00490085
     0.00038614    -0.00526621     0.00055523
    -0.00069644     0.00296838    -0.00011561

 H vector - DCV - non-adiabatic coupling
     0.09336040     0.07787425    -0.01205425
    -0.31462019    -0.02219262     0.18654716
    -0.00855067     0.00117215    -0.01032954
     0.00688689    -0.00460048     0.01473073
    -0.00697521     0.01313105    -0.00455423
     0.86301721     0.19613515    -0.23902755
    -0.73396948    -0.45333447    -0.22385914
    -0.00646032    -0.00305115     0.00179075
    -0.01295844     0.00666154    -0.01271720
     0.09213262     0.12975308     0.33770990
    -0.00835863     0.03067364    -0.03151609
     0.04757006     0.06255109    -0.02588938
    -0.00903233    -0.00600565    -0.00810762
    -0.00204192    -0.02876758     0.02727645
--------------------------------------------------


--------------------------------------------------------------------------------
DFTB+ running times                          cpu [s]             wall clock [s]
--------------------------------------------------------------------------------
SCC                                    +     0.07  ( 20.8%)      0.07  ( 20.6%)
      Dense to sparse                        0.01  (  3.9%)      0.01  (  3.5%)
Post-SCC processing                    +     0.27  ( 78.7%)      0.27  ( 77.9%)
  Force calculation                          0.27  ( 78.7%)      0.27  ( 77.6%)
--------------------------------------------------------------------------------
Missing                                +     0.00  (  0.4%)      0.01  (  1.5%)
Total                                  =     0.34  (100.0%)      0.34  (100.0%)
--------------------------------------------------------------------------------
