     6
  Step:   120            Position(A)                                  Velocity(au)
C        -0.05025055     0.06554521     0.01521658    -0.00014675     0.00004220    -0.00022830
N        -0.03835928    -0.04795005     1.31596631     0.00006091    -0.00006877     0.00013905
H         0.84738844     0.15533989    -0.67156114     0.00049149     0.00141893     0.00055162
H         0.68195738    -0.63774551     1.81196652    -0.00073446    -0.00111257    -0.00011185
H        -0.84164018     0.29935338     1.88260133     0.00058351     0.00159302    -0.00003234
H        -0.76880104    -0.60143130    -0.59942685     0.00056167    -0.00144656     0.00038076
