     6
  Step:     0            Position(A)                                  Velocity(au)
C        -0.03041840     0.02226081     0.01521708     0.00004795    -0.00001859     0.00025627
N        -0.05023082    -0.04492944     1.29561251    -0.00007980     0.00003005    -0.00029626
H         0.88304237    -0.03364460    -0.52259006    -0.00038664     0.00009754     0.00060098
H         0.84619127    -0.21842400     1.89859980     0.00033000    -0.00023654     0.00036046
H        -0.87666504    -0.08717653     1.83756379     0.00076500     0.00002085     0.00035569
H        -1.00501368     0.02856064    -0.50714688    -0.00017083    -0.00007800    -0.00025391
     6
  Step:     1            Position(A)                                  Velocity(au)
C        -0.02997085     0.02209134     0.01757209     0.00003195    -0.00001211     0.00016934
N        -0.05083834    -0.04463029     1.29292339    -0.00003051     0.00002427    -0.00019046
H         0.88049015    -0.03262825    -0.51769995    -0.00006634     0.00008801     0.00028336
H         0.84793748    -0.22076981     1.90124442    -0.00001968    -0.00019008     0.00011205
H        -0.87039992    -0.08709188     1.84300913     0.00037456    -0.00000500     0.00064203
H        -1.00736380     0.02766685    -0.51082032    -0.00024539    -0.00008600    -0.00040850
     6
  Step:     2            Position(A)                                  Velocity(au)
C        -0.02971933     0.02199593     0.01892164     0.00001299    -0.00000524     0.00007365
N        -0.05089825    -0.04439849     1.29144576     0.00001787     0.00001792    -0.00007613
H         0.88159106    -0.03171922    -0.51639111     0.00026435     0.00007897    -0.00004253
H         0.84576081    -0.22258246     1.90105104    -0.00037406    -0.00014177    -0.00014819
H        -0.86847076    -0.08728587     1.85160934    -0.00000325    -0.00002865     0.00091436
H        -1.01038213     0.02667928    -0.51608359    -0.00029008    -0.00009516    -0.00054330
     6
  Step:     3            Position(A)                                  Velocity(au)
C        -0.02968676     0.02197670     0.01918334    -0.00000714     0.00000163    -0.00002798
N        -0.05044749    -0.04423834     1.29125785     0.00006077     0.00001138     0.00004352
H         0.88627338    -0.03090071    -0.51863028     0.00057219     0.00007241    -0.00035440
H         0.83975411    -0.22387123     1.89800256    -0.00070678    -0.00009710    -0.00039959
H        -0.87047091    -0.08771866     1.86301250    -0.00032429    -0.00004746     0.00113917
H        -1.01370991     0.02558506    -0.52270602    -0.00030053    -0.00010547    -0.00065652
     6
  Step:     4            Position(A)                                  Velocity(au)
C        -0.02987546     0.02203149     0.01830946    -0.00002667     0.00000811    -0.00013205
N        -0.04956888    -0.04414948     1.29239788     0.00009448     0.00000515     0.00016430
H         0.89410879    -0.03013514    -0.52414429     0.00082804     0.00006999    -0.00063242
H         0.83029858    -0.22470678     1.89230926    -0.00099056    -0.00006202    -0.00062076
H        -0.87556512    -0.08832409     1.87653092    -0.00055743    -0.00005946     0.00129145
H        -1.01695672     0.02437183    -0.53044622    -0.00027526    -0.00011686    -0.00074791
     6
  Step:     5            Position(A)                                  Velocity(au)
C        -0.03027024     0.02215414     0.01629438    -0.00004429     0.00001388    -0.00023450
N        -0.04838046    -0.04412560     1.29485230     0.00011626    -0.00000016     0.00028104
H         0.90438835    -0.02936963    -0.53246558     0.00101148     0.00007276    -0.00086201
H         0.81808364    -0.22522795     1.88442231    -0.00119593    -0.00004317    -0.00078897
H        -0.88266569    -0.08901941     1.89126534    -0.00068796    -0.00006364     0.00135832
H        -1.01973170     0.02302848    -0.53906807    -0.00021547    -0.00012918    -0.00081854
     6
  Step:     6            Position(A)                                  Velocity(au)
C        -0.03084434     0.02233512     0.01317937    -0.00005920     0.00001866    -0.00033103
N        -0.04702548    -0.04415300     1.29854627     0.00012419    -0.00000385     0.00038803
H         0.91623693    -0.02854332    -0.54300237     0.00111263     0.00008117    -0.00103514
H         0.80413530    -0.22565128     1.87504904    -0.00129201    -0.00004793    -0.00088115
H        -0.89061564    -0.08971623     1.90624668    -0.00071640    -0.00005990     0.00133908
H        -1.02167054     0.02154567    -0.54835345    -0.00012461    -0.00014228    -0.00087049
     6
  Step:     7            Position(A)                                  Velocity(au)
C        -0.03156541     0.02256239     0.00905252    -0.00007110     0.00002227    -0.00041760
N        -0.04566352    -0.04420982     1.30334126     0.00011721    -0.00000519     0.00047978
H         0.92872931    -0.02759396    -0.55511120     0.00113126     0.00009507    -0.00114989
H         0.78981848    -0.22627656     1.86514548    -0.00125064    -0.00008358    -0.00087711
H        -0.89833826    -0.09032994     1.92056028    -0.00065421    -0.00004888     0.00124246
H        -1.02245780     0.01991586    -0.55811177    -0.00000798    -0.00015595    -0.00090659
     6
  Step:     8            Position(A)                                  Velocity(au)
C        -0.03239985     0.02282227     0.00404364    -0.00007997     0.00002459    -0.00049086
N        -0.04446127    -0.04426650     1.30904244     0.00009530    -0.00000357     0.00055195
H         0.94098539    -0.02646341    -0.56815850     0.00107420     0.00011403    -0.00120899
H         0.77677519    -0.22747966     1.85586056    -0.00105394    -0.00015570    -0.00076503
H        -0.90492778    -0.09078556     1.93342795    -0.00051942    -0.00003166     0.00108322
H        -1.02184507     0.01813389    -0.56818675     0.00012764    -0.00017011    -0.00093015
     6
  Step:     9            Position(A)                                  Velocity(au)
C        -0.03331480     0.02310034    -0.00168591    -0.00008586     0.00002559    -0.00054845
N        -0.04357860    -0.04428801     1.31541612     0.00005999     0.00000127     0.00060212
H         0.95222954    -0.02509928    -0.58156026     0.00095245     0.00013747    -0.00121805
H         0.76676151    -0.22968273     1.84840892    -0.00070431    -0.00026581    -0.00054813
H        -0.90970148    -0.09102260     1.94425769    -0.00033294    -0.00000962     0.00087910
H        -1.01966543     0.01619436    -0.57846048     0.00027425    -0.00018480    -0.00094480
     6
  Step:    10            Position(A)                                  Velocity(au)
C        -0.03427811     0.02338218    -0.00795475    -0.00008878     0.00002531    -0.00058911
N        -0.04314896    -0.04423863     1.32221490     0.00001477     0.00000914     0.00063029
H         0.96182212    -0.02345600    -0.59480567     0.00077865     0.00016480    -0.00118404
H         0.76136709    -0.23329486     1.84386924    -0.00023259    -0.00040906    -0.00024935
H        -0.91221157    -0.09099604     1.95266003    -0.00011639     0.00001581     0.00064886
H        -1.01584535     0.01409112    -0.58885610     0.00042298    -0.00020015    -0.00095432
     6
  Step:    11            Position(A)                                  Velocity(au)
C        -0.03525706     0.02365399    -0.01457385    -0.00008864     0.00002381    -0.00061259
N        -0.04325549    -0.04408815     1.32920491    -0.00003484     0.00001924     0.00063866
H         0.96926404    -0.02149387    -0.60746343     0.00056546     0.00019557    -0.00111424
H         0.76167324    -0.23863176     1.84295399     0.00030177    -0.00057343     0.00008985
H        -0.91224771    -0.09067673     1.95845278     0.00010856     0.00004319     0.00041141
H        -1.01041201     0.01181565    -0.59933800     0.00056452    -0.00021648    -0.00096235
     6
  Step:    12            Position(A)                                  Velocity(au)
C        -0.03621729     0.02390306    -0.02135638    -0.00008525     0.00002122    -0.00061947
N        -0.04391107    -0.04381774     1.33618674    -0.00008208     0.00003040     0.00063079
H         0.97419273    -0.01917744    -0.61918175     0.00032479     0.00022950    -0.00101561
H         0.76796897    -0.24583982     1.84583498     0.00082175    -0.00074168     0.00041819
H        -0.90983665    -0.09005117     1.96166037     0.00032019     0.00007116     0.00018556
H        -1.00349539     0.00935517    -0.60990934     0.00068967    -0.00023428    -0.00097220
     6
  Step:    13            Position(A)                                  Velocity(au)
C        -0.03712203     0.02411814    -0.02812586    -0.00007344     0.00002186    -0.00070553
N        -0.04505113    -0.04342317     1.34300460    -0.00012208     0.00004025     0.00068507
H         0.97636947    -0.01647310    -0.62968188     0.00000266     0.00036371    -0.00081488
H         0.77965068    -0.25485743     1.85210269     0.00120545    -0.00102034     0.00063557
H        -0.90524284    -0.08911994     1.96251221     0.00053370     0.00019566    -0.00002905
H        -0.99532412     0.00669033    -0.62060667     0.00082979    -0.00035897    -0.00090452
     6
  Step:    14            Position(A)                                  Velocity(au)
C        -0.03782392     0.02438140    -0.03679112    -0.00005346     0.00002632    -0.00087665
N        -0.04658187    -0.04293722     1.35117396    -0.00014905     0.00004682     0.00080889
H         0.97425084    -0.01122069    -0.63700874    -0.00038967     0.00057247    -0.00051848
H         0.79434054    -0.26816173     1.85973919     0.00139971    -0.00135993     0.00070989
H        -0.89816096    -0.08577073     1.96102481     0.00072382     0.00039027    -0.00022550
H        -0.98534209     0.00150204    -0.62969752     0.00097444    -0.00056709    -0.00076037
     6
  Step:    15            Position(A)                                  Velocity(au)
C        -0.03829154     0.02469385    -0.04730431    -0.00003079     0.00003050    -0.00103457
N        -0.04831197    -0.04239892     1.36070072    -0.00015733     0.00005040     0.00092528
H         0.96784479    -0.00394930    -0.64102462    -0.00076703     0.00074534    -0.00022087
H         0.81027192    -0.28460856     1.86763300     0.00143254    -0.00161036     0.00068919
H        -0.88940797    -0.08058193     1.95757896     0.00082085     0.00054372    -0.00036626
H        -0.97400635    -0.00571583    -0.63724121     0.00106682    -0.00074260    -0.00063200
     6
  Step:    16            Position(A)                                  Velocity(au)
C        -0.03849756     0.02504871    -0.05942439    -0.00000607     0.00003406    -0.00116742
N        -0.05002369    -0.04183466     1.37141615    -0.00014537     0.00005177     0.00102331
H         0.95747054     0.00508494    -0.64184071    -0.00110170     0.00089930     0.00005697
H         0.82568005    -0.30339145     1.87481648     0.00131258    -0.00179347     0.00058896
H        -0.88020332    -0.07387586     1.95301228     0.00079276     0.00067213    -0.00041841
H        -0.96200333    -0.01474381    -0.64352381     0.00108874    -0.00090331    -0.00053679
     6
  Step:    17            Position(A)                                  Velocity(au)
C        -0.03842435     0.02543899    -0.07284377     0.00001941     0.00003706    -0.00127092
N        -0.05149214    -0.04126638     1.38308757    -0.00011344     0.00005126     0.00109898
H         0.94374294     0.01572464    -0.63977832    -0.00136507     0.00104161     0.00029548
H         0.83898713    -0.32384414     1.88051761     0.00106202    -0.00192078     0.00042890
H        -0.87206477    -0.06587774     1.94842538     0.00062027     0.00078300    -0.00036541
H        -0.95018807    -0.02547756    -0.64898459     0.00102781    -0.00105783    -0.00048638
     6
  Step:    18            Position(A)                                  Velocity(au)
C        -0.03807286     0.02585952    -0.08722820     0.00004346     0.00003967    -0.00134367
N        -0.05250538    -0.04071333     1.39545836    -0.00006380     0.00004910     0.00115148
H         0.92760696     0.02787216    -0.63537663    -0.00152512     0.00117737     0.00047421
H         0.84891372    -0.34541215     1.88419955     0.00071048    -0.00200255     0.00023068
H        -0.86663362    -0.05674633     1.94501827     0.00030457     0.00088213    -0.00020782
H        -0.93951796    -0.03788581    -0.65416438     0.00087881    -0.00121209    -0.00048717
     6
  Step:    19            Position(A)                                  Velocity(au)
C        -0.03747358     0.02630693    -0.10223916     0.00006286     0.00004198    -0.00138602
N        -0.05288796    -0.04019224     1.40827837    -0.00000094     0.00004557     0.00118255
H         0.91037795     0.04148187    -0.62940399    -0.00154771     0.00131162     0.00057276
H         0.85453031    -0.36765377     1.88556428     0.00029052    -0.00204935     0.00001529
H        -0.86540175    -0.04657945     1.94387883    -0.00012542     0.00097468     0.00003350
H        -0.93096245    -0.05199444    -0.65964246     0.00064654    -0.00137056    -0.00053882
     6
  Step:    20            Position(A)                                  Velocity(au)
C        -0.03669765     0.02677794    -0.11755001     0.00007368     0.00004384    -0.00139969
N        -0.05252588    -0.03971637     1.42132891     0.00006862     0.00004110     0.00119577
H         0.89374788     0.05656628    -0.62284650    -0.00140218     0.00145041     0.00057404
H         0.85526932    -0.39024571     1.88453401    -0.00016488    -0.00207265    -0.00019828
H        -0.86937740    -0.03542323     1.94575118    -0.00061267     0.00106447     0.00031937
H        -0.92537357    -0.06786949    -0.66595204     0.00034818    -0.00153591    -0.00063311
     6
  Step:    21            Position(A)                                  Velocity(au)
C        -0.03586165     0.02726604    -0.13286007     0.00007220     0.00004481    -0.00138772
N        -0.05138684    -0.03929305     1.43443802     0.00013704     0.00003642     0.00119549
H         0.87970263     0.07321245    -0.61684583    -0.00107221     0.00160083     0.00047022
H         0.85092328    -0.41299695     1.88122644    -0.00062303    -0.00208527    -0.00039323
H        -0.87880504    -0.02329203     1.95086564    -0.00108224     0.00115268     0.00060095
H        -0.92334540    -0.08559532    -0.67349304     0.00001272    -0.00170835    -0.00075470
     6
  Step:    22            Position(A)                                  Velocity(au)
C        -0.03511809     0.02775816    -0.14790910     0.00005639     0.00004421    -0.00135447
N        -0.04952785    -0.03891958     1.44748249     0.00019659     0.00003265     0.00118567
H         0.87029116     0.09158740    -0.61255946    -0.00056967     0.00176931     0.00026938
H         0.84163932    -0.43586507     1.87593145    -0.00105195    -0.00210183    -0.00055480
H        -0.89305351    -0.01020622     1.95889815    -0.00145945     0.00123705     0.00083256
H        -0.92509538    -0.10524297    -0.68246254    -0.00032285    -0.00188515    -0.00088370
     6
  Step:    23            Position(A)                                  Velocity(au)
C        -0.03462794     0.02823311    -0.16249172     0.00002728     0.00004140    -0.00130541
N        -0.04708606    -0.03857868     1.46037684     0.00024099     0.00003128     0.00116895
H         0.86724009     0.11191957    -0.61095253     0.00005580     0.00195887    -0.00000113
H         0.82790994    -0.45897845     1.86908916    -0.00142127    -0.00213886    -0.00067049
H        -0.91073322     0.00377079     1.96907940    -0.00168821     0.00131264     0.00098271
H        -0.93040829    -0.12683648    -0.69282574    -0.00062023    -0.00206075    -0.00099985
     6
  Step:    24            Position(A)                                  Velocity(au)
C        -0.03452132     0.02866383    -0.17646750    -0.00001075     0.00003614    -0.00124659
N        -0.04425583    -0.03823520     1.47305548     0.00026635     0.00003397     0.00114645
H         0.87151181     0.13444133    -0.61258409     0.00071998     0.00216578    -0.00029845
H         0.81054637    -0.48265673     1.86126309    -0.00170468    -0.00221419    -0.00073085
H        -0.92998627     0.01851030     1.98039676    -0.00174148     0.00137346     0.00103881
H        -0.93866414    -0.15032591    -0.70433627    -0.00084706    -0.00222784    -0.00108651
     6
  Step:    25            Position(A)                                  Velocity(au)
C        -0.03486305     0.02902368    -0.18976333    -0.00005115     0.00002879    -0.00118372
N        -0.04125919    -0.03783546     1.48545762     0.00027151     0.00004227     0.00111828
H         0.88299093     0.15930023    -0.61748174     0.00132371     0.00237851    -0.00057547
H         0.79061684    -0.50741819     1.85310041    -0.00188438    -0.00234467    -0.00073113
H        -0.94883133     0.03381784     1.99180542    -0.00162105     0.00141427     0.00100501
H        -0.94893941    -0.17557481    -0.71659530    -0.00098176    -0.00237867    -0.00113311
     6
  Step:    26            Position(A)                                  Velocity(au)
C        -0.03564041     0.02929372    -0.20236370    -0.00008750     0.00002027    -0.00112111
N        -0.03831603    -0.03731049     1.49751997     0.00025789     0.00005721     0.00108420
H         0.90047060     0.18647579    -0.62517367     0.00178092     0.00258004    -0.00079433
H         0.76932188    -0.53395090     1.84526829    -0.00195692    -0.00254200    -0.00067339
H        -0.96544987     0.04945027     2.00238322    -0.00134996     0.00143177     0.00089619
H        -0.96014204    -0.20236397    -0.72912522    -0.00101513    -0.00250647    -0.00113566
     6
  Step:    27            Position(A)                                  Velocity(au)
C        -0.03677728     0.02946709    -0.21428969    -0.00011534     0.00001166    -0.00106103
N        -0.03561739    -0.03658383     1.50917646     0.00022917     0.00007892     0.00104415
H         0.92195204     0.21574364    -0.63485927     0.00203989     0.00275293    -0.00093491
H         0.74780542    -0.56302936     1.83836865    -0.00193814    -0.00280727    -0.00056799
H        -0.97836427     0.06514063     2.01141125    -0.00096306     0.00142494     0.00073198
H        -0.97114734    -0.23040857    -0.74144006    -0.00094886    -0.00260628    -0.00109569
     6
  Step:    28            Position(A)                                  Velocity(au)
C        -0.03816377     0.02954878    -0.22557581    -0.00013292     0.00000389    -0.00100390
N        -0.03330260    -0.03558403     1.52036282     0.00019081     0.00010622     0.00099857
H         0.94509710     0.24670130    -0.64562665     0.00208838     0.00288389    -0.00099507
H         0.72692142    -0.59536522     1.83284243    -0.00186394    -0.00312602    -0.00043309
H        -0.98651856     0.08062357     2.01839677    -0.00049975     0.00139495     0.00053270
H        -0.98090016    -0.25938131    -0.75309564    -0.00079243    -0.00267533    -0.00101847
     6
  Step:    29            Position(A)                                  Velocity(au)
C        -0.03968520     0.02955211    -0.23625189    -0.00014065    -0.00000249    -0.00094884
N        -0.03144299    -0.03425999     1.53102202     0.00014936     0.00013663     0.00094822
H         0.96763934     0.27883421    -0.65662842     0.00194452     0.00296595    -0.00098500
H         0.70702820    -0.63141711     1.82889403    -0.00178425    -0.00346712    -0.00029157
H        -0.98929725     0.09565778     2.02306502    -0.00000005     0.00134490     0.00031751
H        -0.98848316    -0.28893653    -0.76372111    -0.00055982    -0.00271284    -0.00091124
     6
  Step:    30            Position(A)                                  Velocity(au)
C        -0.04124086     0.02949441    -0.24633357    -0.00014012    -0.00000723    -0.00089445
N        -0.03003497    -0.03259501     1.54110689     0.00011146     0.00016664     0.00089391
H         0.98763716     0.31158707    -0.66717551     0.00164220     0.00299777    -0.00092019
H         0.68788760    -0.67121504     1.82646367    -0.00175113    -0.00378728    -0.00016605
H        -0.98651974     0.11004578     2.02534298     0.00049659     0.00127966     0.00010434
H        -0.99314720    -0.31872990    -0.77303075    -0.00026697    -0.00271967    -0.00078190
     6
  Step:    31            Position(A)                                  Velocity(au)
C        -0.04275051     0.02939384    -0.25581961    -0.00013315    -0.00001035    -0.00083921
N        -0.02900454    -0.03061450     1.55057797     0.00008291     0.00019243     0.00083605
H         1.00356550     0.34441612    -0.67675929     0.00121895     0.00298188    -0.00081629
H         0.66871897    -0.71427122     1.82526131    -0.00180519    -0.00404054    -0.00007379
H        -0.97843337     0.12365289     2.02534758     0.00095087     0.00120580    -0.00008961
H        -0.99432372    -0.34843444    -0.78082670     0.00006985    -0.00269799    -0.00063828
     6
  Step:    32            Position(A)                                  Velocity(au)
C        -0.04415378     0.02926791    -0.26469287    -0.00012137    -0.00001192    -0.00078180
N        -0.02822121    -0.02838516     1.55939704     0.00006805     0.00021065     0.00077441
H         1.01430401     0.37682146    -0.68503341     0.00070913     0.00292283    -0.00068668
H         0.64839563    -0.75960962     1.82484947    -0.00196685    -0.00418870    -0.00002390
H        -0.96571754     0.13642495     2.02338255     0.00132324     0.00113152    -0.00024732
H        -0.99161902    -0.37775358    -0.78699433     0.00043504    -0.00265102    -0.00048771
     6
  Step:    33            Position(A)                                  Velocity(au)
C        -0.04540570     0.02913304    -0.27292289    -0.00010600    -0.00001204    -0.00072109
N        -0.02751579    -0.02600603     1.56751974     0.00006963     0.00021893     0.00070820
H         1.01907906     0.40835867    -0.69178162     0.00014190     0.00282598    -0.00054199
H         0.62569032    -0.80590709     1.82473840    -0.00223529    -0.00420871    -0.00001754
H        -0.94948506     0.14840697     2.01993708     0.00157510     0.00106648    -0.00035239
H        -0.98480635    -0.40643053    -0.79149635     0.00081377    -0.00258277    -0.00033702
     6
  Step:    34            Position(A)                                  Velocity(au)
C        -0.04647272     0.02900459    -0.28046799    -0.00008794    -0.00001079    -0.00065613
N        -0.02669792    -0.02359559     1.57489030     0.00008883     0.00021608     0.00063633
H         1.01740835     0.43864515    -0.69689046    -0.00045813     0.00269718    -0.00039071
H         0.59949430    -0.85168327     1.82446577    -0.00259331    -0.00409429    -0.00005002
H        -0.93125930     0.15975626     2.01567337     0.00167288     0.00102093    -0.00039096
H        -0.97381629    -0.43425672    -0.79436723     0.00119208    -0.00249804    -0.00019255
     6
  Step:    35            Position(A)                                  Velocity(au)
C        -0.04732964     0.02889699    -0.28727694    -0.00006788    -0.00000827    -0.00058609
N        -0.02557250    -0.02127889     1.58144072     0.00012529     0.00020201     0.00055791
H         1.00905661     0.46736455    -0.70032907    -0.00106970     0.00254275    -0.00023982
H         0.56895676    -0.89547751     1.82364409    -0.00301480    -0.00385306    -0.00011375
H        -0.91288762     0.17074169     2.01138400     0.00159544     0.00100388    -0.00035519
H        -0.95872734    -0.46107994    -0.79570868     0.00155682    -0.00240235    -0.00006031
     6
  Step:    36            Position(A)                                  Velocity(au)
C        -0.04795769     0.02882374    -0.29328977    -0.00004637    -0.00000457    -0.00051019
N        -0.02395702    -0.01917627     1.58709565     0.00017690     0.00017760     0.00047273
H         0.99400662     0.49427267    -0.70213693    -0.00167350     0.00236976    -0.00009552
H         0.53353985    -0.93597634     1.82197720    -0.00347132    -0.00350192    -0.00020057
H        -0.89635601     0.18171814     2.00790287     0.00134352     0.00102046    -0.00024769
H        -0.93975778    -0.48681264    -0.79568658     0.00189560    -0.00230196     0.00005395
     6
  Step:    37            Position(A)                                  Velocity(au)
C        -0.04834413     0.02879704    -0.29843828    -0.00002403     0.00000013    -0.00042768
N        -0.02170252    -0.01739353     1.59178264     0.00023956     0.00014460     0.00038164
H         0.97244568     0.51920762    -0.70241874    -0.00225071     0.00218651     0.00003612
H         0.49301497    -0.97208861     1.81925634    -0.00393619    -0.00306272    -0.00030309
H        -0.88349544     0.19306611     2.00596520     0.00094722     0.00106884    -0.00008501
H        -0.91725736    -0.51143968    -0.79452833     0.00219693    -0.00220373     0.00014479
     6
  Step:    38            Position(A)                                  Velocity(au)
C        -0.04848339     0.02882656    -0.30264599    -0.00000162     0.00000549    -0.00033778
N        -0.01871612    -0.01601277     1.59544474     0.00030736     0.00010555     0.00028654
H         0.94476800     0.54210671    -0.70134666    -0.00278179     0.00200317     0.00014858
H         0.44742817    -1.00297915     1.81534657    -0.00438627    -0.00255945    -0.00041526
H        -0.87563373     0.20510098     2.00604305     0.00046565     0.00113866     0.00010260
H        -0.89169573    -0.53502338    -0.79251898     0.00245052    -0.00211475     0.00020720
     6
  Step:    39            Position(A)                                  Velocity(au)
C        -0.04837959     0.02891725    -0.30582784     0.00001978     0.00001093    -0.00023970
N        -0.01497846    -0.01508436     1.59805127     0.00037337     0.00006358     0.00019004
H         0.91158861     0.56303077    -0.69916826    -0.00324546     0.00183251     0.00023433
H         0.39705683    -1.02808146     1.81017163    -0.00480227    -0.00201676    -0.00053235
H        -0.87330839     0.21797650     2.00820986    -0.00002426     0.00121208     0.00027647
H        -0.86364756    -0.55770383    -0.78999536     0.00264783    -0.00204161     0.00023698
     6
  Step:    40            Position(A)                                  Velocity(au)
C        -0.04805070     0.02906560    -0.30788999     0.00003867     0.00001537    -0.00013268
N        -0.01054800    -0.01462190     1.59960230     0.00043103     0.00002208     0.00009481
H         0.87376729     0.58219648    -0.69622033    -0.00361823     0.00169049     0.00028445
H         0.34236923    -1.04709957     1.80370041    -0.00516819    -0.00145944    -0.00065050
H        -0.87616443     0.23161745     2.01209129    -0.00044689     0.00126785     0.00039822
H        -0.83376934    -0.57968750    -0.78733448     0.00278273    -0.00198891     0.00023136
     6
  Step:    41            Position(A)                                  Velocity(au)
C        -0.04753358     0.02925347    -0.30873040     0.00005318     0.00001715    -0.00001610
N        -0.00554888    -0.01460137     1.60012533     0.00047541    -0.00001569     0.00000295
H         0.83243282     0.60001355    -0.69294544    -0.00387488     0.00159598     0.00028874
H         0.28399274    -1.06000956     1.79594080    -0.00546980    -0.00091200    -0.00076617
H        -0.88308486     0.24571316     2.01692165    -0.00074696     0.00128660     0.00043839
H        -0.80277004    -0.60121514    -0.78493381     0.00285139    -0.00195699     0.00018986
     6
  Step:    42            Position(A)                                  Velocity(au)
C        -0.04688719     0.02944087    -0.30824225     0.00004681     0.00004129     0.00010743
N        -0.00014753    -0.01496521     1.59966694     0.00051502    -0.00006277    -0.00009270
H         0.78899681     0.61711158    -0.68990352    -0.00415918     0.00178997     0.00022214
H         0.22270687    -1.06705131     1.78693900    -0.00613307    -0.00058436    -0.00088238
H        -0.89250554     0.25976421     2.02168181    -0.00065185     0.00156127     0.00054209
H        -0.77138965    -0.62250035    -0.78318085     0.00322935    -0.00238676     0.00012625
     6
  Step:    43            Position(A)                                  Velocity(au)
C        -0.04627669     0.02996262    -0.30662666     0.00005904     0.00005160     0.00019384
N         0.00536399    -0.01601767     1.59818309     0.00048579    -0.00012509    -0.00017736
H         0.74328625     0.63664993    -0.68739734    -0.00413318     0.00185187     0.00019870
H         0.15615791    -1.07027816     1.77756983    -0.00603121    -0.00005971    -0.00083015
H        -0.89919598     0.27806404     2.02808288    -0.00048090     0.00177495     0.00059135
H        -0.73630499    -0.64870447    -0.78135035     0.00319096    -0.00244367     0.00019500
     6
  Step:    44            Position(A)                                  Velocity(au)
C        -0.04559548     0.03056968    -0.30400166     0.00005904     0.00005431     0.00029538
N         0.01048004    -0.01770190     1.59578681     0.00044637    -0.00017573    -0.00026043
H         0.69857567     0.65762470    -0.68555661    -0.00398243     0.00205274     0.00009524
H         0.09076256    -1.06835758     1.76877783    -0.00593575     0.00035285    -0.00078608
H        -0.90302605     0.29859463     2.03461864    -0.00015563     0.00195030     0.00055909
H        -0.70158137    -0.67596035    -0.77891476     0.00316730    -0.00256123     0.00023104
     6