|===============================================================================
|
|  DFTB+ release 20.1
|
|  Copyright (C) 2006 - 2020  DFTB+ developers group
|
|===============================================================================
|
|  When publishing results obtained with DFTB+, please cite the following
|  reference:
|
|  * DFTB+, a software package for efficient approximate density functional
|    theory based atomistic simulations, J. Chem. Phys. 152, 124101 (2020).
|    [doi: 10.1063/1.5143190]
|
|  You should also cite additional publications crediting the parametrization
|  data you use. Please consult the documentation of the SK-files for the
|  references.
|
|===============================================================================

Reading input file 'dftb_in.hsd'
Parser version: 8

--------------------------------------------------------------------------------
Reading SK-files:
Done.


Processed input in HSD format written to 'dftb_pin.hsd'

Starting initialization...
--------------------------------------------------------------------------------
OpenMP threads:              1
Chosen random seed:          508634090
Mode:                        Static calculation
Self consistent charges:     Yes
SCC-tolerance:                 0.100000E-05
Max. scc iterations:                   1000
Shell resolved Hubbard:      No
Spin polarisation:           No
Nr. of up electrons:             6.000000
Nr. of down electrons:           6.000000
Periodic boundaries:         No
Electronic solver:           Relatively robust
Maximal SCC-cycles:                    1000
Initial charges:             Set automatically (system chrg:   0.100E+01)
Included shells:             C:  s, p
                             N:  s, p
                             H:  s
Spin coupling constants:     C   1(s)-1(s):  -0.455900E-01
                             C   1(s)-2(p):  -0.293000E-01
                             C   2(p)-1(s):  -0.293000E-01
                             C   2(p)-2(p):  -0.275500E-01
                             N   1(s)-1(s):  -0.468700E-01
                             N   1(s)-2(p):  -0.317000E-01
                             N   2(p)-1(s):  -0.317000E-01
                             N   2(p)-2(p):  -0.307200E-01
                             H   1(s)-1(s):  -0.792500E-01
Range separated hybrid:      Yes
  Screening parameter omega:   0.300000E+00
  Range separated algorithm:   MatrixBased
Extra options:
                             Mulliken analysis
                             Force calculation
Force type                   original
                             Eigenvector printing


REKS Calcuation:             Yes
SSR(2,2) Calcuation:         Yes
Energy Functional:           (PPS+OSS)/2
Number of Core Orbitals:                  5
Number of Active Orbitals:                2
Number of Basis:                         12
Number of States:                         2
State-Averaging Weight:          0.500000
                                 0.500000
State of Interest:                        1
Initial Guess:               Diagonalize H0 matrix
Newton-Raphson for FON opt:  Yes
NR max. Iterations:                      50
Level Shifting:              Yes
Shift Value:                     0.300000
W Scale Factor:              C  =    3.000000
                             N  =    3.000000
                             H  =    3.000000
Transition Dipole:           No
Gradient of Microstate:      No
CP-REKS Solver:              Preconditioned Conjugate-Gradient
CG max. Iterations:                     100
CG Tolerance:                  0.100000E-07
Memory for A and Hxc:        Direct Updating Without Saving
Non-Adiabatic Coupling:      Yes

--------------------------------------------------------------------------------

***  Geometry step: 0

  iSCC       reks energy        Diff energy         x_a       SCC error   
    1       -6.2646551016       0.0000000000     0.999771    1.19301543
    2       -6.2751415884      -0.0104864868     0.999892    0.07488113
    3       -6.2788511286      -0.0037095402     0.999936    0.02930100
    4       -6.2807611932      -0.0019100646     0.999955    0.01333674
    5       -6.2817959505      -0.0010347573     0.999965    0.00888357
    6       -6.2823569746      -0.0005610241     0.999969    0.00743770
    7       -6.2826583308      -0.0003013562     0.999972    0.00591029
    8       -6.2828187396      -0.0001604088     0.999974    0.00454263
    9       -6.2829035982      -0.0000848587     0.999974    0.00341609
   10       -6.2829483584      -0.0000447602     0.999975    0.00253206
   11       -6.2829719679      -0.0000236095     0.999975    0.00185889
   12       -6.2829844524      -0.0000124845     0.999975    0.00135608
   13       -6.2829910851      -0.0000066327     0.999975    0.00098526
   14       -6.2829946319      -0.0000035468     0.999976    0.00071408
   15       -6.2829965439      -0.0000019120     0.999976    0.00051685
   16       -6.2829975843      -0.0000010404     0.999976    0.00037392
   17       -6.2829981562      -0.0000005719     0.999976    0.00027057
   18       -6.2829984741      -0.0000003179     0.999976    0.00019593
   19       -6.2829986528      -0.0000001787     0.999976    0.00015081
   20       -6.2829987543      -0.0000001015     0.999976    0.00012047
   21       -6.2829988126      -0.0000000583     0.999976    0.00009737
   22       -6.2829988465      -0.0000000339     0.999976    0.00007856
   23       -6.2829988663      -0.0000000198     0.999976    0.00006319
   24       -6.2829988780      -0.0000000117     0.999976    0.00005070
   25       -6.2829988850      -0.0000000070     0.999976    0.00004059
   26       -6.2829988892      -0.0000000042     0.999976    0.00003244
   27       -6.2829988917      -0.0000000025     0.999976    0.00002588
   28       -6.2829988933      -0.0000000015     0.999976    0.00002062
   29       -6.2829988942      -0.0000000009     0.999976    0.00001640
   30       -6.2829988948      -0.0000000006     0.999976    0.00001304
   31       -6.2829988951      -0.0000000003     0.999976    0.00001035
   32       -6.2829988953      -0.0000000002     0.999976    0.00000821
   33       -6.2829988955      -0.0000000001     0.999976    0.00000651
   34       -6.2829988955      -0.0000000001     0.999976    0.00000516
   35       -6.2829988956      -0.0000000001     0.999976    0.00000408
   36       -6.2829988956      -0.0000000000     0.999976    0.00000323
   37       -6.2829988956      -0.0000000000     0.999976    0.00000256
   38       -6.2829988956      -0.0000000000     0.999976    0.00000202
   39       -6.2829988957      -0.0000000000     0.999976    0.00000160
   40       -6.2829988957      -0.0000000000     0.999976    0.00000126
   41       -6.2829988957      -0.0000000000     0.999976    0.00000100
  
--------------------------------------------------
 Final SA-REKS(2,2) energy:      -6.28299890
  
 State     Energy      FON(1)    FON(2)   Spin
  PPS   -6.41367613   1.999951  0.000049  0.00
  OSS   -6.15232166   1.000000  1.000000  0.00
 Trip   -6.22966485   1.000000  1.000000  1.00
--------------------------------------------------

 Lagrangian Wab:  -0.00192687 -0.00192679

--------------------------------------------------
 SSR: 2SI-2SA-REKS(2,2) Hamiltonian matrix
               PPS           OSS
   PPS    -6.41367613   -0.00271148
   OSS    -0.00271148   -6.15232166
--------------------------------------------------

----------------------------------------------------------------
 SSR: 2SI-2SA-REKS(2,2) states
                    E_n       C_{PPS}    C_{OSS}
 SSR state  1   -6.41370426  -0.999946  -0.010373
 SSR state  2   -6.15229353   0.010373  -0.999946
----------------------------------------------------------------

 unrelaxed SSR FONs for S0:  1.999843  0.000157

Total Energy:                       -6.4137042620 H         -174.5258 eV
Extrapolated to 0:                  -6.4137042620 H         -174.5258 eV

----------------------------------------------------------------------------------
 Solving CP-REKS equation for  1 state vector...
----------------------------------------------------------------------------------
  CG solver: Constructing Y initial guess
  CG solver: Iteration    1    eps =    0.000034976737
  CG solver: Iteration    2    eps =    0.000004232984
  CG solver: Iteration    3    eps =    0.000000285260
  CG solver: Iteration    4    eps =    0.000000014260
  CG solver: Iteration    5    eps =    0.000000005057
  Convergence reached in CG solver after    5 iterations
  CG solver: Calculating converged R, Z, Q2 matrix
----------------------------------------------------------------------------------

----------------------------------------------------------------------------------
 Solving CP-REKS equation for SI between  1 and  2 state vectors...
----------------------------------------------------------------------------------
  CG solver: Constructing Y initial guess
  CG solver: Iteration    1    eps =    0.000515813098
  CG solver: Iteration    2    eps =    0.000225049805
  CG solver: Iteration    3    eps =    0.000082726936
  CG solver: Iteration    4    eps =    0.000001389381
  CG solver: Iteration    5    eps =    0.000000183656
  CG solver: Iteration    6    eps =    0.000000007945
  Convergence reached in CG solver after    6 iterations
  CG solver: Calculating converged R, Z, Q2 matrix
----------------------------------------------------------------------------------

--------------------------------------------------
 Gradient Information
--------------------------------------------------
           1 st state (SSR)
     0.00609670     0.01101594     0.03282429
    -0.02362806     0.00917695    -0.03831564
     0.00474979    -0.00406101     0.00683134
     0.01273357    -0.00713234     0.00172576
     0.00475644    -0.00803869     0.00434514
    -0.00470844    -0.00096084    -0.00741089

           2 st state (SSR)
    -0.00820752    -0.01349107     0.14058880
     0.01444595     0.01515883    -0.16560795
    -0.00347511     0.01497204     0.02391094
    -0.00920788    -0.01011038    -0.00727321
     0.00000121     0.00250360    -0.00358724
     0.00644335    -0.00903302     0.01196866
--------------------------------------------------
 Coupling Information
--------------------------------------------------
 between  1 and  2 states
--------------------------------------------------
 g vector - difference gradient
     0.00712186     0.01217554    -0.05391523
    -0.01909997    -0.00285308     0.06368282
     0.00427124    -0.00949096    -0.00854731
     0.01113027     0.00144001     0.00447793
     0.00225962    -0.00532335     0.00398935
    -0.00568303     0.00405183    -0.00968756

 h vector - derivative coupling
     0.00153199     0.00388456     0.00103024
     0.00283704    -0.00667537    -0.00110663
    -0.00761005    -0.00133093     0.00027327
    -0.00757540     0.00237738     0.00108561
     0.00571110     0.00246104    -0.00107506
     0.00510532    -0.00071668    -0.00020743

 G vector - GDV
     0.00715211     0.01225351    -0.05388225
    -0.01903700    -0.00299094     0.06364616
     0.00411245    -0.00951652    -0.00853980
     0.01097073     0.00148902     0.00449949
     0.00237761    -0.00527115     0.00396619
    -0.00557589     0.00403609    -0.00968978

 H vector - DCV - non-adiabatic coupling
     0.00529403     0.01389055     0.00821882
     0.01236620    -0.02530402    -0.00928611
    -0.02944417    -0.00433705     0.00172346
    -0.02985595     0.00897819     0.00379662
     0.02166321     0.00983487    -0.00442825
     0.01997668    -0.00306254    -0.00002454
--------------------------------------------------


--------------------------------------------------------------------------------
DFTB+ running times                          cpu [s]             wall clock [s]
--------------------------------------------------------------------------------
SCC                                    +     0.02  ( 63.6%)      0.02  ( 58.3%)
Post-SCC processing                    +     0.01  ( 31.2%)      0.01  ( 30.6%)
  Force calculation                          0.01  ( 30.5%)      0.01  ( 27.8%)
--------------------------------------------------------------------------------
Missing                                +     0.00  (  5.1%)      0.00  ( 11.1%)
Total                                  =     0.03  (100.0%)      0.04  (100.0%)
--------------------------------------------------------------------------------
