    14
  Step:   600            Position(A)                                  Velocity(au)
C        -5.62157118    -1.24933058    -0.33405614    -0.00003249     0.00008723    -0.00011499
C        -4.77841497    -0.38659714     0.10703385     0.00041725    -0.00076362     0.00011345
H        -6.10284100    -1.33684727    -1.33360307    -0.00140361     0.00047574     0.00039661
H        -5.83861102    -2.21585092     0.22204665    -0.00029799    -0.00013946    -0.00106352
H        -4.74519329    -0.66806581     1.20654863     0.00236003    -0.00022235     0.00074251
C        -4.15456684     0.87253282     0.15641531     0.00012693     0.00052072     0.00053994
C        -2.80084759     0.67306923     0.45948294    -0.00006942    -0.00000069    -0.00027708
H        -4.53764533     1.75960054    -0.19953639     0.00164873     0.00122158     0.00023917
H        -2.33465465    -0.32869615     0.77907972    -0.00198138     0.00007993    -0.00040359
C        -1.81992183     1.63804880    -0.00155625     0.00019123     0.00053825    -0.00083459
H        -2.05623626     2.51130531    -0.44811776    -0.00184594    -0.00139961    -0.00119798
N        -0.43241922     1.54136440     0.03681522    -0.00037122    -0.00020535     0.00046327
H        -0.11350796     2.26402842    -0.60259044     0.00216855    -0.00099417     0.00070311
H         0.25901066     0.79268029     0.26291319    -0.00303847    -0.00071871     0.00097701
