     6
  Step:     0            Position(A)                                  Velocity(au)
C        -0.02880539     0.02822442     0.01885916    -0.00005521     0.00001471    -0.00029679
N        -0.04463111    -0.06682811     1.29785654    -0.00014635     0.00004768     0.00021404
H         0.91357360    -0.04828757    -0.55658525     0.00094899     0.00005965    -0.00056722
H         0.82862525    -0.06575192     1.84595234     0.00119634    -0.00050324     0.00130549
H        -0.95734399     0.01174817     1.86431108     0.00080967    -0.00019350    -0.00051472
H        -1.03433654     0.02485664    -0.52183480    -0.00026332    -0.00020074     0.00033869
     6
  Step:     1            Position(A)                                  Velocity(au)
C        -0.02912427     0.02832352     0.01709200    -0.00006063     0.00002131    -0.00034806
N        -0.04546216    -0.06658243     1.29917554    -0.00015550     0.00004221     0.00026724
H         0.91877171    -0.04798458    -0.55984854     0.00094338     0.00005197    -0.00062090
H         0.83516965    -0.06847121     1.85319152     0.00117868    -0.00049122     0.00132883
H        -0.95247492     0.01068709     1.86129158     0.00096002    -0.00019347    -0.00058213
H        -1.03559953     0.02373935    -0.52006269    -0.00019871    -0.00020780     0.00030818
     6
  Step:     2            Position(A)                                  Velocity(au)
C        -0.02946871     0.02845759     0.01505115    -0.00006449     0.00002746    -0.00039621
N        -0.04633234    -0.06636628     1.30078025    -0.00016046     0.00003685     0.00031783
H         0.92389472    -0.04771896    -0.56337829     0.00092104     0.00004590    -0.00066419
H         0.84152074    -0.07112615     1.86049054     0.00112608    -0.00047915     0.00132702
H        -0.94684083     0.00963145     1.85794227     0.00108617    -0.00019117    -0.00063334
H        -1.03651055     0.02258322    -0.51846315    -0.00013499    -0.00021474     0.00027517
     6
  Step:     3            Position(A)                                  Velocity(au)
C        -0.02983015     0.02862403     0.01275521    -0.00006677     0.00003309    -0.00044051
N        -0.04721848    -0.06617913     1.30265439    -0.00016110     0.00003158     0.00036490
H         0.92885309    -0.04748214    -0.56711858     0.00088264     0.00004136    -0.00069726
H         0.84749539    -0.07371583     1.86771662     0.00104164    -0.00046673     0.00130173
H        -0.94058600     0.00859458     1.85435929     0.00118332    -0.00018624    -0.00066542
H        -1.03707705     0.02138892    -0.51705081    -0.00007318    -0.00022148     0.00023932
     6
  Step:     4            Position(A)                                  Velocity(au)
C        -0.03019996     0.02882004     0.01022659    -0.00006747     0.00003819    -0.00048030
N        -0.04809679    -0.06602047     1.30477675    -0.00015737     0.00002640     0.00040759
H         0.93356158    -0.04726603    -0.57101487     0.00082921     0.00003823    -0.00072047
H         0.85292907    -0.07623787     1.87474739     0.00092914    -0.00045373     0.00125517
H        -0.93388078     0.00759174     1.85065447     0.00124694    -0.00017834    -0.00067569
H        -1.03731204     0.02015750    -0.51584207    -0.00001432    -0.00022798     0.00020039
     6
  Step:     5            Position(A)                                  Velocity(au)
C        -0.03056962     0.02904258     0.00749108    -0.00006664     0.00004271    -0.00051504
N        -0.04894329    -0.06588983     1.30712154    -0.00014928     0.00002131     0.00044512
H         0.93794117    -0.04706311    -0.57501490     0.00076209     0.00003643    -0.00073435
H         0.85767870    -0.07868874     1.88147323     0.00079276    -0.00044003     0.00118989
H        -0.92691961     0.00663993     1.84695369     0.00127311    -0.00016723    -0.00066197
H        -1.03723405     0.01889031    -0.51485450     0.00004059    -0.00023417     0.00015824
     6
  Step:     6            Position(A)                                  Velocity(au)
C        -0.03093089     0.02928851     0.00457729    -0.00006435     0.00004664    -0.00054430
N        -0.04973415    -0.06578676     1.30965906    -0.00013692     0.00001632     0.00047687
H         0.94192061    -0.04686649    -0.57906965     0.00068290     0.00003582    -0.00073961
H         0.86162452    -0.08106434     1.88779886     0.00063699    -0.00042555     0.00110875
H        -0.91991655     0.00575748     1.84339360     0.00125897    -0.00015271    -0.00062275
H        -1.03686686     0.01758893    -0.51410636     0.00009064    -0.00024006     0.00011282
     6
  Step:     7            Position(A)                                  Velocity(au)
C        -0.03127601     0.02955462     0.00151593    -0.00006070     0.00004998    -0.00056779
N        -0.05044634    -0.06571072     1.31235646    -0.00012050     0.00001143     0.00050240
H         0.94543787    -0.04666993    -0.58313411     0.00059347     0.00003628    -0.00073708
H         0.86467138    -0.08336033     1.89364472     0.00046643    -0.00041033     0.00101473
H        -0.91309897     0.00496356     1.84011732     0.00120300    -0.00013470    -0.00055745
H        -1.03623903     0.01625502    -0.51361598     0.00013505    -0.00024563     0.00006418
     6
  Step:     8            Position(A)                                  Velocity(au)
C        -0.03159779     0.02983766    -0.00166103    -0.00005582     0.00005274    -0.00058540
N        -0.05105814    -0.06566118     1.31517890    -0.00010036     0.00000666     0.00052148
H         0.94844099    -0.04646787    -0.58716793     0.00049570     0.00003770    -0.00072770
H         0.86674915    -0.08557259     1.89894763     0.00028565    -0.00039443     0.00091091
H        -0.90669927     0.00427752     1.83726896     0.00110536    -0.00011326    -0.00046656
H        -1.03538313     0.01489024    -0.51340123     0.00017318    -0.00025090     0.00001246
     6
  Step:     9            Position(A)                                  Velocity(au)
C        -0.03188980     0.03013449    -0.00492115    -0.00004986     0.00005493    -0.00059714
N        -0.05154993    -0.06563750     1.31809061    -0.00007695     0.00000202     0.00053407
H         0.95088864    -0.04625543    -0.59113589     0.00039160     0.00003993    -0.00071246
H         0.86781240    -0.08769751     1.90366104     0.00009910    -0.00037799     0.00080032
H        -0.90094448     0.00371811     1.83498705     0.00096814    -0.00008858    -0.00035180
H        -1.03433478     0.01349608    -0.51347898     0.00020460    -0.00025593    -0.00004211
     6
  Step:    10            Position(A)                                  Velocity(au)
C        -0.03214645     0.03044209    -0.00823232    -0.00004298     0.00005658    -0.00060315
N        -0.05190491    -0.06563892     1.32105614    -0.00005084    -0.00000246     0.00054036
H         0.95275040    -0.04602845    -0.59500821     0.00028314     0.00004286    -0.00069237
H         0.86783968    -0.08973225     1.90775484    -0.00008898    -0.00036118     0.00068594
H        -0.89604527     0.00330272     1.83339759     0.00079544    -0.00006099    -0.00021610
H        -1.03313160     0.01207381    -0.51386467     0.00022908    -0.00026077    -0.00009924
     6
  Step:    11            Position(A)                                  Velocity(au)
C        -0.03236308     0.03075761    -0.01156338    -0.00003536     0.00005775    -0.00060367
N        -0.05210982    -0.06566456     1.32404132    -0.00002276    -0.00000675     0.00054067
H         0.95400669    -0.04578344    -0.59876066     0.00017224     0.00004636    -0.00066847
H         0.86683252    -0.09167495     1.91121497    -0.00027453    -0.00034416     0.00057062
H        -0.89218472     0.00304648     1.83260722     0.00059326    -0.00003096    -0.00006358
H        -1.03181203     0.01062440    -0.51457181     0.00024660    -0.00026546    -0.00015853
     6
  Step:    12            Position(A)                                  Velocity(au)
C        -0.03253605     0.03107843    -0.01488458    -0.00002718     0.00005846    -0.00059899
N        -0.05215567    -0.06571334     1.32701419     0.00000649    -0.00001083     0.00053548
H         0.95464847    -0.04551760    -0.60237458     0.00006077     0.00005030    -0.00064173
H         0.86481441    -0.09352478     1.91404287    -0.00045372    -0.00032714     0.00045708
H        -0.88950775     0.00296155     1.83269691     0.00036932     0.00000090     0.00010064
H        -1.03041410     0.00914851    -0.51561166     0.00025735    -0.00027007    -0.00021957
     6
  Step:    13            Position(A)                                  Velocity(au)
C        -0.03266278     0.03140217    -0.01816800    -0.00001864     0.00005876    -0.00058947
N        -0.05203825    -0.06578400     1.32994566     0.00003600    -0.00001466     0.00052535
H         0.95467674    -0.04522878    -0.60583656    -0.00004954     0.00005458    -0.00061307
H         0.86182975    -0.09528206     1.91625483    -0.00062285    -0.00031031     0.00034793
H        -0.88811250     0.00305645     1.83371693     0.00013263     0.00003390     0.00027073
H        -1.02897440     0.00764650    -0.51699281     0.00026170    -0.00027465    -0.00028183
     6
  Step:    14            Position(A)                                  Velocity(au)
C        -0.03274175     0.03172668    -0.02138769    -0.00001145     0.00006083    -0.00062913
N        -0.05175850    -0.06587503     1.33280991     0.00006504    -0.00002076     0.00055412
H         0.95410194    -0.04491549    -0.60913815    -0.00018001     0.00010055    -0.00054206
H         0.85794297    -0.09694821     1.91788135    -0.00080089    -0.00033388     0.00022718
H        -0.88804450     0.00333555     1.83568362    -0.00008562     0.00010767     0.00041951
H        -1.02752695     0.00611850    -0.51872083     0.00029919    -0.00031062    -0.00030809
     6
  Step:    15            Position(A)                                  Velocity(au)
C        -0.03278915     0.03207363    -0.02511304    -0.00000567     0.00006453    -0.00071781
N        -0.05132029    -0.06601319     1.33606264     0.00009267    -0.00002897     0.00062215
H         0.95268964    -0.04411877    -0.61182036    -0.00032903     0.00017865    -0.00042974
H         0.85298871    -0.09896772     1.91876266    -0.00098361    -0.00038713     0.00009612
H        -0.88905769     0.00424506     1.83834796    -0.00027662     0.00020901     0.00053950
H        -1.02567163     0.00421753    -0.52039383     0.00036914    -0.00036683    -0.00029806
     6
  Step:    16            Position(A)                                  Velocity(au)
C        -0.03280438     0.03243969    -0.02931903     0.00000017     0.00006752    -0.00079933
N        -0.05073461    -0.06619516     1.33968431     0.00011764    -0.00003646     0.00068444
H         0.95046636    -0.04294149    -0.61388650    -0.00047031     0.00024220    -0.00031971
H         0.84707471    -0.10122571     1.91894344    -0.00114197    -0.00042446    -0.00002367
H        -0.89110101     0.00564497     1.84164471    -0.00045431     0.00029026     0.00064631
H        -1.02344819     0.00206527    -0.52201417     0.00042993    -0.00040591    -0.00028925
     6
  Step:    17            Position(A)                                  Velocity(au)
C        -0.03278730     0.03282074    -0.03395742     0.00000594     0.00006969    -0.00087038
N        -0.05001868    -0.06641660     1.34363579     0.00013887    -0.00004305     0.00073826
H         0.94748572    -0.04143893    -0.61535789    -0.00059915     0.00029675    -0.00021502
H         0.84035302    -0.10366428     1.91850077    -0.00126844    -0.00045279    -0.00012689
H        -0.89408456     0.00745676     1.84549922    -0.00061168     0.00035860     0.00073745
H        -1.02091452    -0.00027376    -0.52359426     0.00047874    -0.00043471    -0.00028301
     6
  Step:    18            Position(A)                                  Velocity(au)
C        -0.03273851     0.03321220    -0.03896746     0.00001151     0.00007097    -0.00092911
N        -0.04919523    -0.06667237     1.34786806     0.00015544    -0.00004861     0.00078214
H         0.94382458    -0.03965189    -0.61627001    -0.00071145     0.00034416    -0.00011828
H         0.83301378    -0.10624500     1.91753683    -0.00135665    -0.00047488    -0.00020923
H        -0.89788169     0.00962012     1.84981948    -0.00074262     0.00041632     0.00080999
H        -1.01814119    -0.00275355    -0.52515140     0.00051358    -0.00045576    -0.00028010
     6
  Step:    19            Position(A)                                  Velocity(au)
C        -0.03265946     0.03360922    -0.04427977     0.00001670     0.00007136    -0.00097444
N        -0.04829173    -0.06695664     1.35232538     0.00016665    -0.00005304     0.00081530
H         0.93958153    -0.03761534    -0.61667195    -0.00080364     0.00038524    -0.00003193
H         0.82528068    -0.10894017     1.91617622    -0.00140166    -0.00049241    -0.00026712
H        -0.90233508     0.01208202     1.85449814    -0.00084260     0.00046438     0.00086184
H        -1.01520862    -0.00533729    -0.52670618     0.00053315    -0.00047056    -0.00028105
     6
  Step:    20            Position(A)                                  Velocity(au)
C        -0.03255256     0.03400701    -0.04982008     0.00002135     0.00007093    -0.00100622
N        -0.04733918    -0.06726305     1.35694835     0.00017210    -0.00005629     0.00083766
H         0.93487420    -0.03536133    -0.61662560    -0.00087300     0.00042056     0.00004189
H         0.81740299    -0.11172911     1.91456179    -0.00140059    -0.00050671    -0.00029806
H        -0.90726594     0.01479211     1.85941802    -0.00090919     0.00050342     0.00089225
H        -1.01220337    -0.00799434    -0.52828158     0.00053696    -0.00048025    -0.00028625
     6
  Step:    21            Position(A)                                  Velocity(au)
C        -0.03242114     0.03440110    -0.05551390     0.00002531     0.00006977    -0.00102527
N        -0.04637034    -0.06758505     1.36167755     0.00017173    -0.00005838     0.00084990
H         0.92983479    -0.03291992    -0.61620423    -0.00091794     0.00045071     0.00010154
H         0.80964351    -0.11459741     1.91284850    -0.00135305    -0.00051909    -0.00030086
H        -0.91248586     0.01770255     1.86445984    -0.00094235     0.00053421     0.00090202
H        -1.00921370    -0.01069917    -0.52990205     0.00052542    -0.00048597    -0.00029595
     6
  Step:    22            Position(A)                                  Velocity(au)
C        -0.03226942     0.03478767    -0.06129165     0.00002845     0.00006806    -0.00103330
N        -0.04541774    -0.06791623     1.36645768     0.00016585    -0.00005940     0.00085344
H         0.92460350    -0.03031845    -0.61548952    -0.00093817     0.00047650     0.00014602
H         0.80226403    -0.11753716     1.91119553    -0.00126116    -0.00053095    -0.00027581
H        -0.91780966     0.02076933     1.86951061    -0.00094419     0.00055787     0.00089334
H        -1.00632456    -0.01343177    -0.53159288     0.00049976    -0.00048894    -0.00031033
     6
  Step:    23            Position(A)                                  Velocity(au)
C        -0.03210229     0.03516378    -0.06709348     0.00003070     0.00006597    -0.00103262
N        -0.04451173    -0.06825070     1.37124151     0.00015504    -0.00005949     0.00085019
H         0.91932130    -0.02758007    -0.61456788    -0.00093438     0.00049898     0.00017500
H         0.79551045    -0.12054749     1.90975769    -0.00112916    -0.00054370    -0.00022451
H        -0.92306688     0.02395429     1.87447096    -0.00091843     0.00057580     0.00086931
H        -1.00361319    -0.01617848    -0.53337978     0.00046174    -0.00049047    -0.00032954
     6
  Step:    24            Position(A)                                  Velocity(au)
C        -0.03192516     0.03552748    -0.07287246     0.00003197     0.00006367    -0.00102569
N        -0.04367899    -0.06858337     1.37599253     0.00014001    -0.00005880     0.00084219
H         0.91412448    -0.02472235    -0.61352690    -0.00090783     0.00051932     0.00018866
H         0.78960058    -0.12363477     1.90867764    -0.00096250    -0.00055864    -0.00014957
H        -0.92810988     0.02722691     1.87925991    -0.00086951     0.00058952     0.00083337
H        -1.00114615    -0.01893238    -0.53528869     0.00041332    -0.00049175    -0.00035364
     6
  Step:    25            Position(A)                                  Velocity(au)
C        -0.03174379     0.03587771    -0.07859526     0.00003222     0.00006129    -0.00101461
N        -0.04294172    -0.06891004     1.38068558     0.00012152    -0.00005748     0.00083121
H         0.90914110    -0.02175652    -0.61245231    -0.00085989     0.00053858     0.00018752
H         0.78471722    -0.12681189     1.90808041    -0.00076722    -0.00057674    -0.00005429
H        -0.93281740     0.03056498     1.88381621    -0.00080182     0.00060042     0.00078870
H        -0.99897835    -0.02169289    -0.53734539     0.00035636    -0.00049378    -0.00038255
     6
  Step:    26            Position(A)                                  Velocity(au)
C        -0.03156418     0.03621419    -0.08424030     0.00003139     0.00005892    -0.00100088
N        -0.04231747    -0.06922742     1.38530553     0.00010031    -0.00005567     0.00081855
H         0.90449015    -0.01868805    -0.61142592    -0.00079168     0.00055757     0.00017226
H         0.78100457    -0.13009659     1.90806937    -0.00054963    -0.00059853     0.00005750
H        -0.93709352     0.03395406     1.88809664    -0.00071917     0.00060959     0.00073788
H        -0.99715349    -0.02446470    -0.53957480     0.00029251    -0.00049717    -0.00041600
     6
  Step:    27            Position(A)                                  Velocity(au)
C        -0.03139258     0.03653702    -0.08979410     0.00002942     0.00005660    -0.00098525
N        -0.04181933    -0.06953290     1.38984438     0.00007710    -0.00005344     0.00080494
H         0.90028300    -0.01551789    -0.61052486    -0.00070406     0.00057675     0.00014366
H         0.77856744    -0.13350887     1.90872373    -0.00031638    -0.00062400     0.00018143
H        -0.94086423     0.03738564     1.89207240    -0.00062477     0.00061769     0.00068284
H        -0.99570550    -0.02725578    -0.54199998     0.00022323    -0.00050221    -0.00045343
     6
  Step:    28            Position(A)                                  Velocity(au)
C        -0.03123544     0.03684649    -0.09524749     0.00002629     0.00005430    -0.00096794
N        -0.04145613    -0.06982445     1.39429837     0.00005260    -0.00005087     0.00079070
H         0.89662435    -0.01224463    -0.60982098    -0.00059800     0.00059634     0.00010264
H         0.77746992    -0.13706790     1.91009629    -0.00007474    -0.00065265     0.00031261
H        -0.94407343     0.04085490     1.89572539    -0.00052135     0.00062508     0.00062505
H        -0.99465959    -0.03007541    -0.54464059     0.00014994    -0.00050884    -0.00049407
     6
  Step:    29            Position(A)                                  Velocity(au)
C        -0.03109931     0.03714278    -0.10059251     0.00002197     0.00005199    -0.00094886
N        -0.04123253    -0.07010043     1.39866545     0.00002757    -0.00004802     0.00077587
H         0.89361162    -0.00886505    -0.60937982    -0.00047493     0.00061643     0.00005043
H         0.77773366    -0.14078993     1.91221127     0.00016737    -0.00068366     0.00044568
H        -0.94668050     0.04435908     1.89904556    -0.00041152     0.00063190     0.00056574
H        -0.99403279    -0.03293244    -0.54751182     0.00007413    -0.00051680    -0.00053689
     6
  Step:    30            Position(A)                                  Velocity(au)
C        -0.03099059     0.03742582    -0.10582076     0.00001653     0.00004963    -0.00092784
N        -0.04114891    -0.07035959     1.40294396     0.00000280    -0.00004496     0.00076044
H         0.89133218    -0.00537574    -0.60925903    -0.00033699     0.00063692    -0.00001137
H         0.77933497    -0.14468596     1.91506250     0.00040148    -0.00071589     0.00057499
H        -0.94865901     0.04789626     1.90202948    -0.00029784     0.00063821     0.00050605
H        -0.99383355    -0.03583421    -0.55062316    -0.00000253    -0.00052575    -0.00058074
     6
  Step:    31            Position(A)                                  Velocity(au)
C        -0.03091530     0.03769532    -0.11092292     0.00001005     0.00004717    -0.00090473
N        -0.04120131    -0.07060106     1.40713201    -0.00002090    -0.00004177     0.00074435
H         0.88985959    -0.00177369    -0.60950644    -0.00018720     0.00065771    -0.00008079
H         0.78220370    -0.14876049     1.91861307     0.00061912    -0.00074809     0.00069502
H        -0.94999664     0.05146482     1.90467986    -0.00018300     0.00064404     0.00044717
H        -0.99406091    -0.03878603    -0.55397765    -0.00007822    -0.00053528    -0.00062439
     6
  Step:    32            Position(A)                                  Velocity(au)
C        -0.03087875     0.03795076    -0.11588887     0.00000271     0.00004458    -0.00087949
N        -0.04138149    -0.07082444     1.41122737    -0.00004278    -0.00003853     0.00072761
H         0.88924892     0.00194352    -0.61015803    -0.00002940     0.00067869    -0.00015545
H         0.78622479    -0.15301090     1.92279691     0.00081244    -0.00077898     0.00080076
H        -0.95069552     0.05506340     1.90700569    -0.00006974     0.00064949     0.00039029
H        -0.99470402    -0.04179095    -0.55757162    -0.00015107    -0.00054500    -0.00066664
     6
  Step:    33            Position(A)                                  Velocity(au)
C        -0.03088516     0.03819138    -0.12070836    -0.00000527     0.00004184    -0.00085223
N        -0.04167729    -0.07102979     1.41522757    -0.00006216    -0.00003534     0.00071023
H         0.88953249     0.00577761    -0.61123602     0.00013191     0.00069976    -0.00023274
H         0.79124309    -0.15742755     1.92752252     0.00097478    -0.00080735     0.00088806
H        -0.95077258     0.05869118     1.90902232     0.00003920     0.00065469     0.00033665
H        -0.99574178    -0.04484979    -0.56139478    -0.00021922    -0.00055455    -0.00070631
     6
  Step:    34            Position(A)                                  Velocity(au)
C        -0.03093738     0.03841629    -0.12537164    -0.00001362     0.00003891    -0.00082317
N        -0.04207318    -0.07121766     1.41913008    -0.00007850    -0.00003228     0.00069226
H         0.89071668     0.00972971    -0.61274769     0.00029182     0.00072083    -0.00030989
H         0.79707109    -0.16199427     1.93267829     0.00110113    -0.00083216     0.00095387
H        -0.95025937     0.06234813     1.91075153     0.00014117     0.00065987     0.00028743
H        -0.99714323    -0.04796135    -0.56543066    -0.00028091    -0.00056360    -0.00074238
     6
  Step:    35            Position(A)                                  Velocity(au)
C        -0.03103675     0.03862450    -0.12987009    -0.00002205     0.00003581    -0.00079260
N        -0.04255099    -0.07138910     1.42293232    -0.00009139    -0.00002945     0.00067375
H         0.89278041     0.01380030    -0.61468505     0.00044534     0.00074181    -0.00038419
H         0.80349852    -0.16668942     1.93813895     0.00118840    -0.00085258     0.00099640
H        -0.94920140     0.06603542     1.91222132     0.00023373     0.00066529     0.00024374
H        -0.99886832    -0.05112259    -0.56965735    -0.00033464    -0.00057189    -0.00077398
     6
  Step:    36            Position(A)                                  Velocity(au)
C        -0.03118294     0.03881497    -0.13419669    -0.00003028     0.00003252    -0.00076092
N        -0.04309076    -0.07154559     1.42663185    -0.00010060    -0.00002692     0.00065478
H         0.89567529     0.01798923    -0.61702536     0.00058775     0.00076263    -0.00045312
H         0.81030315    -0.17148717     1.94377250     0.00123550    -0.00086804     0.00101511
H        -0.94765692     0.06975567     1.91346538     0.00031476     0.00067128     0.00020656
H        -1.00086928    -0.05432901    -0.57404846    -0.00037918    -0.00057923    -0.00080047
     6
  Step:    37            Position(A)                                  Velocity(au)
C        -0.03137403     0.03898673    -0.13834646    -0.00003802     0.00002906    -0.00072855
N        -0.04367168    -0.07168899     1.43022637    -0.00010607    -0.00002475     0.00063542
H         0.89932780     0.02229578    -0.61973264     0.00071488     0.00078324    -0.00051452
H         0.81726161    -0.17635911     1.94944701     0.00124321    -0.00087828     0.00101066
H        -0.94569504     0.07351327     1.91452230     0.00038254     0.00067821     0.00017669
H        -1.00309231    -0.05757505    -0.57857431    -0.00041365    -0.00058549    -0.00082140
     6
  Step:    38            Position(A)                                  Velocity(au)
C        -0.03160665     0.03913885    -0.14231661    -0.00004504     0.00002546    -0.00069594
N        -0.04427292    -0.07182144     1.43371381    -0.00010786    -0.00002299     0.00061576
H         0.90364289     0.02671869    -0.62275988     0.00082337     0.00080359    -0.00056671
H         0.82415916    -0.18127583     1.95503664     0.00121391    -0.00088330     0.00098463
H        -0.94339337     0.07731450     1.91543460     0.00043584     0.00068646     0.00015471
H        -1.00547957    -0.06085447    -0.58320320    -0.00043755    -0.00059062    -0.00083657
     6
  Step:    39            Position(A)                                  Velocity(au)
C        -0.03187622     0.03927058    -0.14610659    -0.00005115     0.00002173    -0.00066351
N        -0.04487441    -0.07194531     1.43709244    -0.00010619    -0.00002166     0.00059588
H         0.90850890     0.03125626    -0.62605184     0.00091081     0.00082365    -0.00060852
H         0.83079743    -0.18620845     1.96042626     0.00115116    -0.00088338     0.00093934
H        -0.94083520     0.08116767     1.91624739     0.00047393     0.00069642     0.00014097
H        -1.00797123    -0.06416083    -0.58790263    -0.00045072    -0.00059465    -0.00084602
     6
  Step:    40            Position(A)                                  Velocity(au)
C        -0.03217724     0.03938128    -0.14971806    -0.00005623     0.00001792    -0.00063164
N        -0.04545747    -0.07206306     1.44036094    -0.00010135    -0.00002078     0.00057589
H         0.91380309     0.03590651    -0.62954802     0.00097581     0.00084342    -0.00063932
H         0.83700045    -0.19112995     1.96551500     0.00105940    -0.00087897     0.00087756
H        -0.93810662     0.08508309     1.91700708     0.00049665     0.00070846     0.00013555
H        -1.01050739    -0.06748785    -0.59264059    -0.00045336    -0.00059767    -0.00084994
     6
  Step:    41            Position(A)                                  Velocity(au)
C        -0.03250366     0.03947054    -0.15315462    -0.00006020     0.00001405    -0.00060066
N        -0.04600532    -0.07217718     1.44351843    -0.00009372    -0.00002034     0.00055587
H         0.91939725     0.04066735    -0.63318561     0.00101788     0.00086291    -0.00065896
H         0.84261854    -0.19601629     1.97021831     0.00094348    -0.00087070     0.00080230
H        -0.93529339     0.08907286     1.91775992     0.00050436     0.00072289     0.00013831
H        -1.01302992    -0.07082983    -0.59738649    -0.00044591    -0.00059981    -0.00084868
     6
  Step:    42            Position(A)                                  Velocity(au)
C        -0.03284912     0.03953810    -0.15642147    -0.00006305     0.00001015    -0.00057081
N        -0.04650340    -0.07229011     1.44656448    -0.00008371    -0.00002034     0.00053589
H         0.92516266     0.04553667    -0.63690208     0.00103736     0.00088217    -0.00066769
H         0.84752972    -0.20084706     1.97446869     0.00080834    -0.00085927     0.00071657
H        -0.93247798     0.09315062     1.91855057     0.00049789     0.00073997     0.00014881
H        -1.01548380    -0.07418182    -0.60211194    -0.00042905    -0.00060125    -0.00084271
     6
  Step:    43            Position(A)                                  Velocity(au)
C        -0.03320726     0.03958387    -0.15952504    -0.00006477     0.00000625    -0.00054227
N        -0.04693955    -0.07240414     1.44949907    -0.00007176    -0.00002073     0.00051601
H         0.93097440     0.05051257    -0.64063725     0.00103524     0.00090123    -0.00066610
H         0.85163984    -0.20560596     1.97821543     0.00065883    -0.00084541     0.00062328
H        -0.92973678     0.09733110     1.91942068     0.00047857     0.00075984     0.00016642
H        -1.01781825    -0.07753989    -0.60679133    -0.00040359    -0.00060215    -0.00083253
     6
  Step:    44            Position(A)                                  Velocity(au)
C        -0.03357193     0.03960789    -0.16247260    -0.00006545     0.00000238    -0.00051513
N        -0.04730414    -0.07252139     1.45232257    -0.00005831    -0.00002147     0.00049628
H         0.93671480     0.05559333    -0.64433498     0.00101304     0.00092012    -0.00065499
H         0.85488151    -0.21028089     1.98142377     0.00049951    -0.00082987     0.00052512
H        -0.92713766     0.10162960     1.92040767     0.00044808     0.00078255     0.00019030
H        -1.01998737    -0.08090113    -0.61140200    -0.00037040    -0.00060270    -0.00081866
     6