     6
  Step:   120            Position(A)                                  Velocity(au)
C        -0.03450334    -0.02465148    -0.11610914    -0.00002965     0.00000608     0.00056483
N        -0.03809045    -0.12153286     1.42424122     0.00004085     0.00001485    -0.00047045
H         0.89897686    -0.01572992    -0.70963209    -0.00016244    -0.00154085    -0.00000183
H         0.60107663     0.67394205     1.73389962    -0.00120992     0.00137410    -0.00071610
H        -0.94171085    -0.03566357     1.93238186     0.00035648    -0.00129749    -0.00025532
H        -0.83082605     0.69028971    -0.47279269     0.00080149     0.00118538     0.00078032
