|===============================================================================
|
|  DFTB+ release 20.1
|
|  Copyright (C) 2006 - 2020  DFTB+ developers group
|
|===============================================================================
|
|  When publishing results obtained with DFTB+, please cite the following
|  reference:
|
|  * DFTB+, a software package for efficient approximate density functional
|    theory based atomistic simulations, J. Chem. Phys. 152, 124101 (2020).
|    [doi: 10.1063/1.5143190]
|
|  You should also cite additional publications crediting the parametrization
|  data you use. Please consult the documentation of the SK-files for the
|  references.
|
|===============================================================================

Reading input file 'dftb_in.hsd'
Parser version: 8

--------------------------------------------------------------------------------
Reading SK-files:
Done.


Processed input in HSD format written to 'dftb_pin.hsd'

Starting initialization...
--------------------------------------------------------------------------------
OpenMP threads:              1
Chosen random seed:          509702106
Mode:                        Static calculation
Self consistent charges:     Yes
SCC-tolerance:                 0.100000E-05
Max. scc iterations:                   1000
Shell resolved Hubbard:      No
Spin polarisation:           No
Nr. of up electrons:             6.000000
Nr. of down electrons:           6.000000
Periodic boundaries:         No
Electronic solver:           Relatively robust
Maximal SCC-cycles:                    1000
Initial charges:             Set automatically (system chrg:   0.100E+01)
Included shells:             C:  s, p
                             N:  s, p
                             H:  s
Spin coupling constants:     C   1(s)-1(s):  -0.455900E-01
                             C   1(s)-2(p):  -0.293000E-01
                             C   2(p)-1(s):  -0.293000E-01
                             C   2(p)-2(p):  -0.275500E-01
                             N   1(s)-1(s):  -0.468700E-01
                             N   1(s)-2(p):  -0.317000E-01
                             N   2(p)-1(s):  -0.317000E-01
                             N   2(p)-2(p):  -0.307200E-01
                             H   1(s)-1(s):  -0.792500E-01
Range separated hybrid:      Yes
  Screening parameter omega:   0.300000E+00
  Range separated algorithm:   MatrixBased
Extra options:
                             Mulliken analysis
                             Force calculation
Force type                   original
                             Eigenvector printing


REKS Calcuation:             Yes
SSR(2,2) Calcuation:         Yes
Energy Functional:           (PPS+OSS)/2
Number of Core Orbitals:                  5
Number of Active Orbitals:                2
Number of Basis:                         12
Number of States:                         2
State-Averaging Weight:          0.500000
                                 0.500000
State of Interest:                        1
Initial Guess:               Diagonalize H0 matrix
Newton-Raphson for FON opt:  Yes
NR max. Iterations:                      50
Level Shifting:              Yes
Shift Value:                     0.300000
W Scale Factor:              C  =    3.000000
                             N  =    3.000000
                             H  =    3.000000
Transition Dipole:           No
Gradient of Microstate:      No
CP-REKS Solver:              Preconditioned Conjugate-Gradient
CG max. Iterations:                     100
CG Tolerance:                  0.100000E-07
Memory for A and Hxc:        Direct Updating Without Saving
Non-Adiabatic Coupling:      Yes

--------------------------------------------------------------------------------

***  Geometry step: 0

  iSCC       reks energy        Diff energy         x_a       SCC error   
    1       -6.2625075909       0.0000000000     0.999654    1.19221229
    2       -6.2741427396      -0.0116351488     0.999847    0.08661692
    3       -6.2781484630      -0.0040057234     0.999913    0.03600393
    4       -6.2802560333      -0.0021075702     0.999941    0.01735108
    5       -6.2814557212      -0.0011996879     0.999955    0.00899751
    6       -6.2821474087      -0.0006916875     0.999963    0.00790985
    7       -6.2825435190      -0.0003961103     0.999967    0.00654740
    8       -6.2827679829      -0.0002244640     0.999969    0.00521707
    9       -6.2828941103      -0.0001261274     0.999971    0.00405395
   10       -6.2829646488      -0.0000705385     0.999971    0.00309757
   11       -6.2830040614      -0.0000394125     0.999972    0.00234024
   12       -6.2830261339      -0.0000220725     0.999972    0.00175490
   13       -6.2830385568      -0.0000124229     0.999972    0.00130968
   14       -6.2830455975      -0.0000070407     0.999972    0.00097464
   15       -6.2830496213      -0.0000040238     0.999973    0.00072429
   16       -6.2830519422      -0.0000023209     0.999973    0.00053807
   17       -6.2830532937      -0.0000013515     0.999973    0.00039993
   18       -6.2830540882      -0.0000007945     0.999973    0.00030883
   19       -6.2830545595      -0.0000004713     0.999973    0.00025086
   20       -6.2830548414      -0.0000002819     0.999973    0.00020620
   21       -6.2830550114      -0.0000001700     0.999973    0.00016864
   22       -6.2830551146      -0.0000001032     0.999973    0.00013734
   23       -6.2830551775      -0.0000000630     0.999973    0.00011146
   24       -6.2830552162      -0.0000000386     0.999973    0.00009018
   25       -6.2830552400      -0.0000000238     0.999973    0.00007279
   26       -6.2830552547      -0.0000000147     0.999973    0.00005862
   27       -6.2830552639      -0.0000000091     0.999973    0.00004712
   28       -6.2830552696      -0.0000000057     0.999973    0.00003781
   29       -6.2830552731      -0.0000000035     0.999972    0.00003030
   30       -6.2830552753      -0.0000000022     0.999972    0.00002425
   31       -6.2830552767      -0.0000000014     0.999972    0.00001939
   32       -6.2830552776      -0.0000000009     0.999972    0.00001549
   33       -6.2830552781      -0.0000000005     0.999972    0.00001236
   34       -6.2830552785      -0.0000000003     0.999972    0.00000986
   35       -6.2830552787      -0.0000000002     0.999972    0.00000786
   36       -6.2830552788      -0.0000000001     0.999972    0.00000626
   37       -6.2830552789      -0.0000000001     0.999972    0.00000498
   38       -6.2830552789      -0.0000000001     0.999972    0.00000397
   39       -6.2830552790      -0.0000000000     0.999972    0.00000315
   40       -6.2830552790      -0.0000000000     0.999972    0.00000251
   41       -6.2830552790      -0.0000000000     0.999972    0.00000199
   42       -6.2830552790      -0.0000000000     0.999972    0.00000159
   43       -6.2830552790      -0.0000000000     0.999972    0.00000126
   44       -6.2830552790      -0.0000000000     0.999972    0.00000100
   45       -6.2830552790      -0.0000000000     0.999972    0.00000079
  
--------------------------------------------------
 Final SA-REKS(2,2) energy:      -6.28305528
  
 State     Energy      FON(1)    FON(2)   Spin
  PPS   -6.41304776   1.999945  0.000055  0.00
  OSS   -6.15306280   1.000000  1.000000  0.00
 Trip   -6.23103495   1.000000  1.000000  1.00
--------------------------------------------------

 Lagrangian Wab:  -0.00274103 -0.00274094

--------------------------------------------------
 SSR: 2SI-2SA-REKS(2,2) Hamiltonian matrix
               PPS           OSS
   PPS    -6.41304776   -0.00385601
   OSS    -0.00385601   -6.15306280
--------------------------------------------------

----------------------------------------------------------------
 SSR: 2SI-2SA-REKS(2,2) states
                    E_n       C_{PPS}    C_{OSS}
 SSR state  1   -6.41310494  -0.999890  -0.014827
 SSR state  2   -6.15300562   0.014827  -0.999890
----------------------------------------------------------------

 unrelaxed SSR FONs for S0:  1.999725  0.000275

Total Energy:                       -6.4131049399 H         -174.5095 eV
Extrapolated to 0:                  -6.4131049399 H         -174.5095 eV

----------------------------------------------------------------------------------
 Solving CP-REKS equation for  1 state vector...
----------------------------------------------------------------------------------
  CG solver: Constructing Y initial guess
  CG solver: Iteration    1    eps =    0.000045226770
  CG solver: Iteration    2    eps =    0.000008895766
  CG solver: Iteration    3    eps =    0.000000376593
  CG solver: Iteration    4    eps =    0.000000057473
  CG solver: Iteration    5    eps =    0.000000009452
  Convergence reached in CG solver after    5 iterations
  CG solver: Calculating converged R, Z, Q2 matrix
----------------------------------------------------------------------------------

----------------------------------------------------------------------------------
 Solving CP-REKS equation for SI between  1 and  2 state vectors...
----------------------------------------------------------------------------------
  CG solver: Constructing Y initial guess
  CG solver: Iteration    1    eps =    0.000700570916
  CG solver: Iteration    2    eps =    0.000414049302
  CG solver: Iteration    3    eps =    0.000134769009
  CG solver: Iteration    4    eps =    0.000002027176
  CG solver: Iteration    5    eps =    0.000000284856
  CG solver: Iteration    6    eps =    0.000000008121
  Convergence reached in CG solver after    6 iterations
  CG solver: Calculating converged R, Z, Q2 matrix
----------------------------------------------------------------------------------

--------------------------------------------------
 Gradient Information
--------------------------------------------------
           1 st state (SSR)
     0.00480130    -0.01341815     0.02854806
    -0.02172675    -0.00296091    -0.03435380
     0.00664263     0.00120078     0.00858161
     0.01432571     0.00585028     0.00101401
     0.00234215     0.00725999     0.00341925
    -0.00638504     0.00206801    -0.00720913

           2 st state (SSR)
    -0.00701716     0.00000858     0.13760261
     0.01447071     0.00384963    -0.16064941
    -0.00680274    -0.01807595     0.02330447
    -0.00995801     0.01112682    -0.00702144
     0.00101655    -0.00300716    -0.00576175
     0.00829064     0.00609807     0.01252552
--------------------------------------------------
 Coupling Information
--------------------------------------------------
 between  1 and  2 states
--------------------------------------------------
 g vector - difference gradient
     0.00587939    -0.00659762    -0.05460495
    -0.01822456    -0.00358628     0.06321338
     0.00696950     0.00958304    -0.00737838
     0.01240520    -0.00258391     0.00399754
     0.00048124     0.00520676     0.00463546
    -0.00751077    -0.00202198    -0.00986305

 h vector - derivative coupling
     0.00109354    -0.00400148     0.00181004
     0.00397370     0.00605163    -0.00127418
    -0.00822080     0.00200808     0.00046240
    -0.00869765    -0.00187169     0.00073989
     0.00613036    -0.00239090    -0.00144761
     0.00572084     0.00020436    -0.00029054

 G vector - GDV
     0.00590923    -0.00671337    -0.05452727
    -0.01809873    -0.00340527     0.06314781
     0.00672268     0.00963836    -0.00736143
     0.01214186    -0.00263827     0.00401772
     0.00066280     0.00513358     0.00459050
    -0.00733784    -0.00201503    -0.00986733

 H vector - DCV - non-adiabatic coupling
     0.00353224    -0.01462557     0.01318072
     0.01734844     0.02366520    -0.01210273
    -0.03238697     0.00662461     0.00261810
    -0.03483916    -0.00689833     0.00238768
     0.02350409    -0.00978176    -0.00609159
     0.02284136     0.00101586     0.00000780
--------------------------------------------------


--------------------------------------------------------------------------------
DFTB+ running times                          cpu [s]             wall clock [s]
--------------------------------------------------------------------------------
SCC                                    +     0.02  ( 66.1%)      0.02  ( 63.9%)
Post-SCC processing                    +     0.01  ( 29.5%)      0.01  ( 27.8%)
--------------------------------------------------------------------------------
Missing                                +     0.00  (  4.3%)      0.00  (  8.3%)
Total                                  =     0.03  (100.0%)      0.04  (100.0%)
--------------------------------------------------------------------------------
