     6
  Step:     0            Position(A)                                  Velocity(au)
C        -0.03342168    -0.00325513     0.03811967    -0.00003820     0.00011495    -0.00002711
N        -0.04914484    -0.04249570     1.27661421    -0.00017452    -0.00008109     0.00001462
H         0.86297244     0.05785114    -0.49502483    -0.00012897    -0.00060574     0.00053673
H         0.81574290    -0.13688611     1.87881099     0.00106582     0.00037924     0.00083442
H        -0.84187895    -0.07531398     1.84413025     0.00182729     0.00011565    -0.00075503
H        -0.96858527     0.11389442    -0.53039100     0.00011634    -0.00013202    -0.00049618
     6
  Step:     1            Position(A)                                  Velocity(au)
C        -0.03395705    -0.00201265     0.03687321    -0.00005966     0.00011270    -0.00019756
N        -0.05083111    -0.04339273     1.27770816    -0.00012413    -0.00008317     0.00017932
H         0.86417568     0.05153948    -0.49132617     0.00035397    -0.00055156     0.00013562
H         0.82683683    -0.13275105     1.88731344     0.00092258     0.00038237     0.00068812
H        -0.82484787    -0.07423048     1.83787395     0.00118366     0.00007860    -0.00031141
H        -0.96810004     0.11264775    -0.53668417    -0.00002424    -0.00009666    -0.00065004
     6
  Step:     2            Position(A)                                  Velocity(au)
C        -0.03472696    -0.00078950     0.03379774    -0.00007990     0.00011141    -0.00035861
N        -0.05186034    -0.04431514     1.28053712    -0.00005823    -0.00008559     0.00032962
H         0.87071621     0.04578476    -0.49205787     0.00082139    -0.00050528    -0.00025677
H         0.83592605    -0.12852113     1.89386492     0.00071155     0.00039460     0.00048907
H        -0.81598412    -0.07359450     1.83731756     0.00038075     0.00003586     0.00025300
H        -0.96911566     0.11177990    -0.54461177    -0.00015230    -0.00006339    -0.00079247
     6
  Step:     3            Position(A)                                  Velocity(au)
C        -0.03570496     0.00042473     0.02902785    -0.00009680     0.00011100    -0.00050503
N        -0.05210508    -0.04526513     1.28491918     0.00001425    -0.00008813     0.00046285
H         0.88214522     0.04048553    -0.49694360     0.00122631    -0.00046881    -0.00061024
H         0.84240325    -0.12411851     1.89801280     0.00045675     0.00041229     0.00025960
H        -0.81651820    -0.07344606     1.84340876    -0.00047037    -0.00000804     0.00085555
H        -0.97143194     0.11126090    -0.55402089    -0.00025706    -0.00003337    -0.00091878
     6
  Step:     4            Position(A)                                  Velocity(au)
C        -0.03684470     0.00163884     0.02274924    -0.00010903     0.00011126    -0.00063269
N        -0.05154869    -0.04624323     1.29066281     0.00008325    -0.00009067     0.00057898
H         0.89754410     0.03552871    -0.50540802     0.00153349    -0.00044244    -0.00090243
H         0.84591839    -0.11950143     1.89954408     0.00018155     0.00043245     0.00002114
H        -0.82627437    -0.07377042     1.85603425    -0.00124276    -0.00004839     0.00140011
H        -0.97473941     0.11104989    -0.56471188    -0.00032980    -0.00000740    -0.00102532
     6
  Step:     5            Position(A)                                  Velocity(au)
C        -0.03809024     0.00285879     0.01518653    -0.00011619     0.00011191    -0.00073856
N        -0.05028388    -0.04724872     1.29758551     0.00014007    -0.00009306     0.00067862
H         0.91569323     0.03080636    -0.51668598     0.00172418    -0.00042518    -0.00112142
H         0.84637501    -0.11465791     1.89847525    -0.00009029     0.00045257    -0.00020549
H        -0.84370606    -0.07450475     1.87403883    -0.00183114    -0.00008171     0.00180705
H        -0.97864695     0.11109897    -0.57645173    -0.00036459     0.00001405    -0.00110973
     6
  Step:     6            Position(A)                                  Velocity(au)
C        -0.03938668     0.00408710     0.00659185    -0.00011872     0.00011263    -0.00082067
N        -0.04848433    -0.04827916     1.30550895     0.00017911    -0.00009512     0.00076144
H         0.93526394     0.02622697    -0.52994131     0.00179566    -0.00041535    -0.00126506
H         0.84394310    -0.10960062     1.89504861    -0.00033328     0.00047062    -0.00039964
H        -0.86633411    -0.07555788     1.89556682    -0.00217787    -0.00010642     0.00203387
H        -0.98271558     0.11135734    -0.58898945    -0.00035873     0.00003092    -0.00117111
     6
  Step:     7            Position(A)                                  Velocity(au)
C        -0.04068736     0.00532287    -0.00276728    -0.00011747     0.00011315    -0.00087820
N        -0.04636559    -0.04932976     1.31424338     0.00019802    -0.00009664     0.00082586
H         0.95497670     0.02171970    -0.54436149     0.00175703    -0.00041107    -0.00133820
H         0.83908396    -0.10436224     1.88973234    -0.00051999     0.00048506    -0.00054107
H        -0.89135124    -0.07683290     1.91853353    -0.00227609    -0.00012277     0.00207744
H        -0.98649491     0.11177544    -0.60207208    -0.00031280     0.00004346    -0.00120996
     6
  Step:     8            Position(A)                                  Velocity(au)
C        -0.04195660     0.00656236    -0.01262043    -0.00011343     0.00011322    -0.00091147
N        -0.04415230    -0.05039326     1.32357632     0.00019686    -0.00009740     0.00086986
H         0.97370239     0.01723394    -0.55921698     0.00162415    -0.00041071    -0.00134965
H         0.83256741    -0.09898892     1.88321160    -0.00062260     0.00049505    -0.00061125
H        -0.91612801    -0.07824379     1.94101478    -0.00215522    -0.00013213     0.00196220
H        -0.98955868     0.11230807    -0.61545966    -0.00023035     0.00005226    -0.00122797
     6
  Step:     9            Position(A)                                  Velocity(au)
C        -0.04316876     0.00779976    -0.02270749    -0.00010153     0.00011812    -0.00103089
N        -0.04205883    -0.05146067     1.33327323     0.00017489    -0.00010157     0.00097941
H         0.99050817     0.01273454    -0.57388760     0.00132944    -0.00050564    -0.00123901
H         0.82546347    -0.09353206     1.87635998    -0.00064640     0.00060449    -0.00063183
H        -0.93850088    -0.07972343     1.96146047    -0.00182677    -0.00022616     0.00167958
H        -0.99153432     0.11291873    -0.62893636    -0.00007666     0.00013124    -0.00113469
     6
  Step:    10            Position(A)                                  Velocity(au)
C        -0.04417787     0.00914647    -0.03517319    -0.00008061     0.00012780    -0.00123910
N        -0.04032620    -0.05261528     1.34500270     0.00013314    -0.00010941     0.00115547
H         1.00278648     0.00617200    -0.58632277     0.00088948    -0.00065504    -0.00101744
H         0.81842620    -0.08576454     1.86938916    -0.00057191     0.00077127    -0.00060296
H        -0.95609206    -0.08319138     1.97775884    -0.00133522    -0.00036362     0.00126739
H        -0.99123586     0.11517927    -0.64028310     0.00012812     0.00024491    -0.00093856
     6
  Step:    11            Position(A)                                  Velocity(au)
C        -0.04493219     0.01059565    -0.04981512    -0.00005535     0.00013625    -0.00142077
N        -0.03914618    -0.05385419     1.35855127     0.00007529    -0.00011665     0.00130446
H         1.00996720    -0.00159567    -0.59614600     0.00041202    -0.00075194    -0.00077385
H         0.81295194    -0.07665905     1.86316899    -0.00035490     0.00088022    -0.00048665
H        -0.96771144    -0.08767840     1.98918699    -0.00076104    -0.00044243     0.00081193
H        -0.98873147     0.11827666    -0.64946909     0.00031729     0.00031173    -0.00074863
     6
  Step:    12            Position(A)                                  Velocity(au)
C        -0.04538879     0.01212712    -0.06625517    -0.00002642     0.00014267    -0.00156715
N        -0.03867903    -0.05516733     1.37354016     0.00000516    -0.00012307     0.00141874
H         1.01180016    -0.01027813    -0.60325232    -0.00007624    -0.00082789    -0.00052858
H         0.81066200    -0.06650800     1.85874272    -0.00000193     0.00097122    -0.00028309
H        -0.97274131    -0.09287035     1.99552145    -0.00015123    -0.00049942     0.00035158
H        -0.98429447     0.12199894    -0.65666091     0.00047255     0.00036626    -0.00058097
     6
  Step:    13            Position(A)                                  Velocity(au)
C        -0.04551008     0.01371677    -0.08409953     0.00000561     0.00014682    -0.00167841
N        -0.03903330    -0.05654650     1.38958898    -0.00007131    -0.00012885     0.00150018
H         1.00829925    -0.01970731    -0.60770971    -0.00055100    -0.00089088    -0.00029666
H         0.81290975    -0.05541172     1.85697580     0.00044635     0.00105749    -0.00001786
H        -0.97101985    -0.09860428     1.99687856     0.00045217    -0.00054474    -0.00008370
H        -0.97839351     0.12628921    -0.66217902     0.00057666     0.00041921    -0.00044873
     6
  Step:    14            Position(A)                                  Velocity(au)
C        -0.04526613     0.01533900    -0.10297370     0.00003977     0.00014863    -0.00175686
N        -0.04023900    -0.05798613     1.40635952    -0.00014583    -0.00013413     0.00155323
H         0.99974606    -0.02976783    -0.60974226    -0.00098655    -0.00094496    -0.00009235
H         0.82042676    -0.04337341     1.85835189     0.00092193     0.00114514     0.00026962
H        -0.96284928    -0.10478749     1.99369033     0.00100301    -0.00058398    -0.00046386
H        -0.97167898     0.13116997    -0.66647766     0.00061438     0.00047666    -0.00036276
     6
  Step:    15            Position(A)                                  Velocity(au)
C        -0.04464006     0.01696827    -0.12253431     0.00007443     0.00014819    -0.00180534
N        -0.04222371    -0.05948078     1.42356893    -0.00020854    -0.00013872     0.00158252
H         0.98671662    -0.04038020    -0.60973015    -0.00135367    -0.00099364     0.00006957
H         0.83307874    -0.03035965     1.86287436     0.00134466     0.00123502     0.00053731
H        -0.94907711    -0.11137990     1.98673072     0.00144540    -0.00062227    -0.00075523
H        -0.96495284     0.13671696    -0.67011499     0.00057472     0.00054270    -0.00033040
     6
  Step:    16            Position(A)                                  Velocity(au)
C        -0.04363776     0.01858103    -0.14246891     0.00010696     0.00014579    -0.00182639
N        -0.04480124    -0.06102084     1.44098023    -0.00024936    -0.00014204     0.00159122
H         0.97013185    -0.05150565    -0.60822034    -0.00161839    -0.00104119     0.00017341
H         0.84984383    -0.01635498     1.87010654     0.00164294     0.00132359     0.00075192
H        -0.93122840    -0.11840090     1.97716823     0.00171229    -0.00066584    -0.00092023
H        -0.95910594     0.14304262    -0.67370577     0.00045383     0.00061996    -0.00035392
     6
  Step:    17            Position(A)                                  Velocity(au)
C        -0.04230002     0.02015777    -0.16249002     0.00013360     0.00014192    -0.00182196
N        -0.04767888    -0.06258807     1.45837996    -0.00025979    -0.00014316     0.00158048
H         0.95131128    -0.06315825    -0.60593647    -0.00174302    -0.00109334     0.00020326
H         0.86902125    -0.00140363     1.87932397     0.00177069     0.00140472     0.00089592
H        -0.91161754    -0.12594632     1.96659903     0.00173266    -0.00072251    -0.00092234
H        -0.95502448     0.15027984    -0.67785763     0.00025787     0.00070940    -0.00042919
     6
  Step:    18            Position(A)                                  Velocity(au)
C        -0.04071493     0.02168580    -0.18232773     0.00014980     0.00013734    -0.00179365
N        -0.05048463    -0.06415269     1.47555630    -0.00023483    -0.00014106     0.00155030
H         0.93199992    -0.07542454    -0.60377372    -0.00169135    -0.00115744     0.00014541
H         0.88858096     0.01437603     1.88970650     0.00171389     0.00147218     0.00096780
H        -0.89332311    -0.13420727     1.95699030     0.00145134    -0.00080104    -0.00073803
H        -0.95346457     0.15856208    -0.68309504     0.00000448     0.00080998    -0.00054548
     6
  Step:    19            Position(A)                                  Velocity(au)
C        -0.03902290     0.02316225    -0.20172955     0.00015124     0.00013302    -0.00174357
N        -0.05281622    -0.06567392     1.49229584    -0.00017494    -0.00013496     0.00150158
H         0.91430980    -0.08847947    -0.60275531    -0.00143949    -0.00124156    -0.00000706
H         0.90651591     0.03080317     1.90049635     0.00148675     0.00152152     0.00097751
H        -0.87986676    -0.14347064     1.95045316     0.00086032    -0.00090813    -0.00037345
H        -0.95492642     0.16799964    -0.68979111    -0.00027855     0.00091860    -0.00068694
     6
  Step:    20            Position(A)                                  Velocity(au)
C        -0.03740636     0.02459588    -0.22047167     0.00013547     0.00012996    -0.00167496
N        -0.05431185    -0.06710523     1.50840619    -0.00008748    -0.00012480     0.00143774
H         0.90050828    -0.10258613    -0.60392810    -0.00099098    -0.00135201    -0.00024882
H         0.92110644     0.04766211     1.91109138     0.00112225     0.00155099     0.00094072
H        -0.87450193    -0.15407444     1.94882037     0.00002771    -0.00104378     0.00012305
H        -0.95955844     0.17865818    -0.69812308    -0.00055758     0.00103040    -0.00083533
     6
  Step:    21            Position(A)                                  Velocity(au)
C        -0.03605920     0.02600542    -0.23837257     0.00010350     0.00012877    -0.00159225
N        -0.05472994    -0.06840406     1.52374920     0.00001394    -0.00011145     0.00136480
H         0.89263032    -0.11805733    -0.60819869    -0.00038912    -0.00148964    -0.00055854
H         0.93106732     0.06473407     1.92107640     0.00066269     0.00156165     0.00087432
H        -0.87926055    -0.16630535     1.95314510    -0.00090108    -0.00119729     0.00066554
H        -0.96712465     0.19054157    -0.70806561    -0.00079944     0.00113964    -0.00097357
     6
  Step:    22            Position(A)                                  Velocity(au)
C        -0.03514219     0.02741299    -0.25530529     0.00006019     0.00012933    -0.00150067
N        -0.05400679    -0.06954347     1.53826372     0.00011283    -0.00009673     0.00128960
H         0.89199550    -0.13517475    -0.61614733     0.00028318    -0.00164663    -0.00090059
H         0.93560406     0.08182622     1.93021887     0.00015296     0.00155700     0.00079422
H        -0.89421472    -0.18026735     1.96338041    -0.00174373    -0.00134795     0.00115619
H        -0.97704776     0.20358995    -0.71942182    -0.00097742     0.00124070    -0.00108847
     6
  Step:    23            Position(A)                                  Velocity(au)
C        -0.03474249     0.02883480    -0.27120252     0.00001303     0.00013073    -0.00140538
N        -0.05226162    -0.07052025     1.55196164     0.00019467    -0.00008284     0.00121750
H         0.89882545    -0.15408060    -0.62790084     0.00092189    -0.00180647    -0.00123321
H         0.93441361     0.09879649     1.93845140    -0.00036294     0.00154271     0.00071481
H        -0.91740792    -0.19579437     1.97843899    -0.00234449    -0.00147162     0.00151829
H        -0.98850767     0.21768427    -0.73187791    -0.00107477     0.00132881    -0.00117201
     6
  Step:    24            Position(A)                                  Velocity(au)
C        -0.03485719     0.03027296    -0.28605069    -0.00003037     0.00013156    -0.00131060
N        -0.04974810    -0.07135578     1.56489878     0.00025040    -0.00007178     0.00115083
H         0.91216368    -0.17469470    -0.64312622     0.00143156    -0.00194812    -0.00151971
H         0.92766400     0.11557592     1.94585680    -0.00084306     0.00152647     0.00064948
H        -0.94550495    -0.21246179     1.99659586    -0.00262095    -0.00154911     0.00171629
H        -1.00056034     0.23266015    -0.74506168    -0.00108529     0.00140062    -0.00122119
     6
  Step:    25            Position(A)                                  Velocity(au)
C        -0.03540688     0.03171286    -0.29987449    -0.00006453     0.00013044    -0.00121896
N        -0.04678355    -0.07209057     1.57713835     0.00027690    -0.00006498     0.00108907
H         0.93014365    -0.19669946    -0.66114739     0.00175046    -0.00205251    -0.00173682
H         0.91597002     0.13219087     1.95266001    -0.00124796     0.00151801     0.00061095
H        -0.97474628    -0.22968414     2.01598623    -0.00256972    -0.00157121     0.00175397
H        -1.01225057     0.24832554    -0.75859387    -0.00101169     0.00145436    -0.00123695
     6
  Step:    26            Position(A)                                  Velocity(au)
C        -0.03626883     0.03312654    -0.31271777    -0.00008703     0.00012646    -0.00113145
N        -0.04369042    -0.07277726     1.58872422     0.00027516    -0.00006331     0.00102991
H         0.95045834    -0.21959719    -0.68112244     0.00185902    -0.00210746    -0.00187674
H         0.90036243     0.14878537     1.95922252    -0.00154215     0.00152893     0.00061115
H        -1.00172241    -0.24683509     2.03496740    -0.00224062    -0.00153825     0.00165879
H        -1.02269300     0.26447710    -0.77212227    -0.00086281     0.00148966    -0.00122270
     6
  Step:    27            Position(A)                                  Velocity(au)
C        -0.03731091     0.03447937    -0.32462722    -0.00009808     0.00011930    -0.00104789
N        -0.04076386    -0.07347554     1.59966963     0.00024832    -0.00006728     0.00097063
H         0.97081321    -0.24280408    -0.70220460     0.00177181    -0.00210906    -0.00194359
H         0.88223251     0.16563914     1.96603016    -0.00169807     0.00157167     0.00065985
H        -1.02376424    -0.26333628     2.05227552    -0.00170455    -0.00145658     0.00146563
H        -1.03112619     0.28091468    -0.78534282    -0.00065118     0.00150730    -0.00118326
     6
  Step:    28            Position(A)                                  Velocity(au)
C        -0.03841447     0.03573645    -0.33564242    -0.00009931     0.00010911    -0.00096743
N        -0.03825788    -0.07424906     1.60995852     0.00020051    -0.00007711     0.00090894
H         0.98921996    -0.26573693    -0.72364220     0.00152215    -0.00205992    -0.00194780
H         0.86321382     0.18316870     1.97365804    -0.00170275     0.00165737     0.00076211
H        -1.03901281    -0.27870055     2.06703096    -0.00103129    -0.00133501     0.00120676
H        -1.03693873     0.29745220    -0.79800837    -0.00039097     0.00150897    -0.00112395
     6
  Step:    29            Position(A)                                  Velocity(au)
C        -0.03948354     0.03686645    -0.34579170    -0.00009280     0.00009629    -0.00088903
N        -0.03637735    -0.07516253     1.61955438     0.00013673    -0.00009267     0.00084352
H         1.00411312    -0.28786879    -0.74481642     0.00114857    -0.00196630    -0.00190139
H         0.84498168     0.20189725     1.98270288    -0.00156512     0.00179232     0.00091517
H        -1.04632566    -0.29254209     2.07867561    -0.00028058    -0.00118266     0.00090836
H        -1.03967947     0.31392620    -0.80993126    -0.00009692     0.00149704    -0.00105017
     6
  Step:    30            Position(A)                                  Velocity(au)
C        -0.04044475     0.03784302    -0.35509176    -0.00008043     0.00008128    -0.00081169
N        -0.03526673    -0.07627643     1.62841215     0.00006321    -0.00011318     0.00077412
H         1.01434718    -0.30875341    -0.76523881     0.00068689    -0.00183577    -0.00181539
H         0.82897374     0.22237923     1.99367905    -0.00132039     0.00197410     0.00110596
H        -1.04515112    -0.30457344     2.08690311     0.00049728    -0.00100855     0.00059146
H        -1.03905899     0.33020279    -0.82098283     0.00021643     0.00147448    -0.00096722
     6
  Step:    31            Position(A)                                  Velocity(au)
C        -0.04124320     0.03864456    -0.36354899    -0.00006369     0.00006447    -0.00073452
N        -0.03499460    -0.07763849     1.63648963    -0.00001246    -0.00013699     0.00070131
H         1.01914023    -0.32802975    -0.78453162     0.00016754    -0.00167600    -0.00169899
H         0.81609554     0.24508440     2.00689795    -0.00102676     0.00218910     0.00131135
H        -1.03544664    -0.31460615     2.09161502     0.00125626    -0.00082238     0.00027472
H        -1.03494459     0.34618329    -0.83109099     0.00053505     0.00144475    -0.00088015
     6
  Step:    32            Position(A)                                  Velocity(au)
C        -0.04183804     0.03925343    -0.37116081    -0.00004369     0.00004619    -0.00065675
N        -0.03553925    -0.07927336     1.64375476    -0.00008169    -0.00016159     0.00062606
H         1.01801251    -0.34541913    -0.80240757    -0.00038402    -0.00149439    -0.00155980
H         0.80651135     0.27026991     2.02236738    -0.00075346     0.00241365     0.00150181
H        -1.01766800    -0.32256453     2.09291317     0.00194786    -0.00063590    -0.00002216
H        -1.02735366     0.36180938    -0.84023789     0.00084555     0.00141175    -0.00079385
     6
  Step:    33            Position(A)                                  Velocity(au)
C        -0.04219907     0.03965509    -0.37791661    -0.00002135     0.00002670    -0.00057764
N        -0.03678171    -0.08117357     1.65018581    -0.00013573    -0.00018380     0.00054892
H         1.01073896    -0.36072235    -0.81865534    -0.00094584    -0.00129823    -0.00140445
H         0.79961225     0.29788771     2.03975288    -0.00056379     0.00261902     0.00164793
H        -0.99283346    -0.32851775     2.09113015     0.00251504    -0.00046468    -0.00027523
H        -1.01644661     0.37706813    -0.84845787     0.00113522     0.00137988    -0.00071297
     6
  Step:    34            Position(A)                                  Velocity(au)
C        -0.04230503     0.03983765    -0.38379786     0.00000255     0.00000626    -0.00049648
N        -0.03850863    -0.08329437     1.65576345    -0.00016649    -0.00020024     0.00046953
H         0.99732036    -0.37382031    -0.83313267    -0.00149781    -0.00109509    -0.00123927
H         0.79417746     0.32756601     2.05841902    -0.00050058     0.00277845     0.00172701
H        -0.96264669    -0.33273033     2.08689204     0.00288948    -0.00032917    -0.00045443
H        -1.00251856     0.39199684    -0.85583544     0.00139226     0.00135389    -0.00064198
     6
  Step:    35            Position(A)                                  Velocity(au)
C        -0.04214329     0.03979194    -0.38877800     0.00002713    -0.00001486    -0.00041248
N        -0.04042407    -0.08555417     1.66045769    -0.00016738    -0.00020779     0.00038639
H         0.97797144    -0.38467955    -0.84576671    -0.00202013    -0.00089338    -0.00107100
H         0.78866117     0.35867170     2.07753458    -0.00057987     0.00287322     0.00172695
H        -0.92962049    -0.33571903     2.08118865     0.00299669    -0.00025393    -0.00052529
H        -0.98598831     0.40668699    -0.86250231     0.00160618     0.00133880    -0.00058491
     6
  Step:    36            Position(A)                                  Velocity(au)
C        -0.04171156     0.03951247    -0.39282170     0.00005127    -0.00003622    -0.00032483
N        -0.04217049    -0.08784023     1.66421655    -0.00013443    -0.00020419     0.00029745
H         0.95312606    -0.39336472    -0.85656295    -0.00249191    -0.00070298    -0.00090763
H         0.78149176     0.39042317     2.09619936    -0.00079337     0.00289545     0.00164656
H        -0.89708835    -0.33828554     2.07540043     0.00277388    -0.00026286    -0.00045663
H        -0.96738024     0.42128570    -0.86863142     0.00176866     0.00133956    -0.00054503
     6
  Step:    37            Position(A)                                  Velocity(au)
C        -0.04102163     0.03899946    -0.39588423     0.00007346    -0.00005715    -0.00023261
N        -0.04336502    -0.09002119     1.66696494    -0.00006798    -0.00018867     0.00020132
H         0.92345619    -0.40005869    -0.86562289    -0.00289003    -0.00053600    -0.00075917
H         0.77130459     0.42201514     2.11355625    -0.00111612     0.00284775     0.00149324
H        -0.86893663    -0.34146949     2.07119909     0.00220117    -0.00036943    -0.00023545
H        -0.94729547     0.43599244    -0.87442579     0.00187441     0.00136054    -0.00052433
     6
  Step:    38            Position(A)                                  Velocity(au)
C        -0.04010455     0.03826221    -0.39791056     0.00009162    -0.00007659    -0.00013487
N        -0.04365766    -0.09196773     1.66862079     0.00002558    -0.00016270     0.00009880
H         0.88990122    -0.40509072    -0.87317116    -0.00318852    -0.00040742    -0.00063851
H         0.75707456     0.45272305     2.12886681    -0.00151486     0.00274086     0.00127968
H        -0.84893365    -0.34636763     2.07024944     0.00133410    -0.00056470     0.00011598
H        -0.92637402     0.45105015    -0.88010217     0.00192223     0.00140489    -0.00052294
     6
  Step:    39            Position(A)                                  Velocity(au)
C        -0.03901732     0.03732380    -0.39883473     0.00010314    -0.00009307    -0.00003060
N        -0.04280549    -0.09358048     1.66912635     0.00013363    -0.00013021    -0.00000645
H         0.85370121    -0.40897180    -0.87959151    -0.00335952    -0.00033521    -0.00056170
H         0.73816403     0.48197667     2.14155175    -0.00195455     0.00259102     0.00102118
H        -0.83975074    -0.35382333     2.07373638     0.00031213    -0.00081098     0.00053319
H        -0.90524303     0.46672704    -0.88586614     0.00191601     0.00147368    -0.00053840
     6
  Step:    40            Position(A)                                  Velocity(au)
C        -0.03784823     0.03622613    -0.39857993     0.00010517    -0.00010473     0.00008108
N        -0.04073416    -0.09481635     1.66847970     0.00024021    -0.00009690    -0.00010882
H         0.81640527    -0.41242410    -0.88545932    -0.00337741    -0.00033868    -0.00054645
H         0.71431499     0.50940665     2.15120717    -0.00240229     0.00241780     0.00073392
H        -0.84210522    -0.36410930     2.08191409    -0.00067632    -0.00104994     0.00092404
H        -0.88445772     0.48328971    -0.89188076     0.00186478     0.00156534    -0.00056537
     6
  Step:    41            Position(A)                                  Velocity(au)
C        -0.03671643     0.03503264    -0.39706102     0.00009539    -0.00010973     0.00020059
N        -0.03755043    -0.09570030     1.66674573     0.00033081    -0.00006855    -0.00020301
H         0.77981381    -0.41638103    -0.89154617    -0.00322692    -0.00043429    -0.00060803
H         0.68560941     0.53487065     2.15760754    -0.00282953     0.00224249     0.00043402
H        -0.85454660    -0.37679268     2.09395145    -0.00145921    -0.00122341     0.00120073
H        -0.86444735     0.50097181    -0.89823461     0.00178196     0.00167540    -0.00059575
     6
  Step:    42            Position(A)                                  Velocity(au)
C        -0.03576141     0.03382568    -0.39419161     0.00007295    -0.00010681     0.00032743
N        -0.03349696    -0.09631612     1.66403836     0.00039647    -0.00004952    -0.00028616
H         0.74581021    -0.42192492    -0.89876107    -0.00291370    -0.00062885    -0.00075206
H         0.65241360     0.55846543     2.16070225    -0.00321321     0.00208701     0.00013715
H        -0.87402831    -0.39087382     2.10818225    -0.00193539    -0.00129403     0.00130927
H        -0.84547403     0.51994223    -0.90491385     0.00168359     0.00179679    -0.00061943
     6
  Step:    43            Position(A)                                  Velocity(au)
C        -0.03512045     0.03269596    -0.38989788     0.00003943    -0.00009604     0.00045956
N        -0.02887693    -0.09678363     1.66048553     0.00043470    -0.00004201    -0.00035840
H         0.71607112    -0.43013830    -0.90799901    -0.00247249    -0.00091231    -0.00096661
H         0.61531436     0.58052793     2.16060789    -0.00353650     0.00197261    -0.00014221
H        -0.89688699    -0.40510201     2.12259433    -0.00208754    -0.00125287     0.00123868
H        -0.82761558     0.54028012    -0.91178591     0.00158606     0.00192074    -0.00062557
     6
  Step:    44            Position(A)                                  Velocity(au)
C        -0.03489890     0.03172463    -0.38413777    -0.00000116    -0.00007914     0.00059327
N        -0.02398708    -0.09723508     1.65619771     0.00044790    -0.00004639    -0.00042209
H         0.69171973    -0.44188346    -0.91990747    -0.00196571    -0.00125464    -0.00121826
H         0.57504590     0.60162013     2.15759115    -0.00378985     0.00191794    -0.00039191
H        -0.91969717    -0.41828266     2.13528083    -0.00195843    -0.00111348     0.00101028
H        -0.81077593     0.56196207    -0.91859935     0.00150373     0.00203789    -0.00060402
     6