     6
  Step:     0            Position(A)                                  Velocity(au)
C        -0.03496298     0.01369517     0.00310497    -0.00009234    -0.00011364     0.00008601
N        -0.04129974    -0.05863526     1.30681243    -0.00014523     0.00009334    -0.00003988
H         0.92600237     0.01755893    -0.54351028     0.00078768     0.00035340    -0.00057432
H         0.80699197    -0.11173710     1.88337109     0.00129412    -0.00032629     0.00065817
H        -0.94211195     0.00547230     1.84120179     0.00070689    -0.00039149    -0.00053995
H        -1.01328369     0.07055187    -0.48594567     0.00032970     0.00042135    -0.00001453
     6
  Step:     1            Position(A)                                  Velocity(au)
C        -0.03546142     0.01307849     0.00350713    -0.00008905    -0.00011196     0.00006048
N        -0.04210864    -0.05813087     1.30668298    -0.00014868     0.00009104    -0.00000689
H         0.93034229     0.01951182    -0.54683953     0.00079111     0.00036092    -0.00063778
H         0.81412421    -0.11352950     1.88705793     0.00129730    -0.00032830     0.00067831
H        -0.93807732     0.00334265     1.83821928     0.00075869    -0.00038685    -0.00054418
H        -1.01161089     0.07285975    -0.48631363     0.00028004     0.00042313    -0.00012120
     6
  Step:     2            Position(A)                                  Velocity(au)
C        -0.03593688     0.01247068     0.00376640    -0.00008406    -0.00011045     0.00003389
N        -0.04292591    -0.05763956     1.30673711    -0.00014838     0.00008861     0.00002704
H         0.93465477     0.02150631    -0.55048570     0.00077830     0.00036875    -0.00069067
H         0.82118069    -0.11532780     1.89078978     0.00126813    -0.00032861     0.00067574
H        -0.93381409     0.00124129     1.83525004     0.00078998    -0.00038134    -0.00053483
H        -1.01022090     0.07517968    -0.48727120     0.00022712     0.00042593    -0.00022979
     6
  Step:     3            Position(A)                                  Velocity(au)
C        -0.03638055     0.01187074     0.00387769    -0.00007755    -0.00010914     0.00000648
N        -0.04373111    -0.05716197     1.30697868    -0.00014440     0.00008608     0.00006148
H         0.93885249     0.02354389    -0.55439161     0.00074995     0.00037684    -0.00073338
H         0.82799036    -0.11712267     1.89444675     0.00120908    -0.00032726     0.00065228
H        -0.92943936    -0.00082700     1.83237132     0.00079925    -0.00037498    -0.00051096
H        -1.00912749     0.07751703    -0.48882622     0.00017242     0.00042969    -0.00033942
     6
  Step:     4            Position(A)                                  Velocity(au)
C        -0.03678463     0.01127762     0.00383726    -0.00006973    -0.00010803    -0.00002151
N        -0.04450443    -0.05669862     1.30740915    -0.00013690     0.00008347     0.00009599
H         0.94285266     0.02562572    -0.55850248     0.00070701     0.00038517    -0.00076646
H         0.83439755    -0.11890521     1.89792000     0.00112323    -0.00032438     0.00061009
H        -0.92507730    -0.00285767     1.82966456     0.00078548    -0.00036786    -0.00047202
H        -1.00833613     0.07987673    -0.49098150     0.00011748     0.00043435    -0.00044919
     6
  Step:     5            Position(A)                                  Velocity(au)
C        -0.03714250     0.01069022     0.00364265    -0.00006081    -0.00010714    -0.00004985
N        -0.04522711    -0.05624983     1.30802765    -0.00012609     0.00008084     0.00013019
H         0.94657842     0.02775287    -0.56276710     0.00065068     0.00039374    -0.00079064
H         0.84026456    -0.12066738     1.90111359     0.00101393    -0.00032016     0.00055160
H        -0.92085602    -0.00484682     1.82721332     0.00074828    -0.00036014    -0.00041780
H        -1.00784376     0.08226341    -0.49373482     0.00006384     0.00043987    -0.00055826
     6
  Step:     6            Position(A)                                  Velocity(au)
C        -0.03744885     0.01010732     0.00329272    -0.00005103    -0.00010649    -0.00007833
N        -0.04588172    -0.05581567     1.30883124    -0.00011225     0.00007822     0.00016374
H         0.94995991     0.02992649    -0.56713855     0.00058222     0.00040259    -0.00080677
H         0.84547264    -0.12240226     1.90394509     0.00088463    -0.00031481     0.00047926
H        -0.91690390    -0.00679145     1.82510096     0.00068796    -0.00035201    -0.00034856
H        -1.00763885     0.08468137    -0.49707927     0.00001300     0.00044620    -0.00066582
     6
  Step:     7            Position(A)                                  Velocity(au)
C        -0.03769964     0.00952762     0.00278748    -0.00004063    -0.00010610    -0.00010675
N        -0.04645251    -0.05539593     1.30981522    -0.00009568     0.00007566     0.00019635
H         0.95293460     0.03214796    -0.57157472     0.00050295     0.00041176    -0.00081573
H         0.84992216    -0.12410423     1.90634575     0.00073871    -0.00030859     0.00039551
H        -0.91334547    -0.00868976     1.82340801     0.00060555    -0.00034370    -0.00026501
H        -1.00770184     0.08713466    -0.50100364    -0.00003363     0.00045330    -0.00077117
     6
  Step:     8            Position(A)                                  Velocity(au)
C        -0.03789212     0.00894973     0.00212800    -0.00002981    -0.00010598    -0.00013494
N        -0.04692558    -0.05499015     1.31097349    -0.00007674     0.00007323     0.00022781
H         0.95544720     0.03441893    -0.57603837     0.00041410     0.00042132    -0.00081837
H         0.85353213    -0.12576910     1.90826018     0.00057942    -0.00030175     0.00030268
H        -0.91029718    -0.01054131     1.82220963     0.00050284    -0.00033546    -0.00016832
H        -1.00800576     0.08962699    -0.50549294    -0.00007477     0.00046109    -0.00087367
     6
  Step:     9            Position(A)                                  Velocity(au)
C        -0.03802469     0.00837218     0.00131628    -0.00001880    -0.00010614    -0.00016273
N        -0.04728919    -0.05459758     1.31229892    -0.00005584     0.00007095     0.00025795
H         0.95744936     0.03674141    -0.58049708     0.00031688     0.00043130    -0.00081553
H         0.85623932    -0.12739411     1.90964576     0.00040986    -0.00029454     0.00020302
H        -0.90786321    -0.01234713     1.82157293     0.00038237    -0.00032755    -0.00006012
H        -1.00851704     0.09216172    -0.51052883    -0.00010928     0.00046948    -0.00097271
     6
  Step:    10            Position(A)                                  Velocity(au)
C        -0.03809689     0.00779346     0.00035519    -0.00000776    -0.00010657    -0.00018995
N        -0.04753391    -0.05421721     1.31378362    -0.00003341     0.00006887     0.00028663
H         0.95889939     0.03911766    -0.58492296     0.00021244     0.00044173    -0.00080793
H         0.85799726    -0.12897792     1.91047192     0.00023299    -0.00028720     0.00009865
H        -0.90613155    -0.01410969     1.82155461     0.00024737    -0.00032020     0.00005748
H        -1.00919631     0.09474167    -0.51608991    -0.00013617     0.00047835    -0.00106770
     6
  Step:    11            Position(A)                                  Velocity(au)
C        -0.03810922     0.00721208    -0.00075153     0.00000310    -0.00010726    -0.00021644
N        -0.04765285    -0.05384782     1.31541913    -0.00000992     0.00006704     0.00031373
H         0.95976193     0.04155010    -0.58929219     0.00010189     0.00045259    -0.00079623
H         0.85877560    -0.13052058     1.91071966     0.00005174    -0.00027996    -0.00000831
H        -0.90517034    -0.01583280     1.82219860     0.00010177    -0.00031363     0.00018195
H        -1.00999936     0.09736901    -0.52215178    -0.00015459     0.00048751    -0.00115799
     6
  Step:    12            Position(A)                                  Velocity(au)
C        -0.03806312     0.00662663    -0.00199925     0.00001364    -0.00010819    -0.00024197
N        -0.04764187    -0.05348799     1.31719646     0.00001407     0.00006546     0.00033912
H         0.96000772     0.04404107    -0.59358448    -0.00001363     0.00046382    -0.00078095
H         0.85856007    -0.13202343     1.91038151    -0.00013083    -0.00027305    -0.00011570
H        -0.90502452    -0.01752145     1.82353392    -0.00004993    -0.00030802     0.00031037
H        -1.01087797     0.10004491    -0.52868677    -0.00016386     0.00049673    -0.00124283
     6
  Step:    13            Position(A)                                  Velocity(au)
C        -0.03796091     0.00603584    -0.00338220     0.00002369    -0.00010932    -0.00026631
N        -0.04749985    -0.05313615     1.31910597     0.00003800     0.00006417     0.00036262
H         0.95961377     0.04659257    -0.59778244    -0.00013287     0.00047527    -0.00076253
H         0.85735324    -0.13348915     1.90946185    -0.00031139    -0.00026670    -0.00022118
H        -0.90571319    -0.01918149     1.82557281    -0.00020272    -0.00030347     0.00043942
H        -1.01178083     0.10276932    -0.53566349    -0.00016347     0.00050571    -0.00132132
     6
  Step:    14            Position(A)                                  Velocity(au)
C        -0.03780570     0.00543865    -0.00489331     0.00003308    -0.00011058    -0.00028914
N        -0.04722893    -0.05279063     1.32113711     0.00006121     0.00006318     0.00038397
H         0.95856384     0.04920594    -0.60187103    -0.00025442     0.00048676    -0.00074130
H         0.85517614    -0.13492172     1.90797789    -0.00048618    -0.00026114    -0.00032220
H        -0.90722754    -0.02081930     1.82830922    -0.00035126    -0.00030002     0.00056555
H        -1.01265440     0.10554055    -0.54304590    -0.00015304     0.00051406    -0.00139237
     6
  Step:    15            Position(A)                                  Velocity(au)
C        -0.03760147     0.00483433    -0.00652386     0.00004165    -0.00011191    -0.00031009
N        -0.04683478    -0.05244971     1.32327803     0.00008301     0.00006248     0.00040286
H         0.95684940     0.05188145    -0.60583707    -0.00037662     0.00049801    -0.00071757
H         0.85207067    -0.13632653     1.90596099    -0.00065090    -0.00025662    -0.00041588
H        -0.90952980    -0.02244137     1.83171777    -0.00049007    -0.00029764     0.00068501
H        -1.01344374     0.10835491    -0.55079236    -0.00013245     0.00052136    -0.00145471
     6
  Step:    16            Position(A)                                  Velocity(au)
C        -0.03735302     0.00422254    -0.00826312     0.00004924    -0.00011321    -0.00032873
N        -0.04632683    -0.05211162     1.32551508     0.00010268     0.00006209     0.00041887
H         0.95447098     0.05461792    -0.60966901    -0.00049753     0.00050870    -0.00069161
H         0.84810260    -0.13771046     1.90345838    -0.00080073    -0.00025344    -0.00049906
H        -0.91255324    -0.02405382     1.83575333    -0.00061379    -0.00029620     0.00079405
H        -1.01409371     0.11120634    -0.55885457    -0.00010177     0.00052712    -0.00150691
     6
  Step:    17            Position(A)                                  Velocity(au)
C        -0.03706604     0.00360339    -0.01009811     0.00005568    -0.00011440    -0.00034461
N        -0.04571835    -0.05177465     1.32783238     0.00011949     0.00006198     0.00043155
H         0.95143982     0.05741249    -0.61335685    -0.00061487     0.00051847    -0.00066374
H         0.84336446    -0.13908209     1.90053472    -0.00093037    -0.00025190    -0.00056836
H        -0.91620341    -0.02566196     1.84035137    -0.00071744    -0.00029552     0.00088911
H        -1.01455030     0.11408616    -0.56717684    -0.00006143     0.00053081    -0.00154752
     6
  Step:    18            Position(A)                                  Velocity(au)
C        -0.03674704     0.00297751    -0.01201337     0.00006082    -0.00011539    -0.00035724
N        -0.04502648    -0.05143712     1.33021149     0.00013274     0.00006215     0.00044039
H         0.94777954     0.06026033    -0.61689235    -0.00072611     0.00052696    -0.00063437
H         0.83797770    -0.14045185     1.89727313    -0.00103434    -0.00025237    -0.00062031
H        -0.92036093    -0.02726990     1.84542924    -0.00079677    -0.00029534     0.00096700
H        -1.01476225     0.11698299    -0.57569584    -0.00001216     0.00053196    -0.00157515
     6
  Step:    19            Position(A)                                  Velocity(au)
C        -0.03640335     0.00234604    -0.01399093     0.00006450    -0.00011607    -0.00036621
N        -0.04427194    -0.05109742     1.33263126     0.00014181     0.00006258     0.00044494
H         0.94352753     0.06315465    -0.62026943    -0.00082856     0.00053381    -0.00060398
H         0.83209350    -0.14183213     1.89377527    -0.00110731    -0.00025520    -0.00065168
H        -0.92488567    -0.02888018     1.85088854    -0.00084853    -0.00029535     0.00102515
H        -1.01468282     0.11988280    -0.58434094     0.00004495     0.00053013    -0.00158861
     6
  Step:    20            Position(A)                                  Velocity(au)
C        -0.03604299     0.00171060    -0.01601054     0.00006664    -0.00011638    -0.00037115
N        -0.04347860    -0.05075406     1.33506795     0.00014624     0.00006325     0.00044478
H         0.93873586     0.06608684    -0.62348474    -0.00091951     0.00053876    -0.00057320
H         0.82589151    -0.14323735     1.89016013    -0.00114461    -0.00026075    -0.00065967
H        -0.92962255    -0.03049361     1.85661862    -0.00087074    -0.00029525     0.00106180
H        -1.01427163     0.12276927    -0.59303539     0.00010849     0.00052498    -0.00158708
