     6
  Step:   600            Position(A)                                  Velocity(au)
C        -0.10646324     0.04818937     0.08419451     0.00009663    -0.00020993     0.00143829
N         0.10586866     0.05804329     1.17623906     0.00009181    -0.00006478    -0.00108187
H         0.09962848     1.13614167    -0.28313196    -0.00174958     0.00334542    -0.00341043
H        -0.14021106    -1.41814823     2.44095884     0.00012049    -0.00136509     0.00207979
H        -0.72531798    -1.16934924     2.11474851    -0.00218455     0.00087594    -0.00406629
H        -0.64968971    -0.59937571    -0.72889543     0.00138641     0.00054549     0.00329227
