     6
  Step:     0            Position(A)                                  Velocity(au)
C        -0.02978102    -0.00345899     0.04461564     0.00017231    -0.00008105     0.00001105
N        -0.03765376    -0.03605830     1.27945496     0.00001041     0.00008639    -0.00014040
H         0.87548178     0.07865955    -0.56903071    -0.00106413     0.00008691     0.00052328
H         0.77160961    -0.15238889     1.81425651    -0.00046018    -0.00015897    -0.00019257
H        -0.98246992    -0.19287898     1.82893874    -0.00063320    -0.00053426     0.00106214
H        -0.99943750     0.13912628    -0.49352179    -0.00004043     0.00037158     0.00042661
     6
  Step:     1            Position(A)                                  Velocity(au)
C        -0.02796206    -0.00436353     0.04360260     0.00015718    -0.00008504    -0.00019316
N        -0.03788555    -0.03509354     1.27892030    -0.00005482     0.00009011     0.00004307
H         0.86447907     0.07976086    -0.56406442    -0.00090798     0.00011862     0.00035711
H         0.76921526    -0.15469344     1.81435257     0.00002947    -0.00026494     0.00021464
H        -0.98696941    -0.19862604     1.83938921    -0.00016827    -0.00051209     0.00082975
H        -0.99999496     0.14344816    -0.48953242    -0.00006440     0.00041953     0.00030188
     6
  Step:     2            Position(A)                                  Velocity(au)
C        -0.02634238    -0.00531942     0.04038980     0.00013636    -0.00009053    -0.00038589
N        -0.03885310    -0.03408697     1.28039709    -0.00012072     0.00009394     0.00022363
H         0.85561803     0.08125453    -0.56121826    -0.00067601     0.00015856     0.00013806
H         0.77225431    -0.15818502     1.81895225     0.00050034    -0.00037086     0.00060656
H        -0.98615105    -0.20408201     1.84709114     0.00032269    -0.00048345     0.00057062
H        -1.00084636     0.14830441    -0.48691750    -0.00009433     0.00046906     0.00017549
     6
  Step:     3            Position(A)                                  Velocity(au)
C        -0.02497885    -0.00634394     0.03516052     0.00011113    -0.00009758    -0.00055769
N        -0.04052661    -0.03303852     1.28381262    -0.00018093     0.00009767     0.00039414
H         0.84969012     0.08322956    -0.56104404    -0.00038028     0.00020595    -0.00012511
H         0.78016110    -0.16280663     1.82762217     0.00089270    -0.00046685     0.00093885
H        -0.97990993    -0.20920251     1.85187260     0.00080750    -0.00045344     0.00030662
H        -1.00205869     0.15370982    -0.48569317    -0.00012987     0.00051975     0.00004810
     6
  Step:     4            Position(A)                                  Velocity(au)
C        -0.02391126    -0.00745414     0.02818926     0.00008332    -0.00010608    -0.00070169
N        -0.04281129    -0.03195016     1.28901963    -0.00023014     0.00010125     0.00054810
H         0.84729868     0.08576009    -0.56395529    -0.00004299     0.00025877    -0.00041616
H         0.79178388    -0.16839832     1.83949135     0.00116400    -0.00054484     0.00117975
H        -0.96848538    -0.21400186     1.85379896     0.00125347    -0.00042816     0.00006030
H        -1.00368746     0.15967500    -0.48586512    -0.00016925     0.00057119    -0.00007903
     6
  Step:     5            Position(A)                                  Velocity(au)
C        -0.02315599    -0.00866458     0.01980975     0.00005524    -0.00011570    -0.00081407
N        -0.04556140    -0.03082344     1.29580331    -0.00026430     0.00010488     0.00067977
H         0.84874964     0.08889058    -0.57014830     0.00030543     0.00031368    -0.00071300
H         0.80562586    -0.17472611     1.85343153     0.00129448    -0.00059978     0.00131464
H        -0.95248794    -0.21856926     1.85319174     0.00162398    -0.00041571    -0.00014330
H        -1.00576131     0.16620570    -0.48742205    -0.00020935     0.00062294    -0.00020405
     6
  Step:     6            Position(A)                                  Velocity(au)
C        -0.02270280    -0.00998523     0.01037991     0.00002925    -0.00012596    -0.00089401
N        -0.04859331    -0.02965564     1.30389083    -0.00028040     0.00010916     0.00078440
H         0.85398054     0.09262236    -0.57955356     0.00063092     0.00036637    -0.00099127
H         0.82010322    -0.18151965     1.86825171     0.00128567    -0.00062993     0.00134488
H        -0.93295774    -0.22309624     1.85066392     0.00187733    -0.00042693    -0.00027618
H        -1.00826750     0.17330290    -0.49032902    -0.00024593     0.00067455    -0.00032457
     6
  Step:     7            Position(A)                                  Velocity(au)
C        -0.02251610    -0.01142020     0.00025160     0.00000740    -0.00013631    -0.00094310
N        -0.05169567    -0.02843546     1.31296350    -0.00027634     0.00011500     0.00085857
H         0.86255222     0.09690554    -0.59183425     0.00090179     0.00041212    -0.00122866
H         0.83375229    -0.18850702     1.88285336     0.00115424    -0.00063627     0.00128313
H        -0.91141776    -0.22790912     1.84714976     0.00196995    -0.00047526    -0.00030957
H        -1.01114149     0.18096280    -0.49452267    -0.00027399     0.00072560    -0.00043787
     6
  Step:     8            Position(A)                                  Velocity(au)
C        -0.02254089    -0.01296729    -0.01025218    -0.00000896    -0.00014619    -0.00096461
N        -0.05463887    -0.02713982     1.32267379    -0.00025113     0.00012352     0.00090067
H         0.87370882     0.10163836    -0.60643275     0.00109417     0.00044653    -0.00140858
H         0.84535448    -0.19543929     1.89632260     0.00092500    -0.00062151     0.00114792
H        -0.88986136    -0.23349354     1.84389151     0.00186570    -0.00057512    -0.00021995
H        -1.01426162     0.18917682    -0.49990837    -0.00028831     0.00077564    -0.00054107
     6
  Step:     9            Position(A)                                  Velocity(au)
C        -0.02271220    -0.01461850    -0.02085109    -0.00001941    -0.00015514    -0.00096268
N        -0.05718957    -0.02573318     1.33266748    -0.00020558     0.00013569     0.00091131
H         0.88648934     0.10667416    -0.62264955     0.00119524     0.00046596    -0.00152210
H         0.85398840    -0.20210385     1.90796632     0.00062555    -0.00058931     0.00095962
H        -0.87060194    -0.24049106     1.84233799     0.00155112    -0.00073789     0.00000127
H        -1.01744874     0.19793150    -0.50635967    -0.00028385     0.00082425    -0.00063134
     6
  Step:    10            Position(A)                                  Velocity(au)
C        -0.02296541    -0.01636120    -0.03131257    -0.00003226    -0.00016065    -0.00097949
N        -0.05913635    -0.02417138     1.34261049    -0.00014470     0.00015644     0.00091870
H         0.89985698     0.11183220    -0.63973150     0.00119288     0.00028201    -0.00154311
H         0.85903961    -0.20833157     1.91731602     0.00029102    -0.00037496     0.00078708
H        -0.85592771    -0.24963619     1.84391921     0.00108484    -0.00119930     0.00030202
H        -1.02047149     0.20720888    -0.51372015    -0.00017354     0.00103257    -0.00064085
     6
  Step:    11            Position(A)                                  Velocity(au)
C        -0.02341798    -0.01813295    -0.04227935    -0.00004986    -0.00015578    -0.00107199
N        -0.06035514    -0.02231080     1.35276581    -0.00006983     0.00017724     0.00097836
H         0.91258589     0.11284375    -0.65640794     0.00108660    -0.00003156    -0.00143573
H         0.86035513    -0.21030677     1.92518518    -0.00011078    -0.00004940     0.00058177
H        -0.84686895    -0.26672809     1.84894533     0.00053255    -0.00179448     0.00060104
H        -1.02124522     0.22052093    -0.52037942     0.00005610     0.00126862    -0.00056878
     6
  Step:    12            Position(A)                                  Velocity(au)
C        -0.02405621    -0.01976917    -0.05476439    -0.00006456    -0.00014179    -0.00120251
N        -0.06066396    -0.02029381     1.36401402     0.00001189     0.00019105     0.00107084
H         0.92362844     0.11114181    -0.67114090     0.00090416    -0.00027448    -0.00123733
H         0.85661613    -0.20941230     1.93004336    -0.00056271     0.00020050     0.00030753
H        -0.84427711    -0.28889381     1.85706801    -0.00004478    -0.00224126     0.00086922
H        -1.01924413     0.23496238    -0.52616326     0.00030734     0.00134983    -0.00049091
     6
  Step:    13            Position(A)                                  Velocity(au)
C        -0.02483031    -0.02123489    -0.06858661    -0.00007470    -0.00012509    -0.00131350
N        -0.06009500    -0.01813111     1.37619246     0.00008538     0.00020319     0.00114760
H         0.93236614     0.10683902    -0.68347686     0.00067573    -0.00051145    -0.00100804
H         0.84804485    -0.20592040     1.93191291    -0.00097016     0.00042653     0.00005225
H        -0.84784855    -0.31576001     1.86796129    -0.00054721    -0.00264549     0.00108148
H        -1.01452159     0.25005101    -0.53111903     0.00054523     0.00139742    -0.00042138
     6
  Step:    14            Position(A)                                  Velocity(au)
C        -0.02569035    -0.02250573    -0.08349973    -0.00008027    -0.00010653    -0.00140150
N        -0.05879608    -0.01584875     1.38912003     0.00014118     0.00021213     0.00120830
H         0.93841135     0.09995279    -0.69319373     0.00042146    -0.00074779    -0.00076665
H         0.83539191    -0.20008118     1.93118644    -0.00128438     0.00062701    -0.00015147
H        -0.85624839    -0.34676897     1.88072747    -0.00089620    -0.00298551     0.00119531
H        -1.00731620     0.26553351    -0.53538173     0.00075376     0.00142773    -0.00036776
     6
  Step:    15            Position(A)                                  Velocity(au)
C        -0.02658643    -0.02356535    -0.09924716    -0.00008134    -0.00008682    -0.00146640
N        -0.05700642    -0.01349027     1.40262642     0.00017236     0.00021666     0.00125361
H         0.94158629     0.09047968    -0.70024869     0.00016018    -0.00098425    -0.00052850
H         0.81994654    -0.19220337     1.92859927    -0.00145546     0.00079526    -0.00027271
H        -0.86745467    -0.38107374     1.89411088    -0.00104931    -0.00323844     0.00119111
H        -0.99803165     0.28128532    -0.53916455     0.00091864     0.00145110    -0.00033668
     6
  Step:    16            Position(A)                                  Velocity(au)
C        -0.02746990    -0.02440501    -0.11558012    -0.00007815    -0.00006666    -0.00150920
N        -0.05502530    -0.01110889     1.41654513     0.00017495     0.00021632     0.00128344
H         0.94191565     0.07842045    -0.70475569    -0.00008964    -0.00122001    -0.00030729
H         0.80355093    -0.18268327     1.92522029    -0.00143611     0.00092365    -0.00028368
H        -0.87920409    -0.41761594     1.90678519    -0.00100177    -0.00339118     0.00107304
H        -0.98721920     0.29727921    -0.54274717     0.00102763     0.00147584    -0.00033347
     6
  Step:    17            Position(A)                                  Velocity(au)
C        -0.02829612    -0.02502372    -0.13226386    -0.00007130    -0.00004675    -0.00153122
N        -0.05317914    -0.00875791     1.43070423     0.00014802     0.00021136     0.00129735
H         0.93962516     0.06378955    -0.70697114    -0.00030952    -0.00145380    -0.00011556
H         0.78852888    -0.17199665     1.92239332    -0.00119339     0.00100732    -0.00016647
H        -0.88937027    -0.45526237     1.91758562    -0.00077646    -0.00344267     0.00086149
H        -0.97555029     0.31357220    -0.54645993     0.00107195     0.00150900    -0.00036169
     6
  Step:    18            Position(A)                                  Velocity(au)
C        -0.02902964    -0.02542764    -0.14907846    -0.00006193    -0.00002763    -0.00153371
N        -0.05178704    -0.00648499     1.44492706     0.00009405     0.00020228     0.00129547
H         0.93514435     0.04661588    -0.70728371    -0.00048080    -0.00168454     0.00003511
H         0.77744328    -0.16064616     1.92157835    -0.00072601     0.00104810     0.00007706
H        -0.89619067    -0.49293093     1.92563182    -0.00041044    -0.00340138     0.00058364
H        -0.96376818     0.33029138    -0.55065978     0.00104826     0.00155596    -0.00042231
     6
  Step:    19            Position(A)                                  Velocity(au)
C        -0.02965095    -0.02562810    -0.16581662    -0.00005180    -0.00000963    -0.00151771
N        -0.05112166    -0.00433256     1.45904508     0.00001916     0.00018938     0.00127944
H         0.92910681     0.02693703    -0.70620295    -0.00058568    -0.00191193     0.00013468
H         0.77264607    -0.14906737     1.92407918    -0.00007942     0.00105688     0.00041782
H        -0.89834944    -0.52967409     1.93035380     0.00005583    -0.00328153     0.00026649
H        -0.95261767     0.34761179    -0.55569876     0.00096027     0.00161962    -0.00051327
     6
  Step:    20            Position(A)                                  Velocity(au)
C        -0.03016279    -0.02563826    -0.18228131    -0.00004313     0.00000730    -0.00148427
N        -0.05136798    -0.00234202     1.47291716    -0.00006721     0.00017259     0.00125257
H         0.92233150     0.00478881    -0.70433724    -0.00060927    -0.00213690     0.00017571
H         0.77570591    -0.13752497     1.93071888     0.00065310     0.00105207     0.00080069
H        -0.89496934    -0.56472058     1.93146175     0.00058431    -0.00310005    -0.00006654
H        -0.94276046     0.36572357    -0.56188860     0.00081969     0.00169941    -0.00062931
     6
  Step:    21            Position(A)                                  Velocity(au)
C        -0.03059445    -0.02546832    -0.19828795    -0.00003827     0.00002366    -0.00143483
N        -0.05259194    -0.00055676     1.48644753    -0.00015388     0.00015186     0.00121925
H         0.91577780    -0.01981178    -0.70235900    -0.00054315    -0.00236179     0.00015508
H         0.78693397    -0.12605127     1.94159581     0.00135065     0.00105383     0.00115794
H        -0.88556663    -0.59749367     1.92889811     0.00114120    -0.00287515    -0.00039623
H        -0.93468537     0.38478963    -0.56946621     0.00064561     0.00179081    -0.00076238
     6
  Step:    22            Position(A)                                  Velocity(au)
C        -0.03100000    -0.02512074    -0.21367102    -0.00003907     0.00004029    -0.00137144
N        -0.05473429     0.00098032     1.49959069    -0.00023046     0.00012761     0.00118349
H         0.91044907    -0.04687988    -0.70094452    -0.00038985    -0.00258979     0.00007604
H         0.80525399    -0.11447032     1.95605102     0.00189966     0.00107681     0.00142938
H        -0.87000338    -0.62762006     1.92279348     0.00169638    -0.00262616    -0.00070676
H        -0.92863651     0.40490107    -0.57856718     0.00046193     0.00188567    -0.00090271
     6
  Step:    23            Position(A)                                  Velocity(au)
C        -0.03144911    -0.02458679    -0.22829078    -0.00004622     0.00005826    -0.00129672
N        -0.05763379     0.00223489     1.51233873    -0.00028951     0.00010107     0.00114770
H         0.90724919    -0.07646842    -0.70069557    -0.00016646    -0.00282379    -0.00005068
H         0.82849276    -0.10249398     1.97286619     0.00222498     0.00112608     0.00157840
H        -0.84845500    -0.65494602     1.91343638     0.00222193    -0.00237452    -0.00098450
H        -0.92457980     0.42604236    -0.58921478     0.00029348     0.00197354    -0.00104031
     6
  Step:    24            Position(A)                                  Velocity(au)
C        -0.03201117    -0.02384627    -0.24203918    -0.00005889     0.00007844    -0.00121371
N        -0.06106791     0.00319138     1.52469890    -0.00032726     0.00007435     0.00111232
H         0.90680736    -0.10865575    -0.70205325     0.00009477    -0.00306451    -0.00020728
H         0.85392962    -0.08983523     1.99058165     0.00230168     0.00119795     0.00159633
H        -0.82139446    -0.67956730     1.90125566     0.00269101    -0.00214499    -0.00121717
H        -0.92221618     0.44807597    -0.60132585     0.00016197     0.00204358    -0.00116634
     6
  Step:    25            Position(A)                                  Velocity(au)
C        -0.03273754    -0.02287077    -0.25484302    -0.00007481     0.00010130    -0.00112557
N        -0.06479312     0.00386151     1.53667281    -0.00034308     0.00005016     0.00107626
H         0.90932257    -0.14351052    -0.70523017     0.00035074    -0.00330868    -0.00037161
H         0.87884639    -0.07628653     2.00778885     0.00214703     0.00128395     0.00149608
H        -0.78958398    -0.70187183     1.88680842     0.00307830    -0.00196607    -0.00139397
H        -0.92103630     0.47074969    -0.61473060     0.00008298     0.00208655    -0.00127415
     6
  Step:    26            Position(A)                                  Velocity(au)
C        -0.03364784    -0.02163012    -0.26666324    -0.00009086     0.00012667    -0.00103518
N        -0.06857346     0.00428882     1.54824416    -0.00033843     0.00003138     0.00103778
H         0.91448039    -0.18103939    -0.71018284     0.00055578    -0.00354826    -0.00052140
H         0.90090008    -0.06174632     2.02331126     0.00180283     0.00137496     0.00130189
H        -0.75405086    -0.72257882     1.87075987     0.00336249    -0.00186838    -0.00150683
H        -0.92040081     0.49372324    -0.62920030     0.00006450     0.00209610    -0.00135968
     6
  Step:    27            Position(A)                                  Velocity(au)
C        -0.03472521    -0.02009959    -0.27748959    -0.00010393     0.00015381    -0.00094479
N        -0.07219693     0.00454810     1.55937623    -0.00031598     0.00002053     0.00099523
H         0.92148134    -0.22113557    -0.71663687     0.00067146    -0.00377149    -0.00063861
H         0.91828677    -0.04620657     2.03627010     0.00131915     0.00146379     0.00104060
H        -0.71602303    -0.74274615     1.85384373     0.00353124    -0.00187966    -0.00155263
H        -0.91962522     0.51660580    -0.64447621     0.00010748     0.00206930    -0.00142126
     6
  Step:    28            Position(A)                                  Velocity(au)
C        -0.03592145    -0.01826531    -0.28733231    -0.00011167     0.00018160    -0.00085584
N        -0.07548606     0.00473791     1.57001679    -0.00027936     0.00001904     0.00094760
H         0.92916996    -0.26354798    -0.72415367     0.00067366    -0.00396521    -0.00071208
H         0.92975906    -0.02972308     2.04607644     0.00074465     0.00154604     0.00073703
H        -0.67679828    -0.76369995     1.83679310     0.00358715    -0.00201587    -0.00153572
H        -0.91804952     0.53899310    -0.66029314     0.00020731     0.00200643    -0.00145914
     6
  Step:    29            Position(A)                                  Velocity(au)
C        -0.03716820    -0.01612677    -0.29621278    -0.00011281     0.00020884    -0.00076899
N        -0.07830851     0.00496472     1.58010687    -0.00023325     0.00002656     0.00089466
H         0.93621896    -0.30788208    -0.73221497     0.00055473    -0.00411758    -0.00073797
H         0.93457749    -0.01238409     2.05239410     0.00012335     0.00161994     0.00041268
H        -0.63754728    -0.78684727     1.82024688     0.00355186    -0.00227055    -0.00146898
H        -0.91508981     0.56050033    -0.67639769     0.00035562     0.00191042    -0.00147496
     6
  Step:    30            Position(A)                                  Velocity(au)
C        -0.03838933    -0.01369644    -0.30415536    -0.00010709     0.00023446    -0.00068423
N        -0.08058887     0.00531903     1.58958928    -0.00018327     0.00004044     0.00083678
H         0.94130576    -0.35362795    -0.74029809     0.00032115    -0.00422002    -0.00071828
H         0.93245748     0.00571628     2.05510453    -0.00050427     0.00168594     0.00008661
H        -0.59909450    -0.81337261     1.80465644     0.00346407    -0.00260781    -0.00137197
H        -0.91026969     0.58078725    -0.69256065     0.00054197     0.00178607    -0.00147123
     6
  Step:    31            Position(A)                                  Velocity(au)
C        -0.03951106    -0.01099753    -0.31118163    -0.00009500     0.00025757    -0.00060117
N        -0.08231793     0.00584939     1.59841313    -0.00013557     0.00005598     0.00077445
H         0.94324482    -0.40020315    -0.74792870    -0.00001128    -0.00426783    -0.00065864
H         0.92354566     0.02449901     2.05428886    -0.00109800     0.00174622    -0.00022279
H        -0.56176418    -0.84389799     1.79023248     0.00337011    -0.00296506    -0.00126605
H        -0.90323310     0.59957413    -0.70858363     0.00075518     0.00163945    -0.00145100
     6
  Step:    32            Position(A)                                  Velocity(au)
C        -0.04046768    -0.00806160    -0.31730704    -0.00007738     0.00027750    -0.00051916
N        -0.08355478     0.00654377     1.60653194    -0.00009610     0.00006752     0.00070773
H         0.94105896    -0.44699487    -0.75470709    -0.00042244    -0.00425977    -0.00056621
H         0.90843668     0.04391821     2.05023048    -0.00161450     0.00180468    -0.00049621
H        -0.52536696    -0.87823907     1.77695907     0.00331048    -0.00326736    -0.00116847
H        -0.89374879     0.61665339    -0.72430400     0.00098393     0.00147747    -0.00141767
     6
  Step:    33            Position(A)                                  Velocity(au)
C        -0.04120385    -0.00492672    -0.32253915    -0.00005517     0.00029371    -0.00043744
N        -0.08442032     0.00732648     1.61389614    -0.00006995     0.00006983     0.00063593
H         0.93400322    -0.49339381    -0.76031563    -0.00089129    -0.00419734    -0.00044839
H         0.88822540     0.06397982     2.04343333    -0.00200555     0.00186715    -0.00071266
H        -0.48934115    -0.91537766     1.76466998     0.00330900    -0.00344771    -0.00108840
H        -0.88170768     0.63189655    -0.73959797     0.00121737     0.00130759    -0.00137495
     6
  Step:    34            Position(A)                                  Velocity(au)
C        -0.04167465    -0.00163613    -0.32687691    -0.00002928     0.00030576    -0.00035521
N        -0.08508517     0.00807145     1.62044402    -0.00006102     0.00005934     0.00055766
H         0.92156026    -0.53881963    -0.76451659    -0.00139796    -0.00408385    -0.00031221
H         0.86456141     0.08476575     2.03463972    -0.00222019     0.00194177    -0.00085074
H        -0.45297635    -0.95366428     1.75314821     0.00336980    -0.00346351    -0.00102684
H        -0.86711658     0.64525935    -0.75438362     0.00144527     0.00113759    -0.00132679
     6
  Step:    35            Position(A)                                  Velocity(au)
C        -0.04184444     0.00176228    -0.33031013    -0.00000051     0.00031323    -0.00027159
N        -0.08575533     0.00862457     1.62609594    -0.00007173     0.00003451     0.00047137
H         0.90342014    -0.58273585    -0.76714578    -0.00192429    -0.00392387    -0.00016429
H         0.83965446     0.10645979     2.02482172    -0.00221309     0.00203856    -0.00089279
H        -0.41562027    -0.99114865     1.74220594     0.00348197    -0.00330212    -0.00097938
H        -0.85008972     0.65678352    -0.76862412     0.00165827     0.00097531    -0.00127754
     6
  Step:    36            Position(A)                                  Velocity(au)
C        -0.04168574     0.00521636    -0.33281848     0.00003047     0.00031573    -0.00018552
N        -0.08665447     0.00882653     1.63075620    -0.00010255    -0.00000420     0.00037613
H         0.87946279    -0.62466178    -0.76811081    -0.00245360    -0.00372269    -0.00001147
H         0.81614592     0.12936314     2.01510818    -0.00196001     0.00216683    -0.00083244
H        -0.37680165    -1.02590443     1.73172237     0.00362759    -0.00297631    -0.00094011
H        -0.83083884     0.66659602    -0.78233226     0.00184798     0.00082823    -0.00123208
     6
  Step:    37            Position(A)                                  Velocity(au)
C        -0.04117793     0.00866951    -0.33436874     0.00006310     0.00031275    -0.00009544
N        -0.08799871     0.00853268     1.63432448    -0.00015136    -0.00005443     0.00027247
H         0.84974293    -0.66417693    -0.76739661    -0.00296963    -0.00348517     0.00013776
H         0.79677540     0.15386331     2.00661057    -0.00147523     0.00232744    -0.00068486
H        -0.33625982    -1.05626113     1.72163932     0.00378934    -0.00251512    -0.00090537
H        -0.80966161     0.67490262    -0.79557820     0.00200697     0.00070254    -0.00119655
     6
  Step:    38            Position(A)                                  Velocity(au)
C        -0.04030540     0.01205829    -0.33490635     0.00009442     0.00031765    -0.00001902
N        -0.08996569     0.00763569     1.63671697    -0.00019997    -0.00013523     0.00015375
H         0.81449636    -0.70090659    -0.76509702    -0.00356623    -0.00334913     0.00034947
H         0.78387236     0.18028025     2.00012560    -0.00094898     0.00274201    -0.00032517
H        -0.29390259    -1.08092747     1.71191576     0.00398848    -0.00196273    -0.00080403
H        -0.78693261     0.68196542    -0.80850910     0.00218045     0.00066381    -0.00113013
     6
  Step:    39            Position(A)                                  Velocity(au)
C        -0.03917288     0.01546533    -0.33479103     0.00009607     0.00030448    -0.00000500
N        -0.09230880     0.00567448     1.63778320    -0.00018521    -0.00025410     0.00004183
H         0.77338479    -0.73545022    -0.75981146    -0.00384345    -0.00287605     0.00076828
H         0.77690564     0.21238660     1.99855539    -0.00044899     0.00336004     0.00020922
H        -0.25108665    -1.09855497     1.70381271     0.00349610    -0.00115401    -0.00056984
H        -0.76260481     0.68868495    -0.82031156     0.00222524     0.00057293    -0.00092925
     6
  Step:    40            Position(A)                                  Velocity(au)
C        -0.03796687     0.01865986    -0.33432097     0.00012220     0.00027799     0.00008776
N        -0.09464369     0.00256146     1.63766755    -0.00023221    -0.00031641    -0.00006031
H         0.72957885    -0.76469788    -0.75072848    -0.00412934    -0.00247043     0.00089589
H         0.77600848     0.24991564     2.00171174     0.00020187     0.00351019     0.00035393
H        -0.21280742    -1.10744162     1.69773593     0.00346646    -0.00046479    -0.00052907
H        -0.73810547     0.69448351    -0.83046735     0.00223169     0.00050934    -0.00092831
     6
  Step:    41            Position(A)                                  Velocity(au)
C        -0.03649949     0.02154698    -0.33287108     0.00014412     0.00024910     0.00017664
N        -0.09738879    -0.00124755     1.63646373    -0.00025921    -0.00037696    -0.00015598
H         0.68304756    -0.78949568    -0.74021211    -0.00434261    -0.00207699     0.00101979
H         0.78132188     0.28917873     2.00629829     0.00064969     0.00364522     0.00044483
H        -0.17525125    -1.10872315     1.69223828     0.00338074     0.00021197    -0.00046861
H        -0.71378242     0.69982780    -0.84062003     0.00219696     0.00048989    -0.00093312
     6
  Step:    42            Position(A)                                  Velocity(au)
C        -0.03481395     0.02410938    -0.33045674     0.00016156     0.00021961     0.00026473
N        -0.10031452    -0.00568528     1.63425511    -0.00026493    -0.00042840    -0.00024368
H         0.63457597    -0.81013600    -0.72841869    -0.00448098    -0.00172079     0.00112446
H         0.79022159     0.32966173     2.01144318     0.00084766     0.00371513     0.00044833
H        -0.13884725    -1.10280444     1.68748417     0.00326004     0.00083025    -0.00039391
H        -0.69004273     0.70520080    -0.85088107     0.00212970     0.00051170    -0.00094714
     6
  Step:    43            Position(A)                                  Velocity(au)
C        -0.03296508     0.02635145    -0.32707961     0.00017333     0.00019173     0.00035277
N        -0.10318466    -0.01061968     1.63113286    -0.00025026    -0.00046559    -0.00032339
H         0.58501752    -0.82714122    -0.71561230    -0.00453905    -0.00142256     0.00120156
H         0.79986597     0.37045433     2.01610640     0.00079884     0.00369473     0.00036047
H        -0.10393164    -1.09055983     1.68362084     0.00311201     0.00134607    -0.00030552
H        -0.66719109     0.71102222    -0.86134055     0.00204056     0.00056713    -0.00096605
     6
  Step:    44            Position(A)                                  Velocity(au)
C        -0.03102212     0.02830374    -0.32273931     0.00017822     0.00016786     0.00044066
N        -0.10578946    -0.01587095     1.62718033    -0.00021857    -0.00048471    -0.00039622
H         0.53527563    -0.84125713    -0.70213231    -0.00451435    -0.00120159     0.00124520
H         0.80769769     0.41049094     2.01932905     0.00054119     0.00357818     0.00019427
H        -0.07076615    -1.07335655     1.68080033     0.00294484     0.00171358    -0.00020252
H        -0.64540165     0.71760791    -0.87201530     0.00194201     0.00064539    -0.00098177
     6