|===============================================================================
|
|  DFTB+ release 20.1
|
|  Copyright (C) 2006 - 2020  DFTB+ developers group
|
|===============================================================================
|
|  When publishing results obtained with DFTB+, please cite the following
|  reference:
|
|  * DFTB+, a software package for efficient approximate density functional
|    theory based atomistic simulations, J. Chem. Phys. 152, 124101 (2020).
|    [doi: 10.1063/1.5143190]
|
|  You should also cite additional publications crediting the parametrization
|  data you use. Please consult the documentation of the SK-files for the
|  references.
|
|===============================================================================

Reading input file 'dftb_in.hsd'
Parser version: 8

--------------------------------------------------------------------------------
Reading SK-files:
Done.


Processed input in HSD format written to 'dftb_pin.hsd'

Starting initialization...
--------------------------------------------------------------------------------
OpenMP threads:              1
Chosen random seed:          511333992
Mode:                        Static calculation
Self consistent charges:     Yes
SCC-tolerance:                 0.100000E-05
Max. scc iterations:                   1000
Shell resolved Hubbard:      No
Spin polarisation:           No
Nr. of up electrons:             6.000000
Nr. of down electrons:           6.000000
Periodic boundaries:         No
Electronic solver:           Relatively robust
Maximal SCC-cycles:                    1000
Initial charges:             Set automatically (system chrg:   0.100E+01)
Included shells:             C:  s, p
                             N:  s, p
                             H:  s
Spin coupling constants:     C   1(s)-1(s):  -0.455900E-01
                             C   1(s)-2(p):  -0.293000E-01
                             C   2(p)-1(s):  -0.293000E-01
                             C   2(p)-2(p):  -0.275500E-01
                             N   1(s)-1(s):  -0.468700E-01
                             N   1(s)-2(p):  -0.317000E-01
                             N   2(p)-1(s):  -0.317000E-01
                             N   2(p)-2(p):  -0.307200E-01
                             H   1(s)-1(s):  -0.792500E-01
Range separated hybrid:      Yes
  Screening parameter omega:   0.300000E+00
  Range separated algorithm:   MatrixBased
Extra options:
                             Mulliken analysis
                             Force calculation
Force type                   original
                             Eigenvector printing


REKS Calcuation:             Yes
SSR(2,2) Calcuation:         Yes
Energy Functional:           (PPS+OSS)/2
Number of Core Orbitals:                  5
Number of Active Orbitals:                2
Number of Basis:                         12
Number of States:                         2
State-Averaging Weight:          0.500000
                                 0.500000
State of Interest:                        2
Initial Guess:               Diagonalize H0 matrix
Newton-Raphson for FON opt:  Yes
NR max. Iterations:                      50
Level Shifting:              Yes
Shift Value:                     0.300000
W Scale Factor:              C  =    3.000000
                             N  =    3.000000
                             H  =    3.000000
Transition Dipole:           No
Gradient of Microstate:      No
CP-REKS Solver:              Preconditioned Conjugate-Gradient
CG max. Iterations:                     100
CG Tolerance:                  0.100000E-07
Memory for A and Hxc:        Direct Updating Without Saving
Non-Adiabatic Coupling:      Yes

--------------------------------------------------------------------------------

***  Geometry step: 0

  iSCC       reks energy        Diff energy         x_a       SCC error   
    1       -6.2358825237       0.0000000000     0.997137    1.15416706
    2       -6.2540296982      -0.0181471745     0.999548    0.10830155
    3       -6.2611647879      -0.0071350897     0.999926    0.07435990
    4       -6.2638586709      -0.0026938830     0.999984    0.04478213
    5       -6.2645892179      -0.0007305470     0.999994    0.02308471
    6       -6.2647400462      -0.0001508283     0.999996    0.01062612
    7       -6.2647690538      -0.0000290076     0.999997    0.00432332
    8       -6.2647757938      -0.0000067400     0.999997    0.00170455
    9       -6.2647781809      -0.0000023871     0.999997    0.00068233
   10       -6.2647794470      -0.0000012660     0.999997    0.00031832
   11       -6.2647802834      -0.0000008364     0.999997    0.00027952
   12       -6.2647808978      -0.0000006144     0.999997    0.00024941
   13       -6.2647813800      -0.0000004822     0.999997    0.00022665
   14       -6.2647817786      -0.0000003986     0.999997    0.00020960
   15       -6.2647821227      -0.0000003441     0.999997    0.00019677
   16       -6.2647824305      -0.0000003078     0.999997    0.00018702
   17       -6.2647827133      -0.0000002828     0.999997    0.00017949
   18       -6.2647829785      -0.0000002652     0.999997    0.00017357
   19       -6.2647832308      -0.0000002522     0.999997    0.00016881
   20       -6.2647834731      -0.0000002423     0.999997    0.00016490
   21       -6.2647837075      -0.0000002344     0.999997    0.00016160
   22       -6.2647839353      -0.0000002278     0.999997    0.00015876
   23       -6.2647841573      -0.0000002220     0.999997    0.00015627
   24       -6.2647843742      -0.0000002169     0.999997    0.00015403
   25       -6.2647845863      -0.0000002121     0.999997    0.00015198
   26       -6.2647847940      -0.0000002077     0.999997    0.00015009
   27       -6.2647849974      -0.0000002035     0.999997    0.00014832
   28       -6.2647851969      -0.0000001994     0.999997    0.00014663
   29       -6.2647853924      -0.0000001955     0.999997    0.00014502
   30       -6.2647855841      -0.0000001917     0.999997    0.00014347
   31       -6.2647857722      -0.0000001881     0.999997    0.00014197
   32       -6.2647859566      -0.0000001845     0.999997    0.00014052
   33       -6.2647861376      -0.0000001810     0.999997    0.00013909
   34       -6.2647863151      -0.0000001776     0.999997    0.00013770
   35       -6.2647864894      -0.0000001742     0.999997    0.00013634
   36       -6.2647866603      -0.0000001710     0.999997    0.00013499
   37       -6.2647868281      -0.0000001678     0.999997    0.00013368
   38       -6.2647869927      -0.0000001646     0.999997    0.00013238
   39       -6.2647871543      -0.0000001616     0.999997    0.00013110
   40       -6.2647873129      -0.0000001586     0.999997    0.00012984
   41       -6.2647874686      -0.0000001557     0.999997    0.00012860
   42       -6.2647876214      -0.0000001528     0.999997    0.00012737
   43       -6.2647877715      -0.0000001500     0.999997    0.00012616
   44       -6.2647879188      -0.0000001473     0.999997    0.00012497
   45       -6.2647880634      -0.0000001446     0.999997    0.00012379
   46       -6.2647882054      -0.0000001420     0.999997    0.00012263
   47       -6.2647883448      -0.0000001394     0.999997    0.00012148
   48       -6.2647884817      -0.0000001369     0.999997    0.00012035
   49       -6.2647886162      -0.0000001345     0.999997    0.00011923
   50       -6.2647887482      -0.0000001321     0.999997    0.00011813
   51       -6.2647888779      -0.0000001297     0.999997    0.00011703
   52       -6.2647890053      -0.0000001274     0.999997    0.00011596
   53       -6.2647891305      -0.0000001251     0.999997    0.00011489
   54       -6.2647892534      -0.0000001229     0.999997    0.00011384
   55       -6.2647893742      -0.0000001208     0.999997    0.00011280
   56       -6.2647894928      -0.0000001186     0.999997    0.00011178
   57       -6.2647896094      -0.0000001166     0.999997    0.00011076
   58       -6.2647897239      -0.0000001145     0.999997    0.00010976
   59       -6.2647898365      -0.0000001125     0.999997    0.00010877
   60       -6.2647899471      -0.0000001106     0.999997    0.00010780
   61       -6.2647900557      -0.0000001087     0.999997    0.00010683
   62       -6.2647901626      -0.0000001068     0.999997    0.00010588
   63       -6.2647902675      -0.0000001050     0.999997    0.00010494
   64       -6.2647903707      -0.0000001032     0.999997    0.00010401
   65       -6.2647904722      -0.0000001014     0.999997    0.00010309
   66       -6.2647905719      -0.0000000997     0.999997    0.00010218
   67       -6.2647906699      -0.0000000980     0.999997    0.00010129
   68       -6.2647907663      -0.0000000964     0.999997    0.00010040
   69       -6.2647908610      -0.0000000947     0.999997    0.00009953
   70       -6.2647909542      -0.0000000932     0.999997    0.00009866
   71       -6.2647910458      -0.0000000916     0.999997    0.00009781
   72       -6.2647911358      -0.0000000901     0.999997    0.00009696
   73       -6.2647912244      -0.0000000886     0.999997    0.00009613
   74       -6.2647913115      -0.0000000871     0.999997    0.00009530
   75       -6.2647913972      -0.0000000857     0.999997    0.00009449
   76       -6.2647914815      -0.0000000843     0.999997    0.00009368
   77       -6.2647915644      -0.0000000829     0.999997    0.00009289
   78       -6.2647916459      -0.0000000815     0.999997    0.00009210
   79       -6.2647917261      -0.0000000802     0.999997    0.00009133
   80       -6.2647918051      -0.0000000789     0.999997    0.00009056
   81       -6.2647918827      -0.0000000776     0.999997    0.00008980
   82       -6.2647919591      -0.0000000764     0.999997    0.00008905
   83       -6.2647920342      -0.0000000752     0.999997    0.00008831
   84       -6.2647921082      -0.0000000740     0.999997    0.00008758
   85       -6.2647921810      -0.0000000728     0.999997    0.00008685
   86       -6.2647922526      -0.0000000716     0.999997    0.00008614
   87       -6.2647923231      -0.0000000705     0.999997    0.00008543
   88       -6.2647923925      -0.0000000694     0.999997    0.00008473
   89       -6.2647924608      -0.0000000683     0.999997    0.00008404
   90       -6.2647925280      -0.0000000672     0.999997    0.00008336
   91       -6.2647925942      -0.0000000662     0.999997    0.00008268
   92       -6.2647926593      -0.0000000651     0.999997    0.00008201
   93       -6.2647927234      -0.0000000641     0.999997    0.00008135
   94       -6.2647927865      -0.0000000631     0.999997    0.00008070
   95       -6.2647928487      -0.0000000622     0.999997    0.00008006
   96       -6.2647929099      -0.0000000612     0.999997    0.00007942
   97       -6.2647929702      -0.0000000603     0.999997    0.00007879
   98       -6.2647930295      -0.0000000593     0.999997    0.00007816
   99       -6.2647930880      -0.0000000584     0.999997    0.00007755
  100       -6.2647931455      -0.0000000576     0.999997    0.00007694
  101       -6.2647932022      -0.0000000567     0.999997    0.00007634
  102       -6.2647932580      -0.0000000558     0.999997    0.00007574
  103       -6.2647933130      -0.0000000550     0.999997    0.00007515
  104       -6.2647933672      -0.0000000542     0.999997    0.00007457
  105       -6.2647934206      -0.0000000534     0.999997    0.00007399
  106       -6.2647934732      -0.0000000526     0.999997    0.00007342
  107       -6.2647935249      -0.0000000518     0.999997    0.00007286
  108       -6.2647935760      -0.0000000510     0.999997    0.00007230
  109       -6.2647936263      -0.0000000503     0.999997    0.00007175
  110       -6.2647936758      -0.0000000495     0.999997    0.00007120
  111       -6.2647937246      -0.0000000488     0.999997    0.00007066
  112       -6.2647937727      -0.0000000481     0.999997    0.00007013
  113       -6.2647938201      -0.0000000474     0.999997    0.00006960
  114       -6.2647938669      -0.0000000467     0.999997    0.00006908
  115       -6.2647939129      -0.0000000460     0.999997    0.00006856
  116       -6.2647939583      -0.0000000454     0.999997    0.00006805
  117       -6.2647940030      -0.0000000447     0.999997    0.00006755
  118       -6.2647940471      -0.0000000441     0.999997    0.00006705
  119       -6.2647940906      -0.0000000435     0.999997    0.00006655
  120       -6.2647941334      -0.0000000429     0.999997    0.00006606
  121       -6.2647941757      -0.0000000422     0.999997    0.00006558
  122       -6.2647942173      -0.0000000417     0.999997    0.00006510
  123       -6.2647942584      -0.0000000411     0.999997    0.00006463
  124       -6.2647942989      -0.0000000405     0.999997    0.00006416
  125       -6.2647943388      -0.0000000399     0.999997    0.00006370
  126       -6.2647943782      -0.0000000394     0.999997    0.00006324
  127       -6.2647944170      -0.0000000388     0.999997    0.00006278
  128       -6.2647944553      -0.0000000383     0.999997    0.00006233
  129       -6.2647944931      -0.0000000378     0.999997    0.00006189
  130       -6.2647945303      -0.0000000372     0.999997    0.00006145
  131       -6.2647945671      -0.0000000367     0.999997    0.00006101
  132       -6.2647946033      -0.0000000362     0.999997    0.00006058
  133       -6.2647946391      -0.0000000357     0.999997    0.00006016
  134       -6.2647946743      -0.0000000353     0.999997    0.00005973
  135       -6.2647947091      -0.0000000348     0.999997    0.00005932
  136       -6.2647947434      -0.0000000343     0.999997    0.00005890
  137       -6.2647947773      -0.0000000339     0.999997    0.00005849
  138       -6.2647948107      -0.0000000334     0.999997    0.00005809
  139       -6.2647948436      -0.0000000330     0.999997    0.00005769
  140       -6.2647948762      -0.0000000325     0.999997    0.00005729
  141       -6.2647949083      -0.0000000321     0.999997    0.00005690
  142       -6.2647949399      -0.0000000317     0.999997    0.00005651
  143       -6.2647949712      -0.0000000313     0.999997    0.00005613
  144       -6.2647950020      -0.0000000308     0.999997    0.00005575
  145       -6.2647950325      -0.0000000304     0.999997    0.00005537
  146       -6.2647950625      -0.0000000300     0.999997    0.00005500
  147       -6.2647950922      -0.0000000297     0.999997    0.00005463
  148       -6.2647951214      -0.0000000293     0.999997    0.00005426
  149       -6.2647951503      -0.0000000289     0.999997    0.00005390
  150       -6.2647951789      -0.0000000285     0.999997    0.00005354
  151       -6.2647952070      -0.0000000282     0.999997    0.00005318
  152       -6.2647952348      -0.0000000278     0.999997    0.00005283
  153       -6.2647952623      -0.0000000274     0.999997    0.00005249
  154       -6.2647952894      -0.0000000271     0.999997    0.00005214
  155       -6.2647953161      -0.0000000268     0.999997    0.00005180
  156       -6.2647953425      -0.0000000264     0.999997    0.00005146
  157       -6.2647953686      -0.0000000261     0.999997    0.00005113
  158       -6.2647953944      -0.0000000258     0.999997    0.00005080
  159       -6.2647954198      -0.0000000254     0.999997    0.00005047
  160       -6.2647954449      -0.0000000251     0.999997    0.00005014
  161       -6.2647954698      -0.0000000248     0.999997    0.00004982
  162       -6.2647954943      -0.0000000245     0.999997    0.00004950
  163       -6.2647955185      -0.0000000242     0.999997    0.00004919
  164       -6.2647955424      -0.0000000239     0.999997    0.00004888
  165       -6.2647955660      -0.0000000236     0.999997    0.00004857
  166       -6.2647955893      -0.0000000233     0.999997    0.00004826
  167       -6.2647956124      -0.0000000230     0.999997    0.00004796
  168       -6.2647956351      -0.0000000228     0.999997    0.00004766
  169       -6.2647956576      -0.0000000225     0.999997    0.00004736
  170       -6.2647956798      -0.0000000222     0.999997    0.00004706
  171       -6.2647957018      -0.0000000220     0.999997    0.00004677
  172       -6.2647957235      -0.0000000217     0.999997    0.00004648
  173       -6.2647957449      -0.0000000214     0.999997    0.00004619
  174       -6.2647957661      -0.0000000212     0.999997    0.00004591
  175       -6.2647957870      -0.0000000209     0.999997    0.00004563
  176       -6.2647958077      -0.0000000207     0.999997    0.00004535
  177       -6.2647958281      -0.0000000204     0.999997    0.00004507
  178       -6.2647958483      -0.0000000202     0.999997    0.00004480
  179       -6.2647958683      -0.0000000200     0.999997    0.00004453
  180       -6.2647958880      -0.0000000197     0.999997    0.00004426
  181       -6.2647959075      -0.0000000195     0.999997    0.00004400
  182       -6.2647959268      -0.0000000193     0.999997    0.00004373
  183       -6.2647959458      -0.0000000190     0.999997    0.00004347
  184       -6.2647959646      -0.0000000188     0.999997    0.00004321
  185       -6.2647959833      -0.0000000186     0.999997    0.00004296
  186       -6.2647960017      -0.0000000184     0.999997    0.00004270
  187       -6.2647960198      -0.0000000182     0.999997    0.00004245
  188       -6.2647960378      -0.0000000180     0.999997    0.00004220
  189       -6.2647960556      -0.0000000178     0.999997    0.00004195
  190       -6.2647960732      -0.0000000176     0.999997    0.00004171
  191       -6.2647960906      -0.0000000174     0.999997    0.00004147
  192       -6.2647961078      -0.0000000172     0.999997    0.00004123
  193       -6.2647961248      -0.0000000170     0.999997    0.00004099
  194       -6.2647961416      -0.0000000168     0.999997    0.00004075
  195       -6.2647961582      -0.0000000166     0.999997    0.00004052
  196       -6.2647961746      -0.0000000164     0.999997    0.00004028
  197       -6.2647961909      -0.0000000163     0.999997    0.00004005
  198       -6.2647962070      -0.0000000161     0.999997    0.00003983
  199       -6.2647962229      -0.0000000159     0.999997    0.00003960
  200       -6.2647962386      -0.0000000157     0.999997    0.00003938
  201       -6.2647962541      -0.0000000156     0.999997    0.00003916
  202       -6.2647962695      -0.0000000154     0.999997    0.00003894
  203       -6.2647962847      -0.0000000152     0.999997    0.00003872
  204       -6.2647962998      -0.0000000151     0.999997    0.00003850
  205       -6.2647963147      -0.0000000149     0.999997    0.00003829
  206       -6.2647963294      -0.0000000147     0.999997    0.00003807
  207       -6.2647963440      -0.0000000146     0.999997    0.00003786
  208       -6.2647963584      -0.0000000144     0.999997    0.00003766
  209       -6.2647963727      -0.0000000143     0.999997    0.00003745
  210       -6.2647963868      -0.0000000141     0.999997    0.00003724
  211       -6.2647964008      -0.0000000140     0.999997    0.00003704
  212       -6.2647964146      -0.0000000138     0.999997    0.00003684
  213       -6.2647964283      -0.0000000137     0.999997    0.00003664
  214       -6.2647964418      -0.0000000135     0.999997    0.00003644
  215       -6.2647964552      -0.0000000134     0.999997    0.00003624
  216       -6.2647964684      -0.0000000133     0.999997    0.00003605
  217       -6.2647964816      -0.0000000131     0.999997    0.00003586
  218       -6.2647964945      -0.0000000130     0.999997    0.00003567
  219       -6.2647965074      -0.0000000128     0.999997    0.00003548
  220       -6.2647965201      -0.0000000127     0.999997    0.00003529
  221       -6.2647965327      -0.0000000126     0.999997    0.00003510
  222       -6.2647965451      -0.0000000125     0.999997    0.00003492
  223       -6.2647965575      -0.0000000123     0.999997    0.00003473
  224       -6.2647965697      -0.0000000122     0.999997    0.00003455
  225       -6.2647965818      -0.0000000121     0.999997    0.00003437
  226       -6.2647965937      -0.0000000120     0.999997    0.00003419
  227       -6.2647966056      -0.0000000118     0.999997    0.00003401
  228       -6.2647966173      -0.0000000117     0.999997    0.00003384
  229       -6.2647966289      -0.0000000116     0.999997    0.00003366
  230       -6.2647966404      -0.0000000115     0.999997    0.00003349
  231       -6.2647966517      -0.0000000114     0.999997    0.00003332
  232       -6.2647966630      -0.0000000113     0.999997    0.00003315
  233       -6.2647966741      -0.0000000112     0.999997    0.00003298
  234       -6.2647966852      -0.0000000110     0.999997    0.00003281
  235       -6.2647966961      -0.0000000109     0.999997    0.00003265
  236       -6.2647967070      -0.0000000108     0.999997    0.00003248
  237       -6.2647967177      -0.0000000107     0.999997    0.00003232
  238       -6.2647967283      -0.0000000106     0.999997    0.00003216
  239       -6.2647967388      -0.0000000105     0.999997    0.00003200
  240       -6.2647967492      -0.0000000104     0.999997    0.00003184
  241       -6.2647967595      -0.0000000103     0.999997    0.00003168
  242       -6.2647967697      -0.0000000102     0.999997    0.00003152
  243       -6.2647967799      -0.0000000101     0.999997    0.00003137
  244       -6.2647967899      -0.0000000100     0.999997    0.00003121
  245       -6.2647967998      -0.0000000099     0.999997    0.00003106
  246       -6.2647968096      -0.0000000098     0.999997    0.00003091
  247       -6.2647968194      -0.0000000097     0.999997    0.00003076
  248       -6.2647968290      -0.0000000096     0.999997    0.00003061
  249       -6.2647968386      -0.0000000096     0.999997    0.00003046
  250       -6.2647968480      -0.0000000095     0.999997    0.00003031
  251       -6.2647968574      -0.0000000094     0.999997    0.00003017
  252       -6.2647968667      -0.0000000093     0.999997    0.00003002
  253       -6.2647968759      -0.0000000092     0.999997    0.00002988
  254       -6.2647968850      -0.0000000091     0.999997    0.00002973
  255       -6.2647968941      -0.0000000090     0.999997    0.00002959
  256       -6.2647969030      -0.0000000090     0.999997    0.00002945
  257       -6.2647969119      -0.0000000089     0.999997    0.00002931
  258       -6.2647969207      -0.0000000088     0.999997    0.00002918
  259       -6.2647969294      -0.0000000087     0.999997    0.00002904
  260       -6.2647969380      -0.0000000086     0.999997    0.00002890
  261       -6.2647969466      -0.0000000086     0.999997    0.00002877
  262       -6.2647969551      -0.0000000085     0.999997    0.00002863
  263       -6.2647969635      -0.0000000084     0.999997    0.00002850
  264       -6.2647969718      -0.0000000083     0.999997    0.00002837
  265       -6.2647969801      -0.0000000083     0.999997    0.00002824
  266       -6.2647969882      -0.0000000082     0.999997    0.00002811
  267       -6.2647969963      -0.0000000081     0.999997    0.00002798
  268       -6.2647970044      -0.0000000080     0.999997    0.00002785
  269       -6.2647970123      -0.0000000080     0.999997    0.00002773
  270       -6.2647970202      -0.0000000079     0.999997    0.00002760
  271       -6.2647970281      -0.0000000078     0.999997    0.00002748
  272       -6.2647970358      -0.0000000078     0.999997    0.00002735
  273       -6.2647970435      -0.0000000077     0.999997    0.00002723
  274       -6.2647970511      -0.0000000076     0.999997    0.00002711
  275       -6.2647970587      -0.0000000076     0.999997    0.00002699
  276       -6.2647970662      -0.0000000075     0.999997    0.00002687
  277       -6.2647970736      -0.0000000074     0.999997    0.00002675
  278       -6.2647970810      -0.0000000074     0.999997    0.00002663
  279       -6.2647970883      -0.0000000073     0.999997    0.00002651
  280       -6.2647970955      -0.0000000072     0.999997    0.00002639
  281       -6.2647971027      -0.0000000072     0.999997    0.00002628
  282       -6.2647971098      -0.0000000071     0.999997    0.00002616
  283       -6.2647971169      -0.0000000071     0.999997    0.00002605
  284       -6.2647971239      -0.0000000070     0.999997    0.00002594
  285       -6.2647971308      -0.0000000069     0.999997    0.00002582
  286       -6.2647971377      -0.0000000069     0.999997    0.00002571
  287       -6.2647971445      -0.0000000068     0.999997    0.00002560
  288       -6.2647971513      -0.0000000068     0.999997    0.00002549
  289       -6.2647971580      -0.0000000067     0.999997    0.00002538
  290       -6.2647971646      -0.0000000067     0.999997    0.00002527
  291       -6.2647971712      -0.0000000066     0.999997    0.00002517
  292       -6.2647971778      -0.0000000065     0.999997    0.00002506
  293       -6.2647971843      -0.0000000065     0.999997    0.00002495
  294       -6.2647971907      -0.0000000064     0.999997    0.00002485
  295       -6.2647971971      -0.0000000064     0.999997    0.00002475
  296       -6.2647972034      -0.0000000063     0.999997    0.00002464
  297       -6.2647972097      -0.0000000063     0.999997    0.00002454
  298       -6.2647972159      -0.0000000062     0.999997    0.00002444
  299       -6.2647972221      -0.0000000062     0.999997    0.00002434
  300       -6.2647972283      -0.0000000061     0.999997    0.00002423
  301       -6.2647972343      -0.0000000061     0.999997    0.00002413
  302       -6.2647972404      -0.0000000060     0.999997    0.00002404
  303       -6.2647972464      -0.0000000060     0.999997    0.00002394
  304       -6.2647972523      -0.0000000059     0.999997    0.00002384
  305       -6.2647972582      -0.0000000059     0.999997    0.00002374
  306       -6.2647972640      -0.0000000058     0.999997    0.00002365
  307       -6.2647972698      -0.0000000058     0.999997    0.00002355
  308       -6.2647972756      -0.0000000058     0.999997    0.00002346
  309       -6.2647972813      -0.0000000057     0.999997    0.00002336
  310       -6.2647972870      -0.0000000057     0.999997    0.00002327
  311       -6.2647972926      -0.0000000056     0.999997    0.00002317
  312       -6.2647972982      -0.0000000056     0.999997    0.00002308
  313       -6.2647973037      -0.0000000055     0.999997    0.00002299
  314       -6.2647973092      -0.0000000055     0.999997    0.00002290
  315       -6.2647973147      -0.0000000055     0.999997    0.00002281
  316       -6.2647973201      -0.0000000054     0.999997    0.00002272
  317       -6.2647973254      -0.0000000054     0.999997    0.00002263
  318       -6.2647973308      -0.0000000053     0.999997    0.00002254
  319       -6.2647973361      -0.0000000053     0.999997    0.00002245
  320       -6.2647973413      -0.0000000052     0.999997    0.00002237
  321       -6.2647973465      -0.0000000052     0.999997    0.00002228
  322       -6.2647973517      -0.0000000052     0.999997    0.00002219
  323       -6.2647973568      -0.0000000051     0.999997    0.00002211
  324       -6.2647973619      -0.0000000051     0.999997    0.00002202
  325       -6.2647973670      -0.0000000051     0.999997    0.00002194
  326       -6.2647973720      -0.0000000050     0.999997    0.00002186
  327       -6.2647973770      -0.0000000050     0.999997    0.00002177
  328       -6.2647973819      -0.0000000049     0.999997    0.00002169
  329       -6.2647973868      -0.0000000049     0.999997    0.00002161
  330       -6.2647973917      -0.0000000049     0.999997    0.00002153
  331       -6.2647973965      -0.0000000048     0.999997    0.00002145
  332       -6.2647974013      -0.0000000048     0.999997    0.00002137
  333       -6.2647974061      -0.0000000048     0.999997    0.00002129
  334       -6.2647974109      -0.0000000047     0.999997    0.00002121
  335       -6.2647974156      -0.0000000047     0.999997    0.00002113
  336       -6.2647974202      -0.0000000047     0.999997    0.00002105
  337       -6.2647974248      -0.0000000046     0.999997    0.00002097
  338       -6.2647974294      -0.0000000046     0.999997    0.00002089
  339       -6.2647974340      -0.0000000046     0.999997    0.00002082
  340       -6.2647974386      -0.0000000045     0.999997    0.00002074
  341       -6.2647974431      -0.0000000045     0.999997    0.00002067
  342       -6.2647974475      -0.0000000045     0.999997    0.00002059
  343       -6.2647974520      -0.0000000044     0.999997    0.00002052
  344       -6.2647974564      -0.0000000044     0.999997    0.00002044
  345       -6.2647974608      -0.0000000044     0.999997    0.00002037
  346       -6.2647974651      -0.0000000043     0.999997    0.00002030
  347       -6.2647974694      -0.0000000043     0.999997    0.00002022
  348       -6.2647974737      -0.0000000043     0.999997    0.00002015
  349       -6.2647974780      -0.0000000043     0.999997    0.00002008
  350       -6.2647974822      -0.0000000042     0.999997    0.00002001
  351       -6.2647974864      -0.0000000042     0.999997    0.00001994
  352       -6.2647974906      -0.0000000042     0.999997    0.00001987
  353       -6.2647974947      -0.0000000041     0.999997    0.00001980
  354       -6.2647974988      -0.0000000041     0.999997    0.00001973
  355       -6.2647975029      -0.0000000041     0.999997    0.00001966
  356       -6.2647975070      -0.0000000041     0.999997    0.00001959
  357       -6.2647975110      -0.0000000040     0.999997    0.00001952
  358       -6.2647975150      -0.0000000040     0.999997    0.00001946
  359       -6.2647975190      -0.0000000040     0.999997    0.00001939
  360       -6.2647975229      -0.0000000040     0.999997    0.00001932
  361       -6.2647975269      -0.0000000039     0.999997    0.00001926
  362       -6.2647975308      -0.0000000039     0.999997    0.00001919
  363       -6.2647975346      -0.0000000039     0.999997    0.00001913
  364       -6.2647975385      -0.0000000038     0.999997    0.00001906
  365       -6.2647975423      -0.0000000038     0.999997    0.00001900
  366       -6.2647975461      -0.0000000038     0.999997    0.00001893
  367       -6.2647975499      -0.0000000038     0.999997    0.00001887
  368       -6.2647975536      -0.0000000037     0.999997    0.00001881
  369       -6.2647975574      -0.0000000037     0.999997    0.00001874
  370       -6.2647975611      -0.0000000037     0.999997    0.00001868
  371       -6.2647975647      -0.0000000037     0.999997    0.00001862
  372       -6.2647975684      -0.0000000037     0.999997    0.00001856
  373       -6.2647975720      -0.0000000036     0.999997    0.00001850
  374       -6.2647975756      -0.0000000036     0.999997    0.00001844
  375       -6.2647975792      -0.0000000036     0.999997    0.00001837
  376       -6.2647975828      -0.0000000036     0.999997    0.00001831
  377       -6.2647975863      -0.0000000035     0.999997    0.00001826
  378       -6.2647975898      -0.0000000035     0.999997    0.00001820
  379       -6.2647975933      -0.0000000035     0.999997    0.00001814
  380       -6.2647975968      -0.0000000035     0.999997    0.00001808
  381       -6.2647976003      -0.0000000035     0.999997    0.00001802
  382       -6.2647976037      -0.0000000034     0.999997    0.00001796
  383       -6.2647976071      -0.0000000034     0.999997    0.00001791
  384       -6.2647976105      -0.0000000034     0.999997    0.00001785
  385       -6.2647976139      -0.0000000034     0.999997    0.00001779
  386       -6.2647976172      -0.0000000033     0.999997    0.00001774
  387       -6.2647976205      -0.0000000033     0.999997    0.00001768
  388       -6.2647976238      -0.0000000033     0.999997    0.00001762
  389       -6.2647976271      -0.0000000033     0.999997    0.00001757
  390       -6.2647976304      -0.0000000033     0.999997    0.00001751
  391       -6.2647976336      -0.0000000032     0.999997    0.00001746
  392       -6.2647976369      -0.0000000032     0.999997    0.00001740
  393       -6.2647976401      -0.0000000032     0.999997    0.00001735
  394       -6.2647976433      -0.0000000032     0.999997    0.00001730
  395       -6.2647976464      -0.0000000032     0.999997    0.00001724
  396       -6.2647976496      -0.0000000032     0.999997    0.00001719
  397       -6.2647976527      -0.0000000031     0.999997    0.00001714
  398       -6.2647976558      -0.0000000031     0.999997    0.00001709
  399       -6.2647976589      -0.0000000031     0.999997    0.00001704
  400       -6.2647976620      -0.0000000031     0.999997    0.00001698
  401       -6.2647976651      -0.0000000031     0.999997    0.00001693
  402       -6.2647976681      -0.0000000030     0.999997    0.00001688
  403       -6.2647976711      -0.0000000030     0.999997    0.00001683
  404       -6.2647976741      -0.0000000030     0.999997    0.00001678
  405       -6.2647976771      -0.0000000030     0.999997    0.00001673
  406       -6.2647976801      -0.0000000030     0.999997    0.00001668
  407       -6.2647976831      -0.0000000030     0.999997    0.00001663
  408       -6.2647976860      -0.0000000029     0.999997    0.00001658
  409       -6.2647976889      -0.0000000029     0.999997    0.00001653
  410       -6.2647976918      -0.0000000029     0.999997    0.00001649
  411       -6.2647976947      -0.0000000029     0.999997    0.00001644
  412       -6.2647976976      -0.0000000029     0.999997    0.00001639
  413       -6.2647977004      -0.0000000029     0.999997    0.00001634
  414       -6.2647977033      -0.0000000028     0.999997    0.00001629
  415       -6.2647977061      -0.0000000028     0.999997    0.00001625
  416       -6.2647977089      -0.0000000028     0.999997    0.00001620
  417       -6.2647977117      -0.0000000028     0.999997    0.00001615
  418       -6.2647977145      -0.0000000028     0.999997    0.00001611
  419       -6.2647977172      -0.0000000028     0.999997    0.00001606
  420       -6.2647977200      -0.0000000027     0.999997    0.00001602
  421       -6.2647977227      -0.0000000027     0.999997    0.00001597
  422       -6.2647977254      -0.0000000027     0.999997    0.00001593
  423       -6.2647977281      -0.0000000027     0.999997    0.00001588
  424       -6.2647977308      -0.0000000027     0.999997    0.00001584
  425       -6.2647977335      -0.0000000027     0.999997    0.00001579
  426       -6.2647977362      -0.0000000027     0.999997    0.00001575
  427       -6.2647977388      -0.0000000026     0.999997    0.00001571
  428       -6.2647977414      -0.0000000026     0.999997    0.00001566
  429       -6.2647977441      -0.0000000026     0.999997    0.00001562
  430       -6.2647977467      -0.0000000026     0.999997    0.00001558
  431       -6.2647977492      -0.0000000026     0.999997    0.00001553
  432       -6.2647977518      -0.0000000026     0.999997    0.00001549
  433       -6.2647977544      -0.0000000026     0.999997    0.00001545
  434       -6.2647977569      -0.0000000025     0.999997    0.00001541
  435       -6.2647977595      -0.0000000025     0.999997    0.00001537
  436       -6.2647977620      -0.0000000025     0.999997    0.00001532
  437       -6.2647977645      -0.0000000025     0.999997    0.00001528
  438       -6.2647977670      -0.0000000025     0.999997    0.00001524
  439       -6.2647977695      -0.0000000025     0.999997    0.00001520
  440       -6.2647977720      -0.0000000025     0.999997    0.00001516
  441       -6.2647977744      -0.0000000025     0.999997    0.00001512
  442       -6.2647977769      -0.0000000024     0.999997    0.00001508
  443       -6.2647977793      -0.0000000024     0.999997    0.00001504
  444       -6.2647977817      -0.0000000024     0.999997    0.00001500
  445       -6.2647977841      -0.0000000024     0.999997    0.00001496
  446       -6.2647977865      -0.0000000024     0.999997    0.00001492
  447       -6.2647977889      -0.0000000024     0.999997    0.00001489
  448       -6.2647977913      -0.0000000024     0.999997    0.00001485
  449       -6.2647977936      -0.0000000024     0.999997    0.00001481
  450       -6.2647977960      -0.0000000023     0.999997    0.00001477
  451       -6.2647977983      -0.0000000023     0.999997    0.00001473
  452       -6.2647978006      -0.0000000023     0.999997    0.00001470
  453       -6.2647978030      -0.0000000023     0.999997    0.00001466
  454       -6.2647978053      -0.0000000023     0.999997    0.00001462
  455       -6.2647978076      -0.0000000023     0.999997    0.00001458
  456       -6.2647978098      -0.0000000023     0.999997    0.00001455
  457       -6.2647978121      -0.0000000023     0.999997    0.00001451
  458       -6.2647978144      -0.0000000023     0.999997    0.00001448
  459       -6.2647978166      -0.0000000022     0.999997    0.00001444
  460       -6.2647978189      -0.0000000022     0.999997    0.00001440
  461       -6.2647978211      -0.0000000022     0.999997    0.00001437
  462       -6.2647978233      -0.0000000022     0.999997    0.00001433
  463       -6.2647978255      -0.0000000022     0.999997    0.00001430
  464       -6.2647978277      -0.0000000022     0.999997    0.00001426
  465       -6.2647978299      -0.0000000022     0.999997    0.00001423
  466       -6.2647978321      -0.0000000022     0.999997    0.00001419
  467       -6.2647978342      -0.0000000022     0.999997    0.00001416
  468       -6.2647978364      -0.0000000022     0.999997    0.00001412
  469       -6.2647978385      -0.0000000021     0.999997    0.00001409
  470       -6.2647978407      -0.0000000021     0.999997    0.00001406
  471       -6.2647978428      -0.0000000021     0.999997    0.00001402
  472       -6.2647978449      -0.0000000021     0.999997    0.00001399
  473       -6.2647978470      -0.0000000021     0.999997    0.00001396
  474       -6.2647978491      -0.0000000021     0.999997    0.00001392
  475       -6.2647978512      -0.0000000021     0.999997    0.00001389
  476       -6.2647978533      -0.0000000021     0.999997    0.00001386
  477       -6.2647978553      -0.0000000021     0.999997    0.00001383
  478       -6.2647978574      -0.0000000021     0.999997    0.00001379
  479       -6.2647978594      -0.0000000020     0.999997    0.00001376
  480       -6.2647978615      -0.0000000020     0.999997    0.00001373
  481       -6.2647978635      -0.0000000020     0.999997    0.00001370
  482       -6.2647978655      -0.0000000020     0.999997    0.00001367
  483       -6.2647978675      -0.0000000020     0.999997    0.00001364
  484       -6.2647978695      -0.0000000020     0.999997    0.00001360
  485       -6.2647978715      -0.0000000020     0.999997    0.00001357
  486       -6.2647978735      -0.0000000020     0.999997    0.00001354
  487       -6.2647978755      -0.0000000020     0.999997    0.00001351
  488       -6.2647978775      -0.0000000020     0.999997    0.00001348
  489       -6.2647978794      -0.0000000020     0.999997    0.00001345
  490       -6.2647978814      -0.0000000020     0.999997    0.00001342
  491       -6.2647978833      -0.0000000019     0.999997    0.00001339
  492       -6.2647978853      -0.0000000019     0.999997    0.00001336
  493       -6.2647978872      -0.0000000019     0.999997    0.00001333
  494       -6.2647978891      -0.0000000019     0.999997    0.00001330
  495       -6.2647978910      -0.0000000019     0.999997    0.00001327
  496       -6.2647978929      -0.0000000019     0.999997    0.00001325
  497       -6.2647978948      -0.0000000019     0.999997    0.00001322
  498       -6.2647978967      -0.0000000019     0.999997    0.00001319
  499       -6.2647978986      -0.0000000019     0.999997    0.00001316
  500       -6.2647979004      -0.0000000019     0.999997    0.00001313
  501       -6.2647979023      -0.0000000019     0.999997    0.00001310
  502       -6.2647979042      -0.0000000019     0.999997    0.00001307
  503       -6.2647979060      -0.0000000018     0.999997    0.00001305
  504       -6.2647979079      -0.0000000018     0.999997    0.00001302
  505       -6.2647979097      -0.0000000018     0.999997    0.00001299
  506       -6.2647979115      -0.0000000018     0.999997    0.00001296
  507       -6.2647979133      -0.0000000018     0.999997    0.00001294
  508       -6.2647979151      -0.0000000018     0.999997    0.00001291
  509       -6.2647979170      -0.0000000018     0.999997    0.00001288
  510       -6.2647979187      -0.0000000018     0.999997    0.00001286
  511       -6.2647979205      -0.0000000018     0.999997    0.00001283
  512       -6.2647979223      -0.0000000018     0.999997    0.00001280
  513       -6.2647979241      -0.0000000018     0.999997    0.00001278
  514       -6.2647979259      -0.0000000018     0.999997    0.00001275
  515       -6.2647979276      -0.0000000018     0.999997    0.00001273
  516       -6.2647979294      -0.0000000018     0.999997    0.00001270
  517       -6.2647979311      -0.0000000017     0.999997    0.00001267
  518       -6.2647979329      -0.0000000017     0.999997    0.00001265
  519       -6.2647979346      -0.0000000017     0.999997    0.00001262
  520       -6.2647979363      -0.0000000017     0.999997    0.00001260
  521       -6.2647979381      -0.0000000017     0.999997    0.00001257
  522       -6.2647979398      -0.0000000017     0.999997    0.00001255
  523       -6.2647979415      -0.0000000017     0.999997    0.00001252
  524       -6.2647979432      -0.0000000017     0.999997    0.00001250
  525       -6.2647979449      -0.0000000017     0.999997    0.00001247
  526       -6.2647979466      -0.0000000017     0.999997    0.00001245
  527       -6.2647979482      -0.0000000017     0.999997    0.00001243
  528       -6.2647979499      -0.0000000017     0.999997    0.00001240
  529       -6.2647979516      -0.0000000017     0.999997    0.00001238
  530       -6.2647979533      -0.0000000017     0.999997    0.00001235
  531       -6.2647979549      -0.0000000017     0.999997    0.00001233
  532       -6.2647979566      -0.0000000017     0.999997    0.00001231
  533       -6.2647979582      -0.0000000016     0.999997    0.00001228
  534       -6.2647979599      -0.0000000016     0.999997    0.00001226
  535       -6.2647979615      -0.0000000016     0.999997    0.00001224
  536       -6.2647979631      -0.0000000016     0.999997    0.00001221
  537       -6.2647979647      -0.0000000016     0.999997    0.00001219
  538       -6.2647979664      -0.0000000016     0.999997    0.00001217
  539       -6.2647979680      -0.0000000016     0.999997    0.00001215
  540       -6.2647979696      -0.0000000016     0.999997    0.00001212
  541       -6.2647979712      -0.0000000016     0.999997    0.00001210
  542       -6.2647979728      -0.0000000016     0.999997    0.00001208
  543       -6.2647979744      -0.0000000016     0.999997    0.00001206
  544       -6.2647979759      -0.0000000016     0.999997    0.00001204
  545       -6.2647979775      -0.0000000016     0.999997    0.00001201
  546       -6.2647979791      -0.0000000016     0.999997    0.00001199
  547       -6.2647979807      -0.0000000016     0.999997    0.00001197
  548       -6.2647979822      -0.0000000016     0.999997    0.00001195
  549       -6.2647979838      -0.0000000016     0.999997    0.00001193
  550       -6.2647979853      -0.0000000016     0.999997    0.00001191
  551       -6.2647979869      -0.0000000015     0.999997    0.00001189
  552       -6.2647979884      -0.0000000015     0.999997    0.00001187
  553       -6.2647979899      -0.0000000015     0.999997    0.00001185
  554       -6.2647979915      -0.0000000015     0.999997    0.00001182
  555       -6.2647979930      -0.0000000015     0.999997    0.00001180
  556       -6.2647979945      -0.0000000015     0.999997    0.00001178
  557       -6.2647979960      -0.0000000015     0.999997    0.00001176
  558       -6.2647979975      -0.0000000015     0.999997    0.00001174
  559       -6.2647979990      -0.0000000015     0.999997    0.00001172
  560       -6.2647980005      -0.0000000015     0.999997    0.00001170
  561       -6.2647980020      -0.0000000015     0.999997    0.00001168
  562       -6.2647980035      -0.0000000015     0.999997    0.00001166
  563       -6.2647980050      -0.0000000015     0.999997    0.00001164
  564       -6.2647980065      -0.0000000015     0.999997    0.00001162
  565       -6.2647980080      -0.0000000015     0.999997    0.00001161
  566       -6.2647980094      -0.0000000015     0.999997    0.00001159
  567       -6.2647980109      -0.0000000015     0.999997    0.00001157
  568       -6.2647980124      -0.0000000015     0.999997    0.00001155
  569       -6.2647980138      -0.0000000015     0.999997    0.00001153
  570       -6.2647980153      -0.0000000015     0.999997    0.00001151
  571       -6.2647980167      -0.0000000014     0.999997    0.00001149
  572       -6.2647980182      -0.0000000014     0.999997    0.00001147
  573       -6.2647980196      -0.0000000014     0.999997    0.00001146
  574       -6.2647980211      -0.0000000014     0.999997    0.00001144
  575       -6.2647980225      -0.0000000014     0.999997    0.00001142
  576       -6.2647980239      -0.0000000014     0.999997    0.00001140
  577       -6.2647980253      -0.0000000014     0.999997    0.00001138
  578       -6.2647980268      -0.0000000014     0.999997    0.00001137
  579       -6.2647980282      -0.0000000014     0.999997    0.00001135
  580       -6.2647980296      -0.0000000014     0.999997    0.00001133
  581       -6.2647980310      -0.0000000014     0.999997    0.00001131
  582       -6.2647980324      -0.0000000014     0.999997    0.00001129
  583       -6.2647980338      -0.0000000014     0.999997    0.00001128
  584       -6.2647980352      -0.0000000014     0.999997    0.00001126
  585       -6.2647980366      -0.0000000014     0.999997    0.00001124
  586       -6.2647980379      -0.0000000014     0.999997    0.00001123
  587       -6.2647980393      -0.0000000014     0.999997    0.00001121
  588       -6.2647980407      -0.0000000014     0.999997    0.00001119
  589       -6.2647980421      -0.0000000014     0.999997    0.00001118
  590       -6.2647980435      -0.0000000014     0.999997    0.00001116
  591       -6.2647980448      -0.0000000014     0.999997    0.00001114
  592       -6.2647980462      -0.0000000014     0.999997    0.00001113
  593       -6.2647980475      -0.0000000014     0.999997    0.00001111
  594       -6.2647980489      -0.0000000014     0.999997    0.00001109
  595       -6.2647980502      -0.0000000014     0.999997    0.00001108
  596       -6.2647980516      -0.0000000013     0.999997    0.00001106
  597       -6.2647980529      -0.0000000013     0.999997    0.00001105
  598       -6.2647980543      -0.0000000013     0.999997    0.00001103
  599       -6.2647980556      -0.0000000013     0.999997    0.00001102
  600       -6.2647980569      -0.0000000013     0.999997    0.00001100
  601       -6.2647980583      -0.0000000013     0.999997    0.00001098
  602       -6.2647980596      -0.0000000013     0.999997    0.00001097
  603       -6.2647980609      -0.0000000013     0.999997    0.00001095
  604       -6.2647980622      -0.0000000013     0.999997    0.00001094
  605       -6.2647980635      -0.0000000013     0.999997    0.00001092
  606       -6.2647980649      -0.0000000013     0.999997    0.00001091
  607       -6.2647980662      -0.0000000013     0.999997    0.00001089
  608       -6.2647980675      -0.0000000013     0.999997    0.00001088
  609       -6.2647980688      -0.0000000013     0.999997    0.00001086
  610       -6.2647980701      -0.0000000013     0.999997    0.00001085
  611       -6.2647980714      -0.0000000013     0.999997    0.00001083
  612       -6.2647980727      -0.0000000013     0.999997    0.00001082
  613       -6.2647980739      -0.0000000013     0.999997    0.00001081
  614       -6.2647980752      -0.0000000013     0.999997    0.00001079
  615       -6.2647980765      -0.0000000013     0.999997    0.00001078
  616       -6.2647980778      -0.0000000013     0.999997    0.00001076
  617       -6.2647980791      -0.0000000013     0.999997    0.00001075
  618       -6.2647980803      -0.0000000013     0.999997    0.00001074
  619       -6.2647980816      -0.0000000013     0.999997    0.00001072
  620       -6.2647980829      -0.0000000013     0.999997    0.00001071
  621       -6.2647980841      -0.0000000013     0.999997    0.00001069
  622       -6.2647980854      -0.0000000013     0.999997    0.00001068
  623       -6.2647980867      -0.0000000013     0.999997    0.00001067
  624       -6.2647980879      -0.0000000013     0.999997    0.00001065
  625       -6.2647980892      -0.0000000013     0.999997    0.00001064
  626       -6.2647980904      -0.0000000012     0.999997    0.00001063
  627       -6.2647980917      -0.0000000012     0.999997    0.00001062
  628       -6.2647980929      -0.0000000012     0.999997    0.00001060
  629       -6.2647980941      -0.0000000012     0.999997    0.00001059
  630       -6.2647980954      -0.0000000012     0.999997    0.00001058
  631       -6.2647980966      -0.0000000012     0.999997    0.00001056
  632       -6.2647980978      -0.0000000012     0.999997    0.00001055
  633       -6.2647980991      -0.0000000012     0.999997    0.00001054
  634       -6.2647981003      -0.0000000012     0.999997    0.00001053
  635       -6.2647981015      -0.0000000012     0.999997    0.00001051
  636       -6.2647981027      -0.0000000012     0.999997    0.00001050
  637       -6.2647981040      -0.0000000012     0.999997    0.00001049
  638       -6.2647981052      -0.0000000012     0.999997    0.00001048
  639       -6.2647981064      -0.0000000012     0.999997    0.00001047
  640       -6.2647981076      -0.0000000012     0.999997    0.00001045
  641       -6.2647981088      -0.0000000012     0.999997    0.00001044
  642       -6.2647981100      -0.0000000012     0.999997    0.00001043
  643       -6.2647981112      -0.0000000012     0.999997    0.00001042
  644       -6.2647981124      -0.0000000012     0.999997    0.00001041
  645       -6.2647981136      -0.0000000012     0.999997    0.00001040
  646       -6.2647981148      -0.0000000012     0.999997    0.00001038
  647       -6.2647981160      -0.0000000012     0.999997    0.00001037
  648       -6.2647981172      -0.0000000012     0.999997    0.00001036
  649       -6.2647981184      -0.0000000012     0.999997    0.00001035
  650       -6.2647981196      -0.0000000012     0.999997    0.00001034
  651       -6.2647981207      -0.0000000012     0.999997    0.00001033
  652       -6.2647981219      -0.0000000012     0.999997    0.00001032
  653       -6.2647981231      -0.0000000012     0.999997    0.00001031
  654       -6.2647981243      -0.0000000012     0.999997    0.00001030
  655       -6.2647981255      -0.0000000012     0.999997    0.00001028
  656       -6.2647981266      -0.0000000012     0.999997    0.00001027
  657       -6.2647981278      -0.0000000012     0.999997    0.00001026
  658       -6.2647981290      -0.0000000012     0.999997    0.00001025
  659       -6.2647981301      -0.0000000012     0.999997    0.00001024
  660       -6.2647981313      -0.0000000012     0.999997    0.00001023
  661       -6.2647981324      -0.0000000012     0.999997    0.00001022
  662       -6.2647981336      -0.0000000012     0.999997    0.00001021
  663       -6.2647981348      -0.0000000012     0.999997    0.00001020
  664       -6.2647981359      -0.0000000012     0.999997    0.00001019
  665       -6.2647981371      -0.0000000012     0.999997    0.00001018
  666       -6.2647981382      -0.0000000011     0.999997    0.00001017
  667       -6.2647981394      -0.0000000011     0.999997    0.00001016
  668       -6.2647981405      -0.0000000011     0.999997    0.00001015
  669       -6.2647981417      -0.0000000011     0.999997    0.00001014
  670       -6.2647981428      -0.0000000011     0.999997    0.00001013
  671       -6.2647981439      -0.0000000011     0.999997    0.00001012
  672       -6.2647981451      -0.0000000011     0.999997    0.00001011
  673       -6.2647981462      -0.0000000011     0.999997    0.00001011
  674       -6.2647981473      -0.0000000011     0.999997    0.00001010
  675       -6.2647981485      -0.0000000011     0.999997    0.00001009
  676       -6.2647981496      -0.0000000011     0.999997    0.00001008
  677       -6.2647981507      -0.0000000011     0.999997    0.00001007
  678       -6.2647981519      -0.0000000011     0.999997    0.00001006
  679       -6.2647981530      -0.0000000011     0.999997    0.00001005
  680       -6.2647981541      -0.0000000011     0.999997    0.00001004
  681       -6.2647981552      -0.0000000011     0.999997    0.00001003
  682       -6.2647981563      -0.0000000011     0.999997    0.00001003
  683       -6.2647981575      -0.0000000011     0.999997    0.00001002
  684       -6.2647981586      -0.0000000011     0.999997    0.00001001
  685       -6.2647981597      -0.0000000011     0.999997    0.00001000
  686       -6.2647981608      -0.0000000011     0.999997    0.00000999
  687       -6.2647981619      -0.0000000011     0.999997    0.00000998
  688       -6.2647981630      -0.0000000011     0.999997    0.00000997
  689       -6.2647981641      -0.0000000011     0.999997    0.00000997
  690       -6.2647981652      -0.0000000011     0.999997    0.00000996
  691       -6.2647981663      -0.0000000011     0.999997    0.00000995
  692       -6.2647981674      -0.0000000011     0.999997    0.00000994
  693       -6.2647981685      -0.0000000011     0.999997    0.00000993
  694       -6.2647981696      -0.0000000011     0.999997    0.00000993
  695       -6.2647981707      -0.0000000011     0.999997    0.00000992
  696       -6.2647981718      -0.0000000011     0.999997    0.00000991
  697       -6.2647981729      -0.0000000011     0.999997    0.00000990
  698       -6.2647981740      -0.0000000011     0.999997    0.00000990
  699       -6.2647981751      -0.0000000011     0.999997    0.00000989
  700       -6.2647981762      -0.0000000011     0.999997    0.00000988
  701       -6.2647981773      -0.0000000011     0.999997    0.00000987
  702       -6.2647981784      -0.0000000011     0.999997    0.00000987
  703       -6.2647981795      -0.0000000011     0.999997    0.00000986
  704       -6.2647981805      -0.0000000011     0.999997    0.00000985
  705       -6.2647981816      -0.0000000011     0.999997    0.00000985
  706       -6.2647981827      -0.0000000011     0.999997    0.00000984
  707       -6.2647981838      -0.0000000011     0.999997    0.00000983
  708       -6.2647981849      -0.0000000011     0.999997    0.00000983
  709       -6.2647981859      -0.0000000011     0.999997    0.00000982
  710       -6.2647981870      -0.0000000011     0.999997    0.00000981
  711       -6.2647981881      -0.0000000011     0.999997    0.00000981
  712       -6.2647981892      -0.0000000011     0.999997    0.00000980
  713       -6.2647981902      -0.0000000011     0.999997    0.00000979
  714       -6.2647981913      -0.0000000011     0.999997    0.00000979
  715       -6.2647981924      -0.0000000011     0.999997    0.00000978
  716       -6.2647981934      -0.0000000011     0.999997    0.00000977
  717       -6.2647981945      -0.0000000011     0.999997    0.00000977
  718       -6.2647981956      -0.0000000011     0.999997    0.00000976
  719       -6.2647981966      -0.0000000011     0.999997    0.00000975
  720       -6.2647981977      -0.0000000011     0.999997    0.00000975
  721       -6.2647981988      -0.0000000011     0.999997    0.00000974
  722       -6.2647981998      -0.0000000011     0.999997    0.00000974
  723       -6.2647982009      -0.0000000011     0.999997    0.00000973
  724       -6.2647982019      -0.0000000011     0.999997    0.00000973
  725       -6.2647982030      -0.0000000011     0.999997    0.00000972
  726       -6.2647982041      -0.0000000011     0.999997    0.00000971
  727       -6.2647982051      -0.0000000011     0.999997    0.00000971
  728       -6.2647982062      -0.0000000011     0.999997    0.00000970
  729       -6.2647982072      -0.0000000011     0.999997    0.00000970
  730       -6.2647982083      -0.0000000011     0.999997    0.00000969
  731       -6.2647982093      -0.0000000011     0.999997    0.00000969
  732       -6.2647982104      -0.0000000011     0.999997    0.00000968
  733       -6.2647982114      -0.0000000010     0.999997    0.00000968
  734       -6.2647982125      -0.0000000010     0.999997    0.00000967
  735       -6.2647982135      -0.0000000010     0.999997    0.00000967
  736       -6.2647982146      -0.0000000010     0.999997    0.00000966
  737       -6.2647982156      -0.0000000010     0.999997    0.00000966
  738       -6.2647982167      -0.0000000010     0.999997    0.00000965
  739       -6.2647982177      -0.0000000010     0.999997    0.00000965
  740       -6.2647982187      -0.0000000010     0.999997    0.00000964
  741       -6.2647982198      -0.0000000010     0.999997    0.00000964
  742       -6.2647982208      -0.0000000010     0.999997    0.00000963
  743       -6.2647982219      -0.0000000010     0.999997    0.00000963
  744       -6.2647982229      -0.0000000010     0.999997    0.00000962
  745       -6.2647982239      -0.0000000010     0.999997    0.00000962
  746       -6.2647982250      -0.0000000010     0.999997    0.00000962
  747       -6.2647982260      -0.0000000010     0.999997    0.00000961
  748       -6.2647982271      -0.0000000010     0.999997    0.00000961
  749       -6.2647982281      -0.0000000010     0.999997    0.00000960
  750       -6.2647982291      -0.0000000010     0.999997    0.00000960
  751       -6.2647982302      -0.0000000010     0.999997    0.00000959
  752       -6.2647982312      -0.0000000010     0.999997    0.00000959
  753       -6.2647982322      -0.0000000010     0.999997    0.00000959
  754       -6.2647982333      -0.0000000010     0.999997    0.00000958
  755       -6.2647982343      -0.0000000010     0.999997    0.00000958
  756       -6.2647982353      -0.0000000010     0.999997    0.00000958
  757       -6.2647982364      -0.0000000010     0.999997    0.00000957
  758       -6.2647982374      -0.0000000010     0.999997    0.00000957
  759       -6.2647982384      -0.0000000010     0.999997    0.00000957
  760       -6.2647982394      -0.0000000010     0.999997    0.00000956
  761       -6.2647982405      -0.0000000010     0.999997    0.00000956
  762       -6.2647982415      -0.0000000010     0.999997    0.00000955
  763       -6.2647982425      -0.0000000010     0.999997    0.00000955
  764       -6.2647982435      -0.0000000010     0.999997    0.00000955
  765       -6.2647982446      -0.0000000010     0.999997    0.00000955
  766       -6.2647982456      -0.0000000010     0.999997    0.00000954
  767       -6.2647982466      -0.0000000010     0.999997    0.00000954
  768       -6.2647982476      -0.0000000010     0.999997    0.00000954
  769       -6.2647982487      -0.0000000010     0.999997    0.00000953
  770       -6.2647982497      -0.0000000010     0.999997    0.00000953
  771       -6.2647982507      -0.0000000010     0.999997    0.00000953
  772       -6.2647982517      -0.0000000010     0.999997    0.00000953
  773       -6.2647982528      -0.0000000010     0.999997    0.00000952
  774       -6.2647982538      -0.0000000010     0.999997    0.00000952
  775       -6.2647982548      -0.0000000010     0.999997    0.00000952
  776       -6.2647982558      -0.0000000010     0.999997    0.00000952
  777       -6.2647982568      -0.0000000010     0.999997    0.00000951
  778       -6.2647982579      -0.0000000010     0.999997    0.00000951
  779       -6.2647982589      -0.0000000010     0.999997    0.00000951
  780       -6.2647982599      -0.0000000010     0.999997    0.00000951
  781       -6.2647982609      -0.0000000010     0.999997    0.00000950
  782       -6.2647982619      -0.0000000010     0.999997    0.00000950
  783       -6.2647982630      -0.0000000010     0.999997    0.00000950
  784       -6.2647982640      -0.0000000010     0.999997    0.00000950
  785       -6.2647982650      -0.0000000010     0.999997    0.00000950
  786       -6.2647982660      -0.0000000010     0.999997    0.00000949
  787       -6.2647982670      -0.0000000010     0.999997    0.00000949
  788       -6.2647982680      -0.0000000010     0.999997    0.00000949
  789       -6.2647982691      -0.0000000010     0.999997    0.00000949
  790       -6.2647982701      -0.0000000010     0.999997    0.00000949
  791       -6.2647982711      -0.0000000010     0.999997    0.00000949
  792       -6.2647982721      -0.0000000010     0.999997    0.00000948
  793       -6.2647982731      -0.0000000010     0.999997    0.00000948
  794       -6.2647982741      -0.0000000010     0.999997    0.00000948
  795       -6.2647982751      -0.0000000010     0.999997    0.00000948
  796       -6.2647982762      -0.0000000010     0.999997    0.00000948
  797       -6.2647982772      -0.0000000010     0.999997    0.00000948
  798       -6.2647982782      -0.0000000010     0.999997    0.00000948
  799       -6.2647982792      -0.0000000010     0.999997    0.00000948
  800       -6.2647982802      -0.0000000010     0.999997    0.00000947
  801       -6.2647982812      -0.0000000010     0.999997    0.00000947
  802       -6.2647982822      -0.0000000010     0.999997    0.00000947
  803       -6.2647982833      -0.0000000010     0.999997    0.00000947
  804       -6.2647982843      -0.0000000010     0.999997    0.00000947
  805       -6.2647982853      -0.0000000010     0.999997    0.00000947
  806       -6.2647982863      -0.0000000010     0.999997    0.00000947
  807       -6.2647982873      -0.0000000010     0.999997    0.00000947
  808       -6.2647982883      -0.0000000010     0.999997    0.00000947
  809       -6.2647982894      -0.0000000010     0.999997    0.00000947
  810       -6.2647982904      -0.0000000010     0.999997    0.00000947
  811       -6.2647982914      -0.0000000010     0.999997    0.00000947
  812       -6.2647982924      -0.0000000010     0.999997    0.00000947
  813       -6.2647982934      -0.0000000010     0.999997    0.00000947
  814       -6.2647982944      -0.0000000010     0.999997    0.00000947
  815       -6.2647982954      -0.0000000010     0.999997    0.00000947
  816       -6.2647982965      -0.0000000010     0.999997    0.00000947
  817       -6.2647982975      -0.0000000010     0.999997    0.00000947
  818       -6.2647982985      -0.0000000010     0.999997    0.00000947
  819       -6.2647982995      -0.0000000010     0.999997    0.00000947
  820       -6.2647983005      -0.0000000010     0.999997    0.00000947
  821       -6.2647983015      -0.0000000010     0.999997    0.00000947
  822       -6.2647983025      -0.0000000010     0.999997    0.00000947
  823       -6.2647983036      -0.0000000010     0.999997    0.00000947
  824       -6.2647983046      -0.0000000010     0.999997    0.00000947
  825       -6.2647983056      -0.0000000010     0.999997    0.00000947
  826       -6.2647983066      -0.0000000010     0.999997    0.00000947
  827       -6.2647983076      -0.0000000010     0.999997    0.00000947
  828       -6.2647983087      -0.0000000010     0.999997    0.00000947
  829       -6.2647983097      -0.0000000010     0.999997    0.00000947
  830       -6.2647983107      -0.0000000010     0.999997    0.00000947
  831       -6.2647983117      -0.0000000010     0.999997    0.00000947
  832       -6.2647983127      -0.0000000010     0.999997    0.00000948
  833       -6.2647983137      -0.0000000010     0.999997    0.00000948
  834       -6.2647983148      -0.0000000010     0.999997    0.00000948
  835       -6.2647983158      -0.0000000010     0.999997    0.00000948
  836       -6.2647983168      -0.0000000010     0.999997    0.00000948
  837       -6.2647983178      -0.0000000010     0.999997    0.00000948
  838       -6.2647983188      -0.0000000010     0.999997    0.00000948
  839       -6.2647983199      -0.0000000010     0.999997    0.00000948
  840       -6.2647983209      -0.0000000010     0.999997    0.00000949
  841       -6.2647983219      -0.0000000010     0.999997    0.00000949
  842       -6.2647983229      -0.0000000010     0.999997    0.00000949
  843       -6.2647983240      -0.0000000010     0.999997    0.00000949
  844       -6.2647983250      -0.0000000010     0.999997    0.00000949
  845       -6.2647983260      -0.0000000010     0.999997    0.00000949
  846       -6.2647983270      -0.0000000010     0.999997    0.00000950
  847       -6.2647983281      -0.0000000010     0.999997    0.00000950
  848       -6.2647983291      -0.0000000010     0.999997    0.00000950
  849       -6.2647983301      -0.0000000010     0.999997    0.00000950
  850       -6.2647983311      -0.0000000010     0.999997    0.00000950
  851       -6.2647983322      -0.0000000010     0.999997    0.00000951
  852       -6.2647983332      -0.0000000010     0.999997    0.00000951
  853       -6.2647983342      -0.0000000010     0.999997    0.00000951
  854       -6.2647983353      -0.0000000010     0.999997    0.00000951
  855       -6.2647983363      -0.0000000010     0.999997    0.00000951
  856       -6.2647983373      -0.0000000010     0.999997    0.00000952
  857       -6.2647983384      -0.0000000010     0.999997    0.00000952
  858       -6.2647983394      -0.0000000010     0.999997    0.00000952
  859       -6.2647983404      -0.0000000010     0.999997    0.00000952
  860       -6.2647983415      -0.0000000010     0.999997    0.00000953
  861       -6.2647983425      -0.0000000010     0.999997    0.00000953
  862       -6.2647983435      -0.0000000010     0.999997    0.00000953
  863       -6.2647983446      -0.0000000010     0.999997    0.00000954
  864       -6.2647983456      -0.0000000010     0.999997    0.00000954
  865       -6.2647983466      -0.0000000010     0.999997    0.00000954
  866       -6.2647983477      -0.0000000010     0.999997    0.00000955
  867       -6.2647983487      -0.0000000010     0.999997    0.00000955
  868       -6.2647983498      -0.0000000010     0.999997    0.00000955
  869       -6.2647983508      -0.0000000010     0.999997    0.00000955
  870       -6.2647983518      -0.0000000010     0.999997    0.00000956
  871       -6.2647983529      -0.0000000010     0.999997    0.00000956
  872       -6.2647983539      -0.0000000010     0.999997    0.00000957
  873       -6.2647983550      -0.0000000010     0.999997    0.00000957
  874       -6.2647983560      -0.0000000010     0.999997    0.00000957
  875       -6.2647983571      -0.0000000010     0.999997    0.00000958
  876       -6.2647983581      -0.0000000010     0.999997    0.00000958
  877       -6.2647983592      -0.0000000010     0.999997    0.00000958
  878       -6.2647983602      -0.0000000010     0.999997    0.00000959
  879       -6.2647983613      -0.0000000011     0.999997    0.00000959
  880       -6.2647983623      -0.0000000011     0.999997    0.00000960
  881       -6.2647983634      -0.0000000011     0.999997    0.00000960
  882       -6.2647983644      -0.0000000011     0.999997    0.00000960
  883       -6.2647983655      -0.0000000011     0.999997    0.00000961
  884       -6.2647983665      -0.0000000011     0.999997    0.00000961
  885       -6.2647983676      -0.0000000011     0.999997    0.00000962
  886       -6.2647983686      -0.0000000011     0.999997    0.00000962
  887       -6.2647983697      -0.0000000011     0.999997    0.00000963
  888       -6.2647983708      -0.0000000011     0.999997    0.00000963
  889       -6.2647983718      -0.0000000011     0.999997    0.00000963
  890       -6.2647983729      -0.0000000011     0.999997    0.00000964
  891       -6.2647983739      -0.0000000011     0.999997    0.00000964
  892       -6.2647983750      -0.0000000011     0.999997    0.00000965
  893       -6.2647983761      -0.0000000011     0.999997    0.00000965
  894       -6.2647983771      -0.0000000011     0.999997    0.00000966
  895       -6.2647983782      -0.0000000011     0.999997    0.00000966
  896       -6.2647983793      -0.0000000011     0.999997    0.00000967
  897       -6.2647983804      -0.0000000011     0.999997    0.00000967
  898       -6.2647983814      -0.0000000011     0.999997    0.00000968
  899       -6.2647983825      -0.0000000011     0.999997    0.00000968
  900       -6.2647983836      -0.0000000011     0.999997    0.00000969
  901       -6.2647983847      -0.0000000011     0.999997    0.00000969
  902       -6.2647983857      -0.0000000011     0.999997    0.00000970
  903       -6.2647983868      -0.0000000011     0.999997    0.00000971
  904       -6.2647983879      -0.0000000011     0.999997    0.00000971
  905       -6.2647983890      -0.0000000011     0.999997    0.00000972
  906       -6.2647983901      -0.0000000011     0.999997    0.00000972
  907       -6.2647983911      -0.0000000011     0.999997    0.00000973
  908       -6.2647983922      -0.0000000011     0.999997    0.00000973
  909       -6.2647983933      -0.0000000011     0.999997    0.00000974
  910       -6.2647983944      -0.0000000011     0.999997    0.00000975
  911       -6.2647983955      -0.0000000011     0.999997    0.00000975
  912       -6.2647983966      -0.0000000011     0.999997    0.00000976
  913       -6.2647983977      -0.0000000011     0.999997    0.00000977
  914       -6.2647983988      -0.0000000011     0.999997    0.00000977
  915       -6.2647983999      -0.0000000011     0.999997    0.00000978
  916       -6.2647984010      -0.0000000011     0.999997    0.00000978
  917       -6.2647984021      -0.0000000011     0.999997    0.00000979
  918       -6.2647984032      -0.0000000011     0.999997    0.00000980
  919       -6.2647984043      -0.0000000011     0.999997    0.00000980
  920       -6.2647984054      -0.0000000011     0.999997    0.00000981
  921       -6.2647984065      -0.0000000011     0.999997    0.00000982
  922       -6.2647984076      -0.0000000011     0.999997    0.00000982
  923       -6.2647984087      -0.0000000011     0.999997    0.00000983
  924       -6.2647984098      -0.0000000011     0.999997    0.00000984
  925       -6.2647984109      -0.0000000011     0.999997    0.00000985
  926       -6.2647984121      -0.0000000011     0.999997    0.00000985
  927       -6.2647984132      -0.0000000011     0.999997    0.00000986
  928       -6.2647984143      -0.0000000011     0.999997    0.00000987
  929       -6.2647984154      -0.0000000011     0.999997    0.00000987
  930       -6.2647984165      -0.0000000011     0.999997    0.00000988
  931       -6.2647984177      -0.0000000011     0.999997    0.00000989
  932       -6.2647984188      -0.0000000011     0.999997    0.00000990
  933       -6.2647984199      -0.0000000011     0.999997    0.00000991
  934       -6.2647984211      -0.0000000011     0.999997    0.00000991
  935       -6.2647984222      -0.0000000011     0.999997    0.00000992
  936       -6.2647984233      -0.0000000011     0.999997    0.00000993
  937       -6.2647984245      -0.0000000011     0.999997    0.00000994
  938       -6.2647984256      -0.0000000011     0.999997    0.00000994
  939       -6.2647984267      -0.0000000011     0.999997    0.00000995
  940       -6.2647984279      -0.0000000011     0.999997    0.00000996
  941       -6.2647984290      -0.0000000011     0.999997    0.00000997
  942       -6.2647984302      -0.0000000011     0.999997    0.00000998
  943       -6.2647984313      -0.0000000011     0.999997    0.00000999
  944       -6.2647984325      -0.0000000012     0.999997    0.00001000
  945       -6.2647984336      -0.0000000012     0.999997    0.00001000
  946       -6.2647984348      -0.0000000012     0.999997    0.00001001
  947       -6.2647984359      -0.0000000012     0.999997    0.00001002
  948       -6.2647984371      -0.0000000012     0.999997    0.00001003
  949       -6.2647984383      -0.0000000012     0.999997    0.00001004
  950       -6.2647984394      -0.0000000012     0.999997    0.00001005
  951       -6.2647984406      -0.0000000012     0.999997    0.00001006
  952       -6.2647984418      -0.0000000012     0.999997    0.00001007
  953       -6.2647984429      -0.0000000012     0.999997    0.00001008
  954       -6.2647984441      -0.0000000012     0.999997    0.00001008
  955       -6.2647984453      -0.0000000012     0.999997    0.00001009
  956       -6.2647984465      -0.0000000012     0.999997    0.00001010
  957       -6.2647984476      -0.0000000012     0.999997    0.00001011
  958       -6.2647984488      -0.0000000012     0.999997    0.00001012
  959       -6.2647984500      -0.0000000012     0.999997    0.00001013
  960       -6.2647984512      -0.0000000012     0.999997    0.00001014
  961       -6.2647984524      -0.0000000012     0.999997    0.00001015
  962       -6.2647984536      -0.0000000012     0.999997    0.00001016
  963       -6.2647984548      -0.0000000012     0.999997    0.00001017
  964       -6.2647984560      -0.0000000012     0.999997    0.00001018
  965       -6.2647984572      -0.0000000012     0.999997    0.00001019
  966       -6.2647984584      -0.0000000012     0.999997    0.00001020
  967       -6.2647984596      -0.0000000012     0.999997    0.00001021
  968       -6.2647984608      -0.0000000012     0.999997    0.00001022
  969       -6.2647984620      -0.0000000012     0.999997    0.00001023
  970       -6.2647984632      -0.0000000012     0.999997    0.00001025
  971       -6.2647984644      -0.0000000012     0.999997    0.00001026
  972       -6.2647984657      -0.0000000012     0.999997    0.00001027
  973       -6.2647984669      -0.0000000012     0.999997    0.00001028
  974       -6.2647984681      -0.0000000012     0.999997    0.00001029
  975       -6.2647984693      -0.0000000012     0.999997    0.00001030
  976       -6.2647984706      -0.0000000012     0.999997    0.00001031
  977       -6.2647984718      -0.0000000012     0.999997    0.00001032
  978       -6.2647984730      -0.0000000012     0.999997    0.00001033
  979       -6.2647984743      -0.0000000012     0.999997    0.00001035
  980       -6.2647984755      -0.0000000012     0.999997    0.00001036
  981       -6.2647984768      -0.0000000012     0.999997    0.00001037
  982       -6.2647984780      -0.0000000012     0.999997    0.00001038
  983       -6.2647984793      -0.0000000013     0.999997    0.00001039
  984       -6.2647984805      -0.0000000013     0.999997    0.00001040
  985       -6.2647984818      -0.0000000013     0.999997    0.00001042
  986       -6.2647984830      -0.0000000013     0.999997    0.00001043
  987       -6.2647984843      -0.0000000013     0.999997    0.00001044
  988       -6.2647984856      -0.0000000013     0.999997    0.00001045
  989       -6.2647984868      -0.0000000013     0.999997    0.00001047
  990       -6.2647984881      -0.0000000013     0.999997    0.00001048
  991       -6.2647984894      -0.0000000013     0.999997    0.00001049
  992       -6.2647984907      -0.0000000013     0.999997    0.00001050
  993       -6.2647984920      -0.0000000013     0.999997    0.00001052
  994       -6.2647984932      -0.0000000013     0.999997    0.00001053
  995       -6.2647984945      -0.0000000013     0.999997    0.00001054
  996       -6.2647984958      -0.0000000013     0.999997    0.00001055
  997       -6.2647984971      -0.0000000013     0.999997    0.00001057
  998       -6.2647984984      -0.0000000013     0.999997    0.00001058
  999       -6.2647984997      -0.0000000013     0.999997    0.00001059
 1000       -6.2647985010      -0.0000000013     0.999997    0.00001061

Total Energy:                       -6.2647985010 H         -170.4738 eV
Extrapolated to 0:                  -6.2381211361 H         -169.7479 eV

----------------------------------------------------------------------------------
 Solving CP-REKS equation for  1 state vector...
----------------------------------------------------------------------------------
  CG solver: Constructing Y initial guess
  CG solver: Iteration    1    eps =    0.063761196807
  CG solver: Iteration    2    eps =    0.021706296477
  CG solver: Iteration    3    eps =    0.043975157036
  CG solver: Iteration    4    eps =    0.808148117111
  CG solver: Iteration    5    eps =    0.727925922782
  CG solver: Iteration    6    eps =    0.019260737922
  CG solver: Iteration    7    eps =    0.003109997977
  CG solver: Iteration    8    eps =    0.000401337538
  CG solver: Iteration    9    eps =    0.000078802290
  CG solver: Iteration   10    eps =    0.000007335201
  CG solver: Iteration   11    eps =    0.000001407227
  CG solver: Iteration   12    eps =    0.000000039201
  CG solver: Iteration   13    eps =    0.000000000808
  Convergence reached in CG solver after   13 iterations
  CG solver: Calculating converged R, Z, Q2 matrix
----------------------------------------------------------------------------------

----------------------------------------------------------------------------------
 Solving CP-REKS equation for SI between  1 and  2 state vectors...
----------------------------------------------------------------------------------
  CG solver: Constructing Y initial guess
  CG solver: Iteration    1    eps =    0.004374631321
  CG solver: Iteration    2    eps =    0.005605843392
  CG solver: Iteration    3    eps =    0.049813858119
  CG solver: Iteration    4    eps =    0.081312268347
  CG solver: Iteration    5    eps =    0.019129949841
  CG solver: Iteration    6    eps =    0.002237344507
  CG solver: Iteration    7    eps =    0.000197584302
  CG solver: Iteration    8    eps =    0.000018071553
  CG solver: Iteration    9    eps =    0.000002438062
  CG solver: Iteration   10    eps =    0.000000246668
  CG solver: Iteration   11    eps =    0.000000008685
  Convergence reached in CG solver after   11 iterations
  CG solver: Calculating converged R, Z, Q2 matrix
----------------------------------------------------------------------------------

--------------------------------------------------
 Gradient Information
--------------------------------------------------
           1 st state (SSR)
     0.00000000     0.00000000     0.00000000
     0.00000000     0.00000000     0.00000000
     0.00000000     0.00000000     0.00000000
     0.00000000     0.00000000     0.00000000
     0.00000000     0.00000000     0.00000000
     0.00000000     0.00000000     0.00000000

           2 st state (SSR)
     0.00000000     0.00000000     0.00000000
     0.00000000     0.00000000     0.00000000
     0.00000000     0.00000000     0.00000000
     0.00000000     0.00000000     0.00000000
     0.00000000     0.00000000     0.00000000
     0.00000000     0.00000000     0.00000000
--------------------------------------------------
 Coupling Information
--------------------------------------------------
 between  1 and  2 states
--------------------------------------------------
 g vector - difference gradient
     0.18269824     0.56909687    -6.59374670
    -0.07122897    -0.42190043     6.79289119
     0.08007141     2.83473236     0.31416586
    -0.68107690    -3.06088228    -0.72518971
     0.55952356     2.74570607    -0.07228970
    -0.06998734    -2.66675257     0.28416907

 h vector - derivative coupling
    -0.20123869    -0.07743285     2.48773671
     0.25151625     0.14055871    -2.70522176
     0.03005377    -1.12275428    -0.08527771
     0.15343664     1.17444354     0.32234819
    -0.21415437    -1.13228496     0.06303580
    -0.01961360     1.01746985    -0.08262122

 G vector - GDV
     0.00000000     0.00000000     0.00000000
     0.00000000     0.00000000     0.00000000
     0.00000000     0.00000000     0.00000000
     0.00000000     0.00000000     0.00000000
     0.00000000     0.00000000     0.00000000
     0.00000000     0.00000000     0.00000000

 H vector - DCV - non-adiabatic coupling
     0.00000000     0.00000000     0.00000000
     0.00000000     0.00000000     0.00000000
     0.00000000     0.00000000     0.00000000
     0.00000000     0.00000000     0.00000000
     0.00000000     0.00000000     0.00000000
     0.00000000     0.00000000     0.00000000
--------------------------------------------------

WARNING!
-> SCC is NOT converged, maximal SCC iterations exceeded

--------------------------------------------------------------------------------
DFTB+ running times                          cpu [s]             wall clock [s]
--------------------------------------------------------------------------------
SCC                                    +     0.42  ( 96.7%)      0.42  ( 94.6%)
      Sparse to dense                        0.02  (  4.6%)      0.02  (  4.1%)
      Dense to sparse                        0.07  ( 15.5%)      0.07  ( 16.1%)
      Range separated Hamiltonian            0.03  (  6.5%)      0.04  (  8.6%)
  Density matrix creation                    0.05  ( 11.8%)      0.05  ( 10.4%)
  Force calculation                          0.01  (  3.0%)      0.01  (  3.2%)
--------------------------------------------------------------------------------
Missing                                +     0.01  (  3.3%)      0.02  (  5.4%)
Total                                  =     0.43  (100.0%)      0.44  (100.0%)
--------------------------------------------------------------------------------
