     6
  Step:   120            Position(A)                                  Velocity(au)
C        -0.02500153    -0.05800471     0.00143371     0.00018614    -0.00004745    -0.00027552
N        -0.05102227    -0.06122764     1.32023082    -0.00009023     0.00009608     0.00017964
H         0.73559416     0.66866285    -0.49542519    -0.00038374     0.00129740     0.00033096
H         0.77654591    -0.40355309     1.85093015    -0.00035215    -0.00172907    -0.00019439
H        -0.78174676     0.48943493     1.84057230     0.00057038     0.00093426     0.00019875
H        -0.93640288     0.11770612    -0.66752562    -0.00079871    -0.00127237     0.00045148
