|===============================================================================
|
|  DFTB+ release 20.1
|
|  Copyright (C) 2006 - 2020  DFTB+ developers group
|
|===============================================================================
|
|  When publishing results obtained with DFTB+, please cite the following
|  reference:
|
|  * DFTB+, a software package for efficient approximate density functional
|    theory based atomistic simulations, J. Chem. Phys. 152, 124101 (2020).
|    [doi: 10.1063/1.5143190]
|
|  You should also cite additional publications crediting the parametrization
|  data you use. Please consult the documentation of the SK-files for the
|  references.
|
|===============================================================================

Reading input file 'dftb_in.hsd'
Parser version: 8

--------------------------------------------------------------------------------
Reading SK-files:
Done.


Processed input in HSD format written to 'dftb_pin.hsd'

Starting initialization...
--------------------------------------------------------------------------------
OpenMP threads:              1
Chosen random seed:          449660925
Mode:                        Static calculation
Self consistent charges:     Yes
SCC-tolerance:                 0.100000E-05
Max. scc iterations:                   1000
Shell resolved Hubbard:      No
Spin polarisation:           No
Nr. of up electrons:             6.000000
Nr. of down electrons:           6.000000
Periodic boundaries:         No
Electronic solver:           Relatively robust
Maximal SCC-cycles:                    1000
Initial charges:             Set automatically (system chrg:   0.100E+01)
Included shells:             C:  s, p
                             N:  s, p
                             H:  s
Spin coupling constants:     C   1(s)-1(s):  -0.455900E-01
                             C   1(s)-2(p):  -0.293000E-01
                             C   2(p)-1(s):  -0.293000E-01
                             C   2(p)-2(p):  -0.275500E-01
                             N   1(s)-1(s):  -0.468700E-01
                             N   1(s)-2(p):  -0.317000E-01
                             N   2(p)-1(s):  -0.317000E-01
                             N   2(p)-2(p):  -0.307200E-01
                             H   1(s)-1(s):  -0.792500E-01
Range separated hybrid:      Yes
  Screening parameter omega:   0.300000E+00
  Range separated algorithm:   MatrixBased
Extra options:
                             Mulliken analysis
                             Force calculation
Force type                   original
                             Eigenvector printing


REKS Calcuation:             Yes
SSR(2,2) Calcuation:         Yes
Energy Functional:           (PPS+OSS)/2
Number of Core Orbitals:                  5
Number of Active Orbitals:                2
Number of Basis:                         12
Number of States:                         2
State-Averaging Weight:          0.500000
                                 0.500000
State of Interest:                        2
Initial Guess:               Diagonalize H0 matrix
Newton-Raphson for FON opt:  Yes
NR max. Iterations:                      50
Level Shifting:              Yes
Shift Value:                     0.300000
W Scale Factor:              C  =    3.200000
                             N  =    3.200000
                             H  =    3.200000
Transition Dipole:           No
Gradient of Microstate:      No
CP-REKS Solver:              Preconditioned Conjugate-Gradient
CG max. Iterations:                     100
CG Tolerance:                  0.100000E-07
Memory for A and Hxc:        Direct Updating Without Saving
Non-Adiabatic Coupling:      Yes

--------------------------------------------------------------------------------

***  Geometry step: 0

  iSCC       reks energy        Diff energy         x_a       SCC error   
    1       -6.2342548209       0.0000000000     0.996249    1.16164195
    2       -6.2542850312      -0.0200302103     0.999440    0.11318755
    3       -6.2625830099      -0.0082979787     0.999919    0.08032971
    4       -6.2657389812      -0.0031559713     0.999985    0.04895214
    5       -6.2665256370      -0.0007866558     0.999995    0.02480247
    6       -6.2666613705      -0.0001357335     0.999997    0.01042923
    7       -6.2666822961      -0.0000209256     0.999997    0.00374211
    8       -6.2666863429      -0.0000040468     0.999997    0.00129977
    9       -6.2666876756      -0.0000013327     0.999998    0.00046648
   10       -6.2666883755      -0.0000006999     0.999998    0.00028053
   11       -6.2666888294      -0.0000004539     0.999998    0.00023891
   12       -6.2666891515      -0.0000003221     0.999998    0.00019695
   13       -6.2666893940      -0.0000002425     0.999998    0.00015979
   14       -6.2666895866      -0.0000001926     0.999998    0.00012856
   15       -6.2666897473      -0.0000001607     0.999998    0.00011628
   16       -6.2666898874      -0.0000001401     0.999998    0.00011339
   17       -6.2666900140      -0.0000001266     0.999998    0.00011112
   18       -6.2666901316      -0.0000001176     0.999998    0.00010930
   19       -6.2666902431      -0.0000001115     0.999998    0.00010780
   20       -6.2666903502      -0.0000001071     0.999998    0.00010652
   21       -6.2666904542      -0.0000001039     0.999998    0.00010541
   22       -6.2666905557      -0.0000001015     0.999998    0.00010442
   23       -6.2666906552      -0.0000000995     0.999998    0.00010353
   24       -6.2666907530      -0.0000000978     0.999998    0.00010270
   25       -6.2666908494      -0.0000000964     0.999998    0.00010192
   26       -6.2666909444      -0.0000000950     0.999998    0.00010119
   27       -6.2666910381      -0.0000000937     0.999998    0.00010049
   28       -6.2666911307      -0.0000000925     0.999998    0.00009981
   29       -6.2666912221      -0.0000000914     0.999998    0.00009915
   30       -6.2666913123      -0.0000000903     0.999998    0.00009851
   31       -6.2666914015      -0.0000000892     0.999998    0.00009788
   32       -6.2666914896      -0.0000000881     0.999998    0.00009726
   33       -6.2666915767      -0.0000000871     0.999998    0.00009666
   34       -6.2666916627      -0.0000000860     0.999998    0.00009606
   35       -6.2666917477      -0.0000000850     0.999998    0.00009546
   36       -6.2666918317      -0.0000000840     0.999998    0.00009488
   37       -6.2666919147      -0.0000000830     0.999998    0.00009430
   38       -6.2666919967      -0.0000000820     0.999998    0.00009372
   39       -6.2666920778      -0.0000000811     0.999998    0.00009315
   40       -6.2666921579      -0.0000000801     0.999998    0.00009259
   41       -6.2666922370      -0.0000000792     0.999998    0.00009203
   42       -6.2666923153      -0.0000000782     0.999998    0.00009147
   43       -6.2666923926      -0.0000000773     0.999998    0.00009092
   44       -6.2666924690      -0.0000000764     0.999998    0.00009037
   45       -6.2666925445      -0.0000000755     0.999998    0.00008983
   46       -6.2666926192      -0.0000000746     0.999998    0.00008929
   47       -6.2666926929      -0.0000000738     0.999998    0.00008876
   48       -6.2666927659      -0.0000000729     0.999998    0.00008823
   49       -6.2666928379      -0.0000000721     0.999998    0.00008770
   50       -6.2666929092      -0.0000000712     0.999998    0.00008718
   51       -6.2666929796      -0.0000000704     0.999998    0.00008666
   52       -6.2666930492      -0.0000000696     0.999998    0.00008614
   53       -6.2666931180      -0.0000000688     0.999998    0.00008563
   54       -6.2666931860      -0.0000000680     0.999998    0.00008513
   55       -6.2666932533      -0.0000000672     0.999998    0.00008462
   56       -6.2666933197      -0.0000000665     0.999998    0.00008413
   57       -6.2666933854      -0.0000000657     0.999998    0.00008363
   58       -6.2666934504      -0.0000000650     0.999998    0.00008314
   59       -6.2666935146      -0.0000000642     0.999998    0.00008265
   60       -6.2666935781      -0.0000000635     0.999998    0.00008217
   61       -6.2666936408      -0.0000000628     0.999998    0.00008169
   62       -6.2666937029      -0.0000000621     0.999998    0.00008121
   63       -6.2666937643      -0.0000000614     0.999998    0.00008074
   64       -6.2666938249      -0.0000000607     0.999998    0.00008027
   65       -6.2666938849      -0.0000000600     0.999998    0.00007980
   66       -6.2666939442      -0.0000000593     0.999998    0.00007934
   67       -6.2666940028      -0.0000000586     0.999998    0.00007888
   68       -6.2666940608      -0.0000000580     0.999998    0.00007842
   69       -6.2666941181      -0.0000000573     0.999998    0.00007797
   70       -6.2666941748      -0.0000000567     0.999998    0.00007752
   71       -6.2666942309      -0.0000000561     0.999998    0.00007708
   72       -6.2666942863      -0.0000000554     0.999998    0.00007663
   73       -6.2666943411      -0.0000000548     0.999998    0.00007619
   74       -6.2666943953      -0.0000000542     0.999998    0.00007576
   75       -6.2666944490      -0.0000000536     0.999998    0.00007533
   76       -6.2666945020      -0.0000000530     0.999998    0.00007490
   77       -6.2666945544      -0.0000000524     0.999998    0.00007447
   78       -6.2666946063      -0.0000000519     0.999998    0.00007405
   79       -6.2666946576      -0.0000000513     0.999998    0.00007363
   80       -6.2666947083      -0.0000000507     0.999998    0.00007322
   81       -6.2666947585      -0.0000000502     0.999998    0.00007280
   82       -6.2666948081      -0.0000000496     0.999998    0.00007239
   83       -6.2666948572      -0.0000000491     0.999998    0.00007199
   84       -6.2666949057      -0.0000000486     0.999998    0.00007158
   85       -6.2666949538      -0.0000000480     0.999998    0.00007118
   86       -6.2666950013      -0.0000000475     0.999998    0.00007078
   87       -6.2666950483      -0.0000000470     0.999998    0.00007039
   88       -6.2666950947      -0.0000000465     0.999998    0.00007000
   89       -6.2666951407      -0.0000000460     0.999998    0.00006961
   90       -6.2666951862      -0.0000000455     0.999998    0.00006922
   91       -6.2666952312      -0.0000000450     0.999998    0.00006884
   92       -6.2666952758      -0.0000000445     0.999998    0.00006846
   93       -6.2666953198      -0.0000000441     0.999998    0.00006808
   94       -6.2666953634      -0.0000000436     0.999998    0.00006771
   95       -6.2666954065      -0.0000000431     0.999998    0.00006734
   96       -6.2666954492      -0.0000000427     0.999998    0.00006697
   97       -6.2666954914      -0.0000000422     0.999998    0.00006661
   98       -6.2666955331      -0.0000000418     0.999998    0.00006624
   99       -6.2666955745      -0.0000000413     0.999998    0.00006588
  100       -6.2666956154      -0.0000000409     0.999998    0.00006552
  101       -6.2666956558      -0.0000000405     0.999997    0.00006517
  102       -6.2666956959      -0.0000000400     0.999997    0.00006482
  103       -6.2666957355      -0.0000000396     0.999997    0.00006447
  104       -6.2666957747      -0.0000000392     0.999997    0.00006412
  105       -6.2666958135      -0.0000000388     0.999997    0.00006378
  106       -6.2666958519      -0.0000000384     0.999997    0.00006344
  107       -6.2666958899      -0.0000000380     0.999997    0.00006310
  108       -6.2666959275      -0.0000000376     0.999997    0.00006276
  109       -6.2666959647      -0.0000000372     0.999997    0.00006243
  110       -6.2666960016      -0.0000000368     0.999997    0.00006209
  111       -6.2666960380      -0.0000000365     0.999997    0.00006176
  112       -6.2666960741      -0.0000000361     0.999997    0.00006144
  113       -6.2666961098      -0.0000000357     0.999997    0.00006111
  114       -6.2666961452      -0.0000000354     0.999997    0.00006079
  115       -6.2666961802      -0.0000000350     0.999997    0.00006047
  116       -6.2666962148      -0.0000000346     0.999997    0.00006015
  117       -6.2666962491      -0.0000000343     0.999997    0.00005984
  118       -6.2666962830      -0.0000000339     0.999997    0.00005953
  119       -6.2666963166      -0.0000000336     0.999997    0.00005922
  120       -6.2666963499      -0.0000000333     0.999997    0.00005891
  121       -6.2666963828      -0.0000000329     0.999997    0.00005860
  122       -6.2666964154      -0.0000000326     0.999997    0.00005830
  123       -6.2666964477      -0.0000000323     0.999997    0.00005800
  124       -6.2666964796      -0.0000000320     0.999997    0.00005770
  125       -6.2666965113      -0.0000000316     0.999997    0.00005741
  126       -6.2666965426      -0.0000000313     0.999997    0.00005711
  127       -6.2666965736      -0.0000000310     0.999997    0.00005682
  128       -6.2666966043      -0.0000000307     0.999997    0.00005653
  129       -6.2666966347      -0.0000000304     0.999997    0.00005624
  130       -6.2666966648      -0.0000000301     0.999997    0.00005595
  131       -6.2666966946      -0.0000000298     0.999997    0.00005567
  132       -6.2666967241      -0.0000000295     0.999997    0.00005539
  133       -6.2666967533      -0.0000000292     0.999997    0.00005511
  134       -6.2666967823      -0.0000000289     0.999997    0.00005483
  135       -6.2666968109      -0.0000000287     0.999997    0.00005456
  136       -6.2666968393      -0.0000000284     0.999997    0.00005428
  137       -6.2666968674      -0.0000000281     0.999997    0.00005401
  138       -6.2666968953      -0.0000000278     0.999997    0.00005374
  139       -6.2666969228      -0.0000000276     0.999997    0.00005348
  140       -6.2666969501      -0.0000000273     0.999997    0.00005321
  141       -6.2666969772      -0.0000000270     0.999997    0.00005295
  142       -6.2666970040      -0.0000000268     0.999997    0.00005268
  143       -6.2666970305      -0.0000000265     0.999997    0.00005242
  144       -6.2666970568      -0.0000000263     0.999997    0.00005217
  145       -6.2666970828      -0.0000000260     0.999997    0.00005191
  146       -6.2666971086      -0.0000000258     0.999997    0.00005166
  147       -6.2666971341      -0.0000000255     0.999997    0.00005140
  148       -6.2666971594      -0.0000000253     0.999997    0.00005115
  149       -6.2666971845      -0.0000000251     0.999997    0.00005090
  150       -6.2666972093      -0.0000000248     0.999997    0.00005066
  151       -6.2666972339      -0.0000000246     0.999997    0.00005041
  152       -6.2666972582      -0.0000000244     0.999997    0.00005017
  153       -6.2666972824      -0.0000000241     0.999997    0.00004993
  154       -6.2666973063      -0.0000000239     0.999997    0.00004969
  155       -6.2666973300      -0.0000000237     0.999997    0.00004945
  156       -6.2666973534      -0.0000000235     0.999997    0.00004921
  157       -6.2666973767      -0.0000000233     0.999997    0.00004898
  158       -6.2666973997      -0.0000000230     0.999997    0.00004875
  159       -6.2666974225      -0.0000000228     0.999997    0.00004851
  160       -6.2666974452      -0.0000000226     0.999997    0.00004828
  161       -6.2666974676      -0.0000000224     0.999997    0.00004806
  162       -6.2666974898      -0.0000000222     0.999997    0.00004783
  163       -6.2666975118      -0.0000000220     0.999997    0.00004760
  164       -6.2666975336      -0.0000000218     0.999997    0.00004738
  165       -6.2666975552      -0.0000000216     0.999997    0.00004716
  166       -6.2666975766      -0.0000000214     0.999997    0.00004694
  167       -6.2666975978      -0.0000000212     0.999997    0.00004672
  168       -6.2666976188      -0.0000000210     0.999997    0.00004650
  169       -6.2666976397      -0.0000000208     0.999997    0.00004629
  170       -6.2666976603      -0.0000000207     0.999997    0.00004607
  171       -6.2666976808      -0.0000000205     0.999997    0.00004586
  172       -6.2666977011      -0.0000000203     0.999997    0.00004565
  173       -6.2666977212      -0.0000000201     0.999997    0.00004544
  174       -6.2666977411      -0.0000000199     0.999997    0.00004523
  175       -6.2666977609      -0.0000000198     0.999997    0.00004503
  176       -6.2666977805      -0.0000000196     0.999997    0.00004482
  177       -6.2666977999      -0.0000000194     0.999997    0.00004462
  178       -6.2666978191      -0.0000000192     0.999997    0.00004442
  179       -6.2666978382      -0.0000000191     0.999997    0.00004421
  180       -6.2666978571      -0.0000000189     0.999997    0.00004401
  181       -6.2666978758      -0.0000000187     0.999997    0.00004382
  182       -6.2666978944      -0.0000000186     0.999997    0.00004362
  183       -6.2666979128      -0.0000000184     0.999997    0.00004342
  184       -6.2666979311      -0.0000000183     0.999997    0.00004323
  185       -6.2666979492      -0.0000000181     0.999997    0.00004304
  186       -6.2666979671      -0.0000000179     0.999997    0.00004285
  187       -6.2666979849      -0.0000000178     0.999997    0.00004266
  188       -6.2666980025      -0.0000000176     0.999997    0.00004247
  189       -6.2666980200      -0.0000000175     0.999997    0.00004228
  190       -6.2666980373      -0.0000000173     0.999997    0.00004209
  191       -6.2666980545      -0.0000000172     0.999997    0.00004191
  192       -6.2666980716      -0.0000000170     0.999997    0.00004173
  193       -6.2666980885      -0.0000000169     0.999997    0.00004154
  194       -6.2666981052      -0.0000000168     0.999997    0.00004136
  195       -6.2666981219      -0.0000000166     0.999997    0.00004118
  196       -6.2666981383      -0.0000000165     0.999997    0.00004101
  197       -6.2666981547      -0.0000000163     0.999997    0.00004083
  198       -6.2666981709      -0.0000000162     0.999997    0.00004065
  199       -6.2666981870      -0.0000000161     0.999997    0.00004048
  200       -6.2666982029      -0.0000000159     0.999997    0.00004030
  201       -6.2666982187      -0.0000000158     0.999997    0.00004013
  202       -6.2666982344      -0.0000000157     0.999997    0.00003996
  203       -6.2666982499      -0.0000000155     0.999997    0.00003979
  204       -6.2666982653      -0.0000000154     0.999997    0.00003962
  205       -6.2666982806      -0.0000000153     0.999997    0.00003945
  206       -6.2666982958      -0.0000000152     0.999997    0.00003929
  207       -6.2666983108      -0.0000000150     0.999997    0.00003912
  208       -6.2666983258      -0.0000000149     0.999997    0.00003896
  209       -6.2666983406      -0.0000000148     0.999997    0.00003879
  210       -6.2666983552      -0.0000000147     0.999997    0.00003863
  211       -6.2666983698      -0.0000000146     0.999997    0.00003847
  212       -6.2666983842      -0.0000000144     0.999997    0.00003831
  213       -6.2666983986      -0.0000000143     0.999997    0.00003815
  214       -6.2666984128      -0.0000000142     0.999997    0.00003799
  215       -6.2666984269      -0.0000000141     0.999997    0.00003783
  216       -6.2666984409      -0.0000000140     0.999997    0.00003768
  217       -6.2666984548      -0.0000000139     0.999997    0.00003752
  218       -6.2666984685      -0.0000000138     0.999997    0.00003737
  219       -6.2666984822      -0.0000000137     0.999997    0.00003722
  220       -6.2666984957      -0.0000000136     0.999997    0.00003706
  221       -6.2666985092      -0.0000000134     0.999997    0.00003691
  222       -6.2666985225      -0.0000000133     0.999997    0.00003676
  223       -6.2666985357      -0.0000000132     0.999997    0.00003662
  224       -6.2666985489      -0.0000000131     0.999997    0.00003647
  225       -6.2666985619      -0.0000000130     0.999997    0.00003632
  226       -6.2666985748      -0.0000000129     0.999997    0.00003618
  227       -6.2666985877      -0.0000000128     0.999997    0.00003603
  228       -6.2666986004      -0.0000000127     0.999997    0.00003589
  229       -6.2666986130      -0.0000000126     0.999997    0.00003574
  230       -6.2666986256      -0.0000000125     0.999997    0.00003560
  231       -6.2666986380      -0.0000000124     0.999997    0.00003546
  232       -6.2666986503      -0.0000000123     0.999997    0.00003532
  233       -6.2666986626      -0.0000000122     0.999997    0.00003518
  234       -6.2666986747      -0.0000000122     0.999997    0.00003504
  235       -6.2666986868      -0.0000000121     0.999997    0.00003490
  236       -6.2666986988      -0.0000000120     0.999997    0.00003477
  237       -6.2666987107      -0.0000000119     0.999997    0.00003463
  238       -6.2666987225      -0.0000000118     0.999997    0.00003450
  239       -6.2666987342      -0.0000000117     0.999997    0.00003436
  240       -6.2666987458      -0.0000000116     0.999997    0.00003423
  241       -6.2666987573      -0.0000000115     0.999997    0.00003410
  242       -6.2666987688      -0.0000000114     0.999997    0.00003397
  243       -6.2666987801      -0.0000000114     0.999997    0.00003384
  244       -6.2666987914      -0.0000000113     0.999997    0.00003371
  245       -6.2666988026      -0.0000000112     0.999997    0.00003358
  246       -6.2666988137      -0.0000000111     0.999997    0.00003345
  247       -6.2666988247      -0.0000000110     0.999997    0.00003332
  248       -6.2666988357      -0.0000000109     0.999997    0.00003320
  249       -6.2666988465      -0.0000000109     0.999997    0.00003307
  250       -6.2666988573      -0.0000000108     0.999997    0.00003295
  251       -6.2666988680      -0.0000000107     0.999997    0.00003282
  252       -6.2666988787      -0.0000000106     0.999997    0.00003270
  253       -6.2666988892      -0.0000000106     0.999997    0.00003258
  254       -6.2666988997      -0.0000000105     0.999997    0.00003246
  255       -6.2666989101      -0.0000000104     0.999997    0.00003234
  256       -6.2666989204      -0.0000000103     0.999997    0.00003222
  257       -6.2666989307      -0.0000000103     0.999997    0.00003210
  258       -6.2666989409      -0.0000000102     0.999997    0.00003198
  259       -6.2666989510      -0.0000000101     0.999997    0.00003186
  260       -6.2666989610      -0.0000000100     0.999997    0.00003174
  261       -6.2666989710      -0.0000000100     0.999997    0.00003163
  262       -6.2666989809      -0.0000000099     0.999997    0.00003151
  263       -6.2666989907      -0.0000000098     0.999997    0.00003140
  264       -6.2666990005      -0.0000000098     0.999997    0.00003128
  265       -6.2666990102      -0.0000000097     0.999997    0.00003117
  266       -6.2666990198      -0.0000000096     0.999997    0.00003106
  267       -6.2666990293      -0.0000000096     0.999997    0.00003094
  268       -6.2666990388      -0.0000000095     0.999997    0.00003083
  269       -6.2666990483      -0.0000000094     0.999997    0.00003072
  270       -6.2666990576      -0.0000000094     0.999997    0.00003061
  271       -6.2666990669      -0.0000000093     0.999997    0.00003050
  272       -6.2666990761      -0.0000000092     0.999997    0.00003040
  273       -6.2666990853      -0.0000000092     0.999997    0.00003029
  274       -6.2666990944      -0.0000000091     0.999997    0.00003018
  275       -6.2666991035      -0.0000000090     0.999997    0.00003007
  276       -6.2666991124      -0.0000000090     0.999997    0.00002997
  277       -6.2666991214      -0.0000000089     0.999997    0.00002986
  278       -6.2666991302      -0.0000000089     0.999997    0.00002976
  279       -6.2666991390      -0.0000000088     0.999997    0.00002966
  280       -6.2666991478      -0.0000000087     0.999997    0.00002955
  281       -6.2666991565      -0.0000000087     0.999997    0.00002945
  282       -6.2666991651      -0.0000000086     0.999997    0.00002935
  283       -6.2666991736      -0.0000000086     0.999997    0.00002925
  284       -6.2666991822      -0.0000000085     0.999997    0.00002915
  285       -6.2666991906      -0.0000000085     0.999997    0.00002905
  286       -6.2666991990      -0.0000000084     0.999997    0.00002895
  287       -6.2666992074      -0.0000000083     0.999997    0.00002885
  288       -6.2666992156      -0.0000000083     0.999997    0.00002875
  289       -6.2666992239      -0.0000000082     0.999997    0.00002865
  290       -6.2666992321      -0.0000000082     0.999997    0.00002856
  291       -6.2666992402      -0.0000000081     0.999997    0.00002846
  292       -6.2666992483      -0.0000000081     0.999997    0.00002836
  293       -6.2666992563      -0.0000000080     0.999997    0.00002827
  294       -6.2666992643      -0.0000000080     0.999997    0.00002817
  295       -6.2666992722      -0.0000000079     0.999997    0.00002808
  296       -6.2666992800      -0.0000000079     0.999997    0.00002799
  297       -6.2666992879      -0.0000000078     0.999997    0.00002789
  298       -6.2666992956      -0.0000000078     0.999997    0.00002780
  299       -6.2666993033      -0.0000000077     0.999997    0.00002771
  300       -6.2666993110      -0.0000000077     0.999997    0.00002762
  301       -6.2666993186      -0.0000000076     0.999997    0.00002753
  302       -6.2666993262      -0.0000000076     0.999997    0.00002744
  303       -6.2666993337      -0.0000000075     0.999997    0.00002735
  304       -6.2666993412      -0.0000000075     0.999997    0.00002726
  305       -6.2666993486      -0.0000000074     0.999997    0.00002717
  306       -6.2666993560      -0.0000000074     0.999997    0.00002708
  307       -6.2666993634      -0.0000000073     0.999997    0.00002699
  308       -6.2666993707      -0.0000000073     0.999997    0.00002691
  309       -6.2666993779      -0.0000000072     0.999997    0.00002682
  310       -6.2666993851      -0.0000000072     0.999997    0.00002674
  311       -6.2666993923      -0.0000000072     0.999997    0.00002665
  312       -6.2666993994      -0.0000000071     0.999997    0.00002657
  313       -6.2666994065      -0.0000000071     0.999997    0.00002648
  314       -6.2666994135      -0.0000000070     0.999997    0.00002640
  315       -6.2666994205      -0.0000000070     0.999997    0.00002631
  316       -6.2666994274      -0.0000000069     0.999997    0.00002623
  317       -6.2666994343      -0.0000000069     0.999997    0.00002615
  318       -6.2666994412      -0.0000000069     0.999997    0.00002607
  319       -6.2666994480      -0.0000000068     0.999997    0.00002599
  320       -6.2666994548      -0.0000000068     0.999997    0.00002590
  321       -6.2666994615      -0.0000000067     0.999997    0.00002582
  322       -6.2666994682      -0.0000000067     0.999997    0.00002574
  323       -6.2666994749      -0.0000000067     0.999997    0.00002567
  324       -6.2666994815      -0.0000000066     0.999997    0.00002559
  325       -6.2666994881      -0.0000000066     0.999997    0.00002551
  326       -6.2666994946      -0.0000000065     0.999997    0.00002543
  327       -6.2666995011      -0.0000000065     0.999997    0.00002535
  328       -6.2666995076      -0.0000000065     0.999997    0.00002528
  329       -6.2666995140      -0.0000000064     0.999997    0.00002520
  330       -6.2666995204      -0.0000000064     0.999997    0.00002512
  331       -6.2666995267      -0.0000000064     0.999997    0.00002505
  332       -6.2666995330      -0.0000000063     0.999997    0.00002497
  333       -6.2666995393      -0.0000000063     0.999997    0.00002490
  334       -6.2666995456      -0.0000000062     0.999997    0.00002482
  335       -6.2666995518      -0.0000000062     0.999997    0.00002475
  336       -6.2666995579      -0.0000000062     0.999997    0.00002467
  337       -6.2666995641      -0.0000000061     0.999997    0.00002460
  338       -6.2666995702      -0.0000000061     0.999997    0.00002453
  339       -6.2666995762      -0.0000000061     0.999997    0.00002446
  340       -6.2666995823      -0.0000000060     0.999997    0.00002439
  341       -6.2666995883      -0.0000000060     0.999997    0.00002431
  342       -6.2666995942      -0.0000000060     0.999997    0.00002424
  343       -6.2666996002      -0.0000000059     0.999997    0.00002417
  344       -6.2666996061      -0.0000000059     0.999997    0.00002410
  345       -6.2666996119      -0.0000000059     0.999997    0.00002403
  346       -6.2666996178      -0.0000000058     0.999997    0.00002396
  347       -6.2666996236      -0.0000000058     0.999997    0.00002389
  348       -6.2666996293      -0.0000000058     0.999997    0.00002383
  349       -6.2666996351      -0.0000000057     0.999997    0.00002376
  350       -6.2666996408      -0.0000000057     0.999997    0.00002369
  351       -6.2666996464      -0.0000000057     0.999997    0.00002362
  352       -6.2666996521      -0.0000000056     0.999997    0.00002356
  353       -6.2666996577      -0.0000000056     0.999997    0.00002349
  354       -6.2666996633      -0.0000000056     0.999997    0.00002342
  355       -6.2666996688      -0.0000000056     0.999997    0.00002336
  356       -6.2666996743      -0.0000000055     0.999997    0.00002329
  357       -6.2666996798      -0.0000000055     0.999997    0.00002323
  358       -6.2666996853      -0.0000000055     0.999997    0.00002316
  359       -6.2666996907      -0.0000000054     0.999997    0.00002310
  360       -6.2666996961      -0.0000000054     0.999997    0.00002303
  361       -6.2666997015      -0.0000000054     0.999997    0.00002297
  362       -6.2666997068      -0.0000000053     0.999997    0.00002291
  363       -6.2666997122      -0.0000000053     0.999997    0.00002284
  364       -6.2666997174      -0.0000000053     0.999997    0.00002278
  365       -6.2666997227      -0.0000000053     0.999997    0.00002272
  366       -6.2666997279      -0.0000000052     0.999997    0.00002266
  367       -6.2666997331      -0.0000000052     0.999997    0.00002260
  368       -6.2666997383      -0.0000000052     0.999997    0.00002254
  369       -6.2666997435      -0.0000000052     0.999997    0.00002247
  370       -6.2666997486      -0.0000000051     0.999997    0.00002241
  371       -6.2666997537      -0.0000000051     0.999997    0.00002235
  372       -6.2666997588      -0.0000000051     0.999997    0.00002230
  373       -6.2666997638      -0.0000000050     0.999997    0.00002224
  374       -6.2666997689      -0.0000000050     0.999997    0.00002218
  375       -6.2666997739      -0.0000000050     0.999997    0.00002212
  376       -6.2666997788      -0.0000000050     0.999997    0.00002206
  377       -6.2666997838      -0.0000000049     0.999997    0.00002200
  378       -6.2666997887      -0.0000000049     0.999997    0.00002194
  379       -6.2666997936      -0.0000000049     0.999997    0.00002189
  380       -6.2666997985      -0.0000000049     0.999997    0.00002183
  381       -6.2666998033      -0.0000000048     0.999997    0.00002177
  382       -6.2666998081      -0.0000000048     0.999997    0.00002172
  383       -6.2666998129      -0.0000000048     0.999997    0.00002166
  384       -6.2666998177      -0.0000000048     0.999997    0.00002161
  385       -6.2666998225      -0.0000000048     0.999997    0.00002155
  386       -6.2666998272      -0.0000000047     0.999997    0.00002150
  387       -6.2666998319      -0.0000000047     0.999997    0.00002144
  388       -6.2666998366      -0.0000000047     0.999997    0.00002139
  389       -6.2666998412      -0.0000000047     0.999997    0.00002133
  390       -6.2666998459      -0.0000000046     0.999997    0.00002128
  391       -6.2666998505      -0.0000000046     0.999997    0.00002122
  392       -6.2666998551      -0.0000000046     0.999997    0.00002117
  393       -6.2666998597      -0.0000000046     0.999997    0.00002112
  394       -6.2666998642      -0.0000000045     0.999997    0.00002107
  395       -6.2666998687      -0.0000000045     0.999997    0.00002101
  396       -6.2666998732      -0.0000000045     0.999997    0.00002096
  397       -6.2666998777      -0.0000000045     0.999997    0.00002091
  398       -6.2666998822      -0.0000000045     0.999997    0.00002086
  399       -6.2666998866      -0.0000000044     0.999997    0.00002081
  400       -6.2666998911      -0.0000000044     0.999997    0.00002076
  401       -6.2666998955      -0.0000000044     0.999997    0.00002071
  402       -6.2666998998      -0.0000000044     0.999997    0.00002066
  403       -6.2666999042      -0.0000000044     0.999997    0.00002061
  404       -6.2666999085      -0.0000000043     0.999997    0.00002056
  405       -6.2666999129      -0.0000000043     0.999997    0.00002051
  406       -6.2666999172      -0.0000000043     0.999997    0.00002046
  407       -6.2666999214      -0.0000000043     0.999997    0.00002041
  408       -6.2666999257      -0.0000000043     0.999997    0.00002036
  409       -6.2666999299      -0.0000000042     0.999997    0.00002031
  410       -6.2666999342      -0.0000000042     0.999997    0.00002026
  411       -6.2666999384      -0.0000000042     0.999997    0.00002022
  412       -6.2666999426      -0.0000000042     0.999997    0.00002017
  413       -6.2666999467      -0.0000000042     0.999997    0.00002012
  414       -6.2666999509      -0.0000000041     0.999997    0.00002007
  415       -6.2666999550      -0.0000000041     0.999997    0.00002003
  416       -6.2666999591      -0.0000000041     0.999997    0.00001998
  417       -6.2666999632      -0.0000000041     0.999997    0.00001994
  418       -6.2666999673      -0.0000000041     0.999997    0.00001989
  419       -6.2666999713      -0.0000000041     0.999997    0.00001984
  420       -6.2666999754      -0.0000000040     0.999997    0.00001980
  421       -6.2666999794      -0.0000000040     0.999997    0.00001975
  422       -6.2666999834      -0.0000000040     0.999997    0.00001971
  423       -6.2666999874      -0.0000000040     0.999997    0.00001966
  424       -6.2666999913      -0.0000000040     0.999997    0.00001962
  425       -6.2666999953      -0.0000000040     0.999997    0.00001958
  426       -6.2666999992      -0.0000000039     0.999997    0.00001953
  427       -6.2667000031      -0.0000000039     0.999997    0.00001949
  428       -6.2667000070      -0.0000000039     0.999997    0.00001944
  429       -6.2667000109      -0.0000000039     0.999997    0.00001940
  430       -6.2667000148      -0.0000000039     0.999997    0.00001936
  431       -6.2667000186      -0.0000000039     0.999997    0.00001932
  432       -6.2667000225      -0.0000000038     0.999997    0.00001927
  433       -6.2667000263      -0.0000000038     0.999997    0.00001923
  434       -6.2667000301      -0.0000000038     0.999997    0.00001919
  435       -6.2667000339      -0.0000000038     0.999997    0.00001915
  436       -6.2667000377      -0.0000000038     0.999997    0.00001911
  437       -6.2667000414      -0.0000000038     0.999997    0.00001907
  438       -6.2667000452      -0.0000000037     0.999997    0.00001902
  439       -6.2667000489      -0.0000000037     0.999997    0.00001898
  440       -6.2667000526      -0.0000000037     0.999997    0.00001894
  441       -6.2667000563      -0.0000000037     0.999997    0.00001890
  442       -6.2667000600      -0.0000000037     0.999997    0.00001886
  443       -6.2667000636      -0.0000000037     0.999997    0.00001882
  444       -6.2667000673      -0.0000000037     0.999997    0.00001878
  445       -6.2667000709      -0.0000000036     0.999997    0.00001874
  446       -6.2667000745      -0.0000000036     0.999997    0.00001870
  447       -6.2667000781      -0.0000000036     0.999997    0.00001867
  448       -6.2667000817      -0.0000000036     0.999997    0.00001863
  449       -6.2667000853      -0.0000000036     0.999997    0.00001859
  450       -6.2667000889      -0.0000000036     0.999997    0.00001855
  451       -6.2667000924      -0.0000000035     0.999997    0.00001851
  452       -6.2667000960      -0.0000000035     0.999997    0.00001847
  453       -6.2667000995      -0.0000000035     0.999997    0.00001844
  454       -6.2667001030      -0.0000000035     0.999997    0.00001840
  455       -6.2667001065      -0.0000000035     0.999997    0.00001836
  456       -6.2667001100      -0.0000000035     0.999997    0.00001832
  457       -6.2667001134      -0.0000000035     0.999997    0.00001829
  458       -6.2667001169      -0.0000000035     0.999997    0.00001825
  459       -6.2667001203      -0.0000000034     0.999997    0.00001821
  460       -6.2667001238      -0.0000000034     0.999997    0.00001818
  461       -6.2667001272      -0.0000000034     0.999997    0.00001814
  462       -6.2667001306      -0.0000000034     0.999997    0.00001811
  463       -6.2667001340      -0.0000000034     0.999997    0.00001807
  464       -6.2667001373      -0.0000000034     0.999997    0.00001804
  465       -6.2667001407      -0.0000000034     0.999997    0.00001800
  466       -6.2667001441      -0.0000000034     0.999997    0.00001797
  467       -6.2667001474      -0.0000000033     0.999997    0.00001793
  468       -6.2667001507      -0.0000000033     0.999997    0.00001790
  469       -6.2667001540      -0.0000000033     0.999997    0.00001786
  470       -6.2667001574      -0.0000000033     0.999997    0.00001783
  471       -6.2667001606      -0.0000000033     0.999997    0.00001779
  472       -6.2667001639      -0.0000000033     0.999997    0.00001776
  473       -6.2667001672      -0.0000000033     0.999997    0.00001773
  474       -6.2667001704      -0.0000000033     0.999997    0.00001769
  475       -6.2667001737      -0.0000000032     0.999997    0.00001766
  476       -6.2667001769      -0.0000000032     0.999997    0.00001763
  477       -6.2667001801      -0.0000000032     0.999997    0.00001759
  478       -6.2667001834      -0.0000000032     0.999997    0.00001756
  479       -6.2667001866      -0.0000000032     0.999997    0.00001753
  480       -6.2667001897      -0.0000000032     0.999997    0.00001750
  481       -6.2667001929      -0.0000000032     0.999997    0.00001746
  482       -6.2667001961      -0.0000000032     0.999997    0.00001743
  483       -6.2667001992      -0.0000000032     0.999997    0.00001740
  484       -6.2667002024      -0.0000000031     0.999997    0.00001737
  485       -6.2667002055      -0.0000000031     0.999997    0.00001734
  486       -6.2667002086      -0.0000000031     0.999997    0.00001731
  487       -6.2667002117      -0.0000000031     0.999997    0.00001728
  488       -6.2667002148      -0.0000000031     0.999997    0.00001724
  489       -6.2667002179      -0.0000000031     0.999997    0.00001721
  490       -6.2667002210      -0.0000000031     0.999997    0.00001718
  491       -6.2667002241      -0.0000000031     0.999997    0.00001715
  492       -6.2667002271      -0.0000000031     0.999997    0.00001712
  493       -6.2667002302      -0.0000000030     0.999997    0.00001709
  494       -6.2667002332      -0.0000000030     0.999997    0.00001706
  495       -6.2667002363      -0.0000000030     0.999997    0.00001703
  496       -6.2667002393      -0.0000000030     0.999997    0.00001700
  497       -6.2667002423      -0.0000000030     0.999997    0.00001697
  498       -6.2667002453      -0.0000000030     0.999997    0.00001695
  499       -6.2667002483      -0.0000000030     0.999997    0.00001692
  500       -6.2667002512      -0.0000000030     0.999997    0.00001689
  501       -6.2667002542      -0.0000000030     0.999997    0.00001686
  502       -6.2667002572      -0.0000000030     0.999997    0.00001683
  503       -6.2667002601      -0.0000000030     0.999997    0.00001680
  504       -6.2667002631      -0.0000000029     0.999997    0.00001677
  505       -6.2667002660      -0.0000000029     0.999997    0.00001675
  506       -6.2667002689      -0.0000000029     0.999997    0.00001672
  507       -6.2667002718      -0.0000000029     0.999997    0.00001669
  508       -6.2667002747      -0.0000000029     0.999997    0.00001666
  509       -6.2667002776      -0.0000000029     0.999997    0.00001664
  510       -6.2667002805      -0.0000000029     0.999997    0.00001661
  511       -6.2667002834      -0.0000000029     0.999997    0.00001658
  512       -6.2667002863      -0.0000000029     0.999997    0.00001656
  513       -6.2667002891      -0.0000000029     0.999997    0.00001653
  514       -6.2667002920      -0.0000000029     0.999997    0.00001650
  515       -6.2667002948      -0.0000000028     0.999997    0.00001648
  516       -6.2667002977      -0.0000000028     0.999997    0.00001645
  517       -6.2667003005      -0.0000000028     0.999997    0.00001642
  518       -6.2667003033      -0.0000000028     0.999997    0.00001640
  519       -6.2667003061      -0.0000000028     0.999997    0.00001637
  520       -6.2667003089      -0.0000000028     0.999997    0.00001635
  521       -6.2667003117      -0.0000000028     0.999997    0.00001632
  522       -6.2667003145      -0.0000000028     0.999997    0.00001630
  523       -6.2667003173      -0.0000000028     0.999997    0.00001627
  524       -6.2667003200      -0.0000000028     0.999997    0.00001625
  525       -6.2667003228      -0.0000000028     0.999997    0.00001622
  526       -6.2667003255      -0.0000000028     0.999997    0.00001620
  527       -6.2667003283      -0.0000000027     0.999997    0.00001617
  528       -6.2667003310      -0.0000000027     0.999997    0.00001615
  529       -6.2667003338      -0.0000000027     0.999997    0.00001612
  530       -6.2667003365      -0.0000000027     0.999997    0.00001610
  531       -6.2667003392      -0.0000000027     0.999997    0.00001608
  532       -6.2667003419      -0.0000000027     0.999997    0.00001605
  533       -6.2667003446      -0.0000000027     0.999997    0.00001603
  534       -6.2667003473      -0.0000000027     0.999997    0.00001601
  535       -6.2667003500      -0.0000000027     0.999997    0.00001598
  536       -6.2667003526      -0.0000000027     0.999997    0.00001596
  537       -6.2667003553      -0.0000000027     0.999997    0.00001594
  538       -6.2667003580      -0.0000000027     0.999997    0.00001591
  539       -6.2667003606      -0.0000000027     0.999997    0.00001589
  540       -6.2667003633      -0.0000000026     0.999997    0.00001587
  541       -6.2667003659      -0.0000000026     0.999997    0.00001584
  542       -6.2667003686      -0.0000000026     0.999997    0.00001582
  543       -6.2667003712      -0.0000000026     0.999997    0.00001580
  544       -6.2667003738      -0.0000000026     0.999997    0.00001578
  545       -6.2667003764      -0.0000000026     0.999997    0.00001576
  546       -6.2667003790      -0.0000000026     0.999997    0.00001573
  547       -6.2667003816      -0.0000000026     0.999997    0.00001571
  548       -6.2667003842      -0.0000000026     0.999997    0.00001569
  549       -6.2667003868      -0.0000000026     0.999997    0.00001567
  550       -6.2667003894      -0.0000000026     0.999997    0.00001565
  551       -6.2667003919      -0.0000000026     0.999997    0.00001563
  552       -6.2667003945      -0.0000000026     0.999997    0.00001561
  553       -6.2667003971      -0.0000000026     0.999997    0.00001559
  554       -6.2667003996      -0.0000000026     0.999997    0.00001557
  555       -6.2667004022      -0.0000000025     0.999997    0.00001554
  556       -6.2667004047      -0.0000000025     0.999997    0.00001552
  557       -6.2667004072      -0.0000000025     0.999997    0.00001550
  558       -6.2667004098      -0.0000000025     0.999997    0.00001548
  559       -6.2667004123      -0.0000000025     0.999997    0.00001546
  560       -6.2667004148      -0.0000000025     0.999997    0.00001544
  561       -6.2667004173      -0.0000000025     0.999997    0.00001542
  562       -6.2667004198      -0.0000000025     0.999997    0.00001540
  563       -6.2667004223      -0.0000000025     0.999997    0.00001539
  564       -6.2667004248      -0.0000000025     0.999997    0.00001537
  565       -6.2667004273      -0.0000000025     0.999997    0.00001535
  566       -6.2667004298      -0.0000000025     0.999997    0.00001533
  567       -6.2667004323      -0.0000000025     0.999997    0.00001531
  568       -6.2667004347      -0.0000000025     0.999997    0.00001529
  569       -6.2667004372      -0.0000000025     0.999997    0.00001527
  570       -6.2667004397      -0.0000000025     0.999997    0.00001525
  571       -6.2667004421      -0.0000000025     0.999997    0.00001523
  572       -6.2667004446      -0.0000000024     0.999997    0.00001522
  573       -6.2667004470      -0.0000000024     0.999997    0.00001520
  574       -6.2667004494      -0.0000000024     0.999997    0.00001518
  575       -6.2667004519      -0.0000000024     0.999997    0.00001516
  576       -6.2667004543      -0.0000000024     0.999997    0.00001514
  577       -6.2667004567      -0.0000000024     0.999997    0.00001512
  578       -6.2667004591      -0.0000000024     0.999997    0.00001511
  579       -6.2667004615      -0.0000000024     0.999997    0.00001509
  580       -6.2667004639      -0.0000000024     0.999997    0.00001507
  581       -6.2667004663      -0.0000000024     0.999997    0.00001506
  582       -6.2667004687      -0.0000000024     0.999997    0.00001504
  583       -6.2667004711      -0.0000000024     0.999997    0.00001502
  584       -6.2667004735      -0.0000000024     0.999997    0.00001500
  585       -6.2667004759      -0.0000000024     0.999997    0.00001499
  586       -6.2667004783      -0.0000000024     0.999997    0.00001497
  587       -6.2667004806      -0.0000000024     0.999997    0.00001495
  588       -6.2667004830      -0.0000000024     0.999997    0.00001494
  589       -6.2667004853      -0.0000000024     0.999997    0.00001492
  590       -6.2667004877      -0.0000000024     0.999997    0.00001490
  591       -6.2667004900      -0.0000000023     0.999997    0.00001489
  592       -6.2667004924      -0.0000000023     0.999997    0.00001487
  593       -6.2667004947      -0.0000000023     0.999997    0.00001486
  594       -6.2667004971      -0.0000000023     0.999997    0.00001484
  595       -6.2667004994      -0.0000000023     0.999997    0.00001483
  596       -6.2667005017      -0.0000000023     0.999997    0.00001481
  597       -6.2667005041      -0.0000000023     0.999997    0.00001479
  598       -6.2667005064      -0.0000000023     0.999997    0.00001478
  599       -6.2667005087      -0.0000000023     0.999997    0.00001476
  600       -6.2667005110      -0.0000000023     0.999997    0.00001475
  601       -6.2667005133      -0.0000000023     0.999997    0.00001473
  602       -6.2667005156      -0.0000000023     0.999997    0.00001472
  603       -6.2667005179      -0.0000000023     0.999997    0.00001470
  604       -6.2667005202      -0.0000000023     0.999997    0.00001469
  605       -6.2667005225      -0.0000000023     0.999997    0.00001468
  606       -6.2667005248      -0.0000000023     0.999997    0.00001466
  607       -6.2667005270      -0.0000000023     0.999997    0.00001465
  608       -6.2667005293      -0.0000000023     0.999997    0.00001463
  609       -6.2667005316      -0.0000000023     0.999997    0.00001462
  610       -6.2667005339      -0.0000000023     0.999997    0.00001460
  611       -6.2667005361      -0.0000000023     0.999997    0.00001459
  612       -6.2667005384      -0.0000000023     0.999997    0.00001458
  613       -6.2667005406      -0.0000000023     0.999997    0.00001456
  614       -6.2667005429      -0.0000000023     0.999997    0.00001455
  615       -6.2667005451      -0.0000000022     0.999997    0.00001454
  616       -6.2667005474      -0.0000000022     0.999997    0.00001452
  617       -6.2667005496      -0.0000000022     0.999997    0.00001451
  618       -6.2667005519      -0.0000000022     0.999997    0.00001450
  619       -6.2667005541      -0.0000000022     0.999997    0.00001448
  620       -6.2667005563      -0.0000000022     0.999997    0.00001447
  621       -6.2667005585      -0.0000000022     0.999997    0.00001446
  622       -6.2667005608      -0.0000000022     0.999997    0.00001445
  623       -6.2667005630      -0.0000000022     0.999997    0.00001443
  624       -6.2667005652      -0.0000000022     0.999997    0.00001442
  625       -6.2667005674      -0.0000000022     0.999997    0.00001441
  626       -6.2667005696      -0.0000000022     0.999997    0.00001440
  627       -6.2667005718      -0.0000000022     0.999997    0.00001438
  628       -6.2667005740      -0.0000000022     0.999997    0.00001437
  629       -6.2667005762      -0.0000000022     0.999997    0.00001436
  630       -6.2667005784      -0.0000000022     0.999997    0.00001435
  631       -6.2667005806      -0.0000000022     0.999997    0.00001434
  632       -6.2667005828      -0.0000000022     0.999997    0.00001432
  633       -6.2667005850      -0.0000000022     0.999997    0.00001431
  634       -6.2667005872      -0.0000000022     0.999997    0.00001430
  635       -6.2667005894      -0.0000000022     0.999997    0.00001429
  636       -6.2667005915      -0.0000000022     0.999997    0.00001428
  637       -6.2667005937      -0.0000000022     0.999997    0.00001427
  638       -6.2667005959      -0.0000000022     0.999997    0.00001426
  639       -6.2667005981      -0.0000000022     0.999997    0.00001425
  640       -6.2667006002      -0.0000000022     0.999997    0.00001424
  641       -6.2667006024      -0.0000000022     0.999997    0.00001423
  642       -6.2667006045      -0.0000000022     0.999997    0.00001421
  643       -6.2667006067      -0.0000000022     0.999997    0.00001420
  644       -6.2667006088      -0.0000000022     0.999997    0.00001419
  645       -6.2667006110      -0.0000000022     0.999997    0.00001418
  646       -6.2667006131      -0.0000000021     0.999997    0.00001417
  647       -6.2667006153      -0.0000000021     0.999997    0.00001416
  648       -6.2667006174      -0.0000000021     0.999997    0.00001415
  649       -6.2667006196      -0.0000000021     0.999997    0.00001414
  650       -6.2667006217      -0.0000000021     0.999997    0.00001413
  651       -6.2667006238      -0.0000000021     0.999997    0.00001412
  652       -6.2667006260      -0.0000000021     0.999997    0.00001411
  653       -6.2667006281      -0.0000000021     0.999997    0.00001410
  654       -6.2667006302      -0.0000000021     0.999997    0.00001410
  655       -6.2667006324      -0.0000000021     0.999997    0.00001409
  656       -6.2667006345      -0.0000000021     0.999997    0.00001408
  657       -6.2667006366      -0.0000000021     0.999997    0.00001407
  658       -6.2667006387      -0.0000000021     0.999997    0.00001406
  659       -6.2667006408      -0.0000000021     0.999997    0.00001405
  660       -6.2667006429      -0.0000000021     0.999997    0.00001404
  661       -6.2667006451      -0.0000000021     0.999997    0.00001403
  662       -6.2667006472      -0.0000000021     0.999997    0.00001402
  663       -6.2667006493      -0.0000000021     0.999997    0.00001402
  664       -6.2667006514      -0.0000000021     0.999997    0.00001401
  665       -6.2667006535      -0.0000000021     0.999997    0.00001400
  666       -6.2667006556      -0.0000000021     0.999997    0.00001399
  667       -6.2667006577      -0.0000000021     0.999997    0.00001398
  668       -6.2667006598      -0.0000000021     0.999997    0.00001397
  669       -6.2667006619      -0.0000000021     0.999997    0.00001397
  670       -6.2667006640      -0.0000000021     0.999997    0.00001396
  671       -6.2667006660      -0.0000000021     0.999997    0.00001395
  672       -6.2667006681      -0.0000000021     0.999997    0.00001394
  673       -6.2667006702      -0.0000000021     0.999997    0.00001394
  674       -6.2667006723      -0.0000000021     0.999997    0.00001393
  675       -6.2667006744      -0.0000000021     0.999997    0.00001392
  676       -6.2667006765      -0.0000000021     0.999997    0.00001391
  677       -6.2667006785      -0.0000000021     0.999997    0.00001391
  678       -6.2667006806      -0.0000000021     0.999997    0.00001390
  679       -6.2667006827      -0.0000000021     0.999997    0.00001389
  680       -6.2667006848      -0.0000000021     0.999997    0.00001389
  681       -6.2667006868      -0.0000000021     0.999997    0.00001388
  682       -6.2667006889      -0.0000000021     0.999997    0.00001387
  683       -6.2667006910      -0.0000000021     0.999997    0.00001387
  684       -6.2667006930      -0.0000000021     0.999997    0.00001386
  685       -6.2667006951      -0.0000000021     0.999997    0.00001385
  686       -6.2667006972      -0.0000000021     0.999997    0.00001385
  687       -6.2667006992      -0.0000000021     0.999997    0.00001384
  688       -6.2667007013      -0.0000000021     0.999997    0.00001383
  689       -6.2667007033      -0.0000000021     0.999997    0.00001383
  690       -6.2667007054      -0.0000000021     0.999997    0.00001382
  691       -6.2667007074      -0.0000000021     0.999997    0.00001382
  692       -6.2667007095      -0.0000000021     0.999997    0.00001381
  693       -6.2667007116      -0.0000000021     0.999997    0.00001380
  694       -6.2667007136      -0.0000000021     0.999997    0.00001380
  695       -6.2667007157      -0.0000000020     0.999997    0.00001379
  696       -6.2667007177      -0.0000000020     0.999997    0.00001379
  697       -6.2667007198      -0.0000000020     0.999997    0.00001378
  698       -6.2667007218      -0.0000000020     0.999997    0.00001378
  699       -6.2667007238      -0.0000000020     0.999997    0.00001377
  700       -6.2667007259      -0.0000000020     0.999997    0.00001377
  701       -6.2667007279      -0.0000000020     0.999997    0.00001376
  702       -6.2667007300      -0.0000000020     0.999997    0.00001376
  703       -6.2667007320      -0.0000000020     0.999997    0.00001375
  704       -6.2667007340      -0.0000000020     0.999997    0.00001375
  705       -6.2667007361      -0.0000000020     0.999997    0.00001374
  706       -6.2667007381      -0.0000000020     0.999997    0.00001374
  707       -6.2667007402      -0.0000000020     0.999997    0.00001374
  708       -6.2667007422      -0.0000000020     0.999997    0.00001373
  709       -6.2667007442      -0.0000000020     0.999997    0.00001373
  710       -6.2667007463      -0.0000000020     0.999997    0.00001372
  711       -6.2667007483      -0.0000000020     0.999997    0.00001372
  712       -6.2667007503      -0.0000000020     0.999997    0.00001371
  713       -6.2667007524      -0.0000000020     0.999997    0.00001371
  714       -6.2667007544      -0.0000000020     0.999997    0.00001371
  715       -6.2667007564      -0.0000000020     0.999997    0.00001370
  716       -6.2667007584      -0.0000000020     0.999997    0.00001370
  717       -6.2667007605      -0.0000000020     0.999997    0.00001370
  718       -6.2667007625      -0.0000000020     0.999997    0.00001369
  719       -6.2667007645      -0.0000000020     0.999997    0.00001369
  720       -6.2667007666      -0.0000000020     0.999997    0.00001369
  721       -6.2667007686      -0.0000000020     0.999997    0.00001368
  722       -6.2667007706      -0.0000000020     0.999997    0.00001368
  723       -6.2667007726      -0.0000000020     0.999997    0.00001368
  724       -6.2667007747      -0.0000000020     0.999997    0.00001367
  725       -6.2667007767      -0.0000000020     0.999997    0.00001367
  726       -6.2667007787      -0.0000000020     0.999997    0.00001367
  727       -6.2667007807      -0.0000000020     0.999997    0.00001367
  728       -6.2667007827      -0.0000000020     0.999997    0.00001366
  729       -6.2667007848      -0.0000000020     0.999997    0.00001366
  730       -6.2667007868      -0.0000000020     0.999997    0.00001366
  731       -6.2667007888      -0.0000000020     0.999997    0.00001366
  732       -6.2667007908      -0.0000000020     0.999997    0.00001366
  733       -6.2667007929      -0.0000000020     0.999997    0.00001365
  734       -6.2667007949      -0.0000000020     0.999997    0.00001365
  735       -6.2667007969      -0.0000000020     0.999997    0.00001365
  736       -6.2667007989      -0.0000000020     0.999997    0.00001365
  737       -6.2667008009      -0.0000000020     0.999997    0.00001365
  738       -6.2667008030      -0.0000000020     0.999997    0.00001365
  739       -6.2667008050      -0.0000000020     0.999997    0.00001364
  740       -6.2667008070      -0.0000000020     0.999997    0.00001364
  741       -6.2667008090      -0.0000000020     0.999997    0.00001364
  742       -6.2667008110      -0.0000000020     0.999997    0.00001364
  743       -6.2667008131      -0.0000000020     0.999997    0.00001364
  744       -6.2667008151      -0.0000000020     0.999997    0.00001364
  745       -6.2667008171      -0.0000000020     0.999997    0.00001364
  746       -6.2667008191      -0.0000000020     0.999997    0.00001364
  747       -6.2667008211      -0.0000000020     0.999997    0.00001364
  748       -6.2667008231      -0.0000000020     0.999997    0.00001364
  749       -6.2667008252      -0.0000000020     0.999997    0.00001363
  750       -6.2667008272      -0.0000000020     0.999997    0.00001363
  751       -6.2667008292      -0.0000000020     0.999997    0.00001363
  752       -6.2667008312      -0.0000000020     0.999997    0.00001363
  753       -6.2667008333      -0.0000000020     0.999997    0.00001363
  754       -6.2667008353      -0.0000000020     0.999997    0.00001363
  755       -6.2667008373      -0.0000000020     0.999997    0.00001363
  756       -6.2667008393      -0.0000000020     0.999997    0.00001363
  757       -6.2667008413      -0.0000000020     0.999997    0.00001363
  758       -6.2667008434      -0.0000000020     0.999997    0.00001363
  759       -6.2667008454      -0.0000000020     0.999997    0.00001363
  760       -6.2667008474      -0.0000000020     0.999997    0.00001363
  761       -6.2667008494      -0.0000000020     0.999997    0.00001364
  762       -6.2667008515      -0.0000000020     0.999997    0.00001364
  763       -6.2667008535      -0.0000000020     0.999997    0.00001364
  764       -6.2667008555      -0.0000000020     0.999997    0.00001364
  765       -6.2667008575      -0.0000000020     0.999997    0.00001364
  766       -6.2667008596      -0.0000000020     0.999997    0.00001364
  767       -6.2667008616      -0.0000000020     0.999997    0.00001364
  768       -6.2667008636      -0.0000000020     0.999997    0.00001364
  769       -6.2667008656      -0.0000000020     0.999997    0.00001364
  770       -6.2667008677      -0.0000000020     0.999997    0.00001364
  771       -6.2667008697      -0.0000000020     0.999997    0.00001365
  772       -6.2667008717      -0.0000000020     0.999997    0.00001365
  773       -6.2667008738      -0.0000000020     0.999997    0.00001365
  774       -6.2667008758      -0.0000000020     0.999997    0.00001365
  775       -6.2667008778      -0.0000000020     0.999997    0.00001365
  776       -6.2667008799      -0.0000000020     0.999997    0.00001366
  777       -6.2667008819      -0.0000000020     0.999997    0.00001366
  778       -6.2667008839      -0.0000000020     0.999997    0.00001366
  779       -6.2667008860      -0.0000000020     0.999997    0.00001366
  780       -6.2667008880      -0.0000000020     0.999997    0.00001366
  781       -6.2667008901      -0.0000000020     0.999997    0.00001367
  782       -6.2667008921      -0.0000000020     0.999997    0.00001367
  783       -6.2667008941      -0.0000000020     0.999997    0.00001367
  784       -6.2667008962      -0.0000000020     0.999997    0.00001367
  785       -6.2667008982      -0.0000000020     0.999997    0.00001368
  786       -6.2667009003      -0.0000000020     0.999997    0.00001368
  787       -6.2667009023      -0.0000000020     0.999997    0.00001368
  788       -6.2667009044      -0.0000000020     0.999997    0.00001369
  789       -6.2667009064      -0.0000000020     0.999997    0.00001369
  790       -6.2667009085      -0.0000000021     0.999997    0.00001369
  791       -6.2667009105      -0.0000000021     0.999997    0.00001370
  792       -6.2667009126      -0.0000000021     0.999997    0.00001370
  793       -6.2667009146      -0.0000000021     0.999997    0.00001370
  794       -6.2667009167      -0.0000000021     0.999997    0.00001371
  795       -6.2667009187      -0.0000000021     0.999997    0.00001371
  796       -6.2667009208      -0.0000000021     0.999997    0.00001371
  797       -6.2667009229      -0.0000000021     0.999997    0.00001372
  798       -6.2667009249      -0.0000000021     0.999997    0.00001372
  799       -6.2667009270      -0.0000000021     0.999997    0.00001373
  800       -6.2667009291      -0.0000000021     0.999997    0.00001373
  801       -6.2667009311      -0.0000000021     0.999997    0.00001373
  802       -6.2667009332      -0.0000000021     0.999997    0.00001374
  803       -6.2667009353      -0.0000000021     0.999997    0.00001374
  804       -6.2667009373      -0.0000000021     0.999997    0.00001375
  805       -6.2667009394      -0.0000000021     0.999997    0.00001375
  806       -6.2667009415      -0.0000000021     0.999997    0.00001376
  807       -6.2667009436      -0.0000000021     0.999997    0.00001376
  808       -6.2667009456      -0.0000000021     0.999997    0.00001377
  809       -6.2667009477      -0.0000000021     0.999997    0.00001377
  810       -6.2667009498      -0.0000000021     0.999997    0.00001378
  811       -6.2667009519      -0.0000000021     0.999997    0.00001378
  812       -6.2667009540      -0.0000000021     0.999997    0.00001379
  813       -6.2667009561      -0.0000000021     0.999997    0.00001379
  814       -6.2667009582      -0.0000000021     0.999997    0.00001380
  815       -6.2667009603      -0.0000000021     0.999997    0.00001381
  816       -6.2667009623      -0.0000000021     0.999997    0.00001381
  817       -6.2667009644      -0.0000000021     0.999997    0.00001382
  818       -6.2667009665      -0.0000000021     0.999997    0.00001382
  819       -6.2667009686      -0.0000000021     0.999997    0.00001383
  820       -6.2667009708      -0.0000000021     0.999997    0.00001384
  821       -6.2667009729      -0.0000000021     0.999997    0.00001384
  822       -6.2667009750      -0.0000000021     0.999997    0.00001385
  823       -6.2667009771      -0.0000000021     0.999997    0.00001386
  824       -6.2667009792      -0.0000000021     0.999997    0.00001386
  825       -6.2667009813      -0.0000000021     0.999997    0.00001387
  826       -6.2667009834      -0.0000000021     0.999997    0.00001388
  827       -6.2667009855      -0.0000000021     0.999997    0.00001388
  828       -6.2667009877      -0.0000000021     0.999997    0.00001389
  829       -6.2667009898      -0.0000000021     0.999997    0.00001390
  830       -6.2667009919      -0.0000000021     0.999997    0.00001390
  831       -6.2667009941      -0.0000000021     0.999997    0.00001391
  832       -6.2667009962      -0.0000000021     0.999997    0.00001392
  833       -6.2667009983      -0.0000000021     0.999997    0.00001393
  834       -6.2667010005      -0.0000000021     0.999997    0.00001393
  835       -6.2667010026      -0.0000000021     0.999997    0.00001394
  836       -6.2667010048      -0.0000000021     0.999997    0.00001395
  837       -6.2667010069      -0.0000000021     0.999997    0.00001396
  838       -6.2667010091      -0.0000000022     0.999997    0.00001397
  839       -6.2667010112      -0.0000000022     0.999997    0.00001397
  840       -6.2667010134      -0.0000000022     0.999997    0.00001398
  841       -6.2667010155      -0.0000000022     0.999997    0.00001399
  842       -6.2667010177      -0.0000000022     0.999997    0.00001400
  843       -6.2667010198      -0.0000000022     0.999997    0.00001401
  844       -6.2667010220      -0.0000000022     0.999997    0.00001402
  845       -6.2667010242      -0.0000000022     0.999997    0.00001402
  846       -6.2667010264      -0.0000000022     0.999997    0.00001403
  847       -6.2667010285      -0.0000000022     0.999997    0.00001404
  848       -6.2667010307      -0.0000000022     0.999997    0.00001405
  849       -6.2667010329      -0.0000000022     0.999997    0.00001406
  850       -6.2667010351      -0.0000000022     0.999997    0.00001407
  851       -6.2667010373      -0.0000000022     0.999997    0.00001408
  852       -6.2667010395      -0.0000000022     0.999997    0.00001409
  853       -6.2667010417      -0.0000000022     0.999997    0.00001410
  854       -6.2667010439      -0.0000000022     0.999997    0.00001411
  855       -6.2667010461      -0.0000000022     0.999997    0.00001412
  856       -6.2667010483      -0.0000000022     0.999997    0.00001413
  857       -6.2667010505      -0.0000000022     0.999997    0.00001414
  858       -6.2667010527      -0.0000000022     0.999997    0.00001415
  859       -6.2667010549      -0.0000000022     0.999997    0.00001416
  860       -6.2667010572      -0.0000000022     0.999997    0.00001417
  861       -6.2667010594      -0.0000000022     0.999997    0.00001418
  862       -6.2667010616      -0.0000000022     0.999997    0.00001419
  863       -6.2667010638      -0.0000000022     0.999997    0.00001420
  864       -6.2667010661      -0.0000000022     0.999997    0.00001421
  865       -6.2667010683      -0.0000000022     0.999997    0.00001422
  866       -6.2667010706      -0.0000000022     0.999997    0.00001424
  867       -6.2667010728      -0.0000000022     0.999997    0.00001425
  868       -6.2667010751      -0.0000000023     0.999997    0.00001426
  869       -6.2667010773      -0.0000000023     0.999997    0.00001427
  870       -6.2667010796      -0.0000000023     0.999997    0.00001428
  871       -6.2667010819      -0.0000000023     0.999997    0.00001429
  872       -6.2667010841      -0.0000000023     0.999997    0.00001430
  873       -6.2667010864      -0.0000000023     0.999997    0.00001432
  874       -6.2667010887      -0.0000000023     0.999997    0.00001433
  875       -6.2667010910      -0.0000000023     0.999997    0.00001434
  876       -6.2667010933      -0.0000000023     0.999997    0.00001435
  877       -6.2667010955      -0.0000000023     0.999997    0.00001437
  878       -6.2667010978      -0.0000000023     0.999997    0.00001438
  879       -6.2667011001      -0.0000000023     0.999997    0.00001439
  880       -6.2667011024      -0.0000000023     0.999997    0.00001440
  881       -6.2667011048      -0.0000000023     0.999997    0.00001442
  882       -6.2667011071      -0.0000000023     0.999997    0.00001443
  883       -6.2667011094      -0.0000000023     0.999997    0.00001444
  884       -6.2667011117      -0.0000000023     0.999997    0.00001446
  885       -6.2667011140      -0.0000000023     0.999997    0.00001447
  886       -6.2667011164      -0.0000000023     0.999997    0.00001448
  887       -6.2667011187      -0.0000000023     0.999997    0.00001450
  888       -6.2667011210      -0.0000000023     0.999997    0.00001451
  889       -6.2667011234      -0.0000000023     0.999997    0.00001452
  890       -6.2667011257      -0.0000000024     0.999997    0.00001454
  891       -6.2667011281      -0.0000000024     0.999997    0.00001455
  892       -6.2667011305      -0.0000000024     0.999997    0.00001457
  893       -6.2667011328      -0.0000000024     0.999997    0.00001458
  894       -6.2667011352      -0.0000000024     0.999997    0.00001460
  895       -6.2667011376      -0.0000000024     0.999997    0.00001461
  896       -6.2667011400      -0.0000000024     0.999997    0.00001463
  897       -6.2667011424      -0.0000000024     0.999997    0.00001464
  898       -6.2667011448      -0.0000000024     0.999997    0.00001466
  899       -6.2667011472      -0.0000000024     0.999997    0.00001467
  900       -6.2667011496      -0.0000000024     0.999997    0.00001469
  901       -6.2667011520      -0.0000000024     0.999997    0.00001470
  902       -6.2667011544      -0.0000000024     0.999997    0.00001472
  903       -6.2667011568      -0.0000000024     0.999997    0.00001473
  904       -6.2667011592      -0.0000000024     0.999997    0.00001475
  905       -6.2667011617      -0.0000000024     0.999997    0.00001477
  906       -6.2667011641      -0.0000000024     0.999997    0.00001478
  907       -6.2667011665      -0.0000000024     0.999997    0.00001480
  908       -6.2667011690      -0.0000000025     0.999997    0.00001481
  909       -6.2667011715      -0.0000000025     0.999997    0.00001483
  910       -6.2667011739      -0.0000000025     0.999997    0.00001485
  911       -6.2667011764      -0.0000000025     0.999997    0.00001486
  912       -6.2667011789      -0.0000000025     0.999997    0.00001488
  913       -6.2667011813      -0.0000000025     0.999997    0.00001490
  914       -6.2667011838      -0.0000000025     0.999997    0.00001492
  915       -6.2667011863      -0.0000000025     0.999997    0.00001493
  916       -6.2667011888      -0.0000000025     0.999997    0.00001495
  917       -6.2667011913      -0.0000000025     0.999997    0.00001497
  918       -6.2667011938      -0.0000000025     0.999997    0.00001499
  919       -6.2667011964      -0.0000000025     0.999997    0.00001500
  920       -6.2667011989      -0.0000000025     0.999997    0.00001502
  921       -6.2667012014      -0.0000000025     0.999997    0.00001504
  922       -6.2667012040      -0.0000000025     0.999997    0.00001506
  923       -6.2667012065      -0.0000000025     0.999997    0.00001508
  924       -6.2667012091      -0.0000000026     0.999997    0.00001510
  925       -6.2667012116      -0.0000000026     0.999997    0.00001511
  926       -6.2667012142      -0.0000000026     0.999997    0.00001513
  927       -6.2667012167      -0.0000000026     0.999997    0.00001515
  928       -6.2667012193      -0.0000000026     0.999997    0.00001517
  929       -6.2667012219      -0.0000000026     0.999997    0.00001519
  930       -6.2667012245      -0.0000000026     0.999997    0.00001521
  931       -6.2667012271      -0.0000000026     0.999997    0.00001523
  932       -6.2667012297      -0.0000000026     0.999997    0.00001525
  933       -6.2667012323      -0.0000000026     0.999997    0.00001527
  934       -6.2667012350      -0.0000000026     0.999997    0.00001529
  935       -6.2667012376      -0.0000000026     0.999997    0.00001531
  936       -6.2667012402      -0.0000000026     0.999997    0.00001533
  937       -6.2667012429      -0.0000000026     0.999997    0.00001535
  938       -6.2667012455      -0.0000000027     0.999997    0.00001537
  939       -6.2667012482      -0.0000000027     0.999997    0.00001539
  940       -6.2667012509      -0.0000000027     0.999997    0.00001541
  941       -6.2667012535      -0.0000000027     0.999997    0.00001544
  942       -6.2667012562      -0.0000000027     0.999997    0.00001546
  943       -6.2667012589      -0.0000000027     0.999997    0.00001548
  944       -6.2667012616      -0.0000000027     0.999997    0.00001550
  945       -6.2667012643      -0.0000000027     0.999997    0.00001552
  946       -6.2667012670      -0.0000000027     0.999997    0.00001554
  947       -6.2667012698      -0.0000000027     0.999997    0.00001557
  948       -6.2667012725      -0.0000000027     0.999997    0.00001559
  949       -6.2667012753      -0.0000000027     0.999997    0.00001561
  950       -6.2667012780      -0.0000000028     0.999997    0.00001563
  951       -6.2667012808      -0.0000000028     0.999997    0.00001566
  952       -6.2667012835      -0.0000000028     0.999997    0.00001568
  953       -6.2667012863      -0.0000000028     0.999997    0.00001570
  954       -6.2667012891      -0.0000000028     0.999997    0.00001573
  955       -6.2667012919      -0.0000000028     0.999997    0.00001575
  956       -6.2667012947      -0.0000000028     0.999997    0.00001577
  957       -6.2667012975      -0.0000000028     0.999997    0.00001580
  958       -6.2667013003      -0.0000000028     0.999997    0.00001582
  959       -6.2667013032      -0.0000000028     0.999997    0.00001585
  960       -6.2667013060      -0.0000000028     0.999997    0.00001587
  961       -6.2667013089      -0.0000000029     0.999997    0.00001590
  962       -6.2667013117      -0.0000000029     0.999997    0.00001592
  963       -6.2667013146      -0.0000000029     0.999997    0.00001595
  964       -6.2667013175      -0.0000000029     0.999997    0.00001597
  965       -6.2667013204      -0.0000000029     0.999997    0.00001600
  966       -6.2667013233      -0.0000000029     0.999997    0.00001602
  967       -6.2667013262      -0.0000000029     0.999997    0.00001605
  968       -6.2667013291      -0.0000000029     0.999997    0.00001607
  969       -6.2667013320      -0.0000000029     0.999997    0.00001610
  970       -6.2667013350      -0.0000000029     0.999997    0.00001613
  971       -6.2667013379      -0.0000000030     0.999997    0.00001615
  972       -6.2667013409      -0.0000000030     0.999997    0.00001618
  973       -6.2667013439      -0.0000000030     0.999997    0.00001621
  974       -6.2667013468      -0.0000000030     0.999997    0.00001623
  975       -6.2667013498      -0.0000000030     0.999997    0.00001626
  976       -6.2667013528      -0.0000000030     0.999997    0.00001629
  977       -6.2667013558      -0.0000000030     0.999997    0.00001632
  978       -6.2667013589      -0.0000000030     0.999997    0.00001634
  979       -6.2667013619      -0.0000000030     0.999997    0.00001637
  980       -6.2667013650      -0.0000000030     0.999997    0.00001640
  981       -6.2667013680      -0.0000000031     0.999997    0.00001643
  982       -6.2667013711      -0.0000000031     0.999997    0.00001646
  983       -6.2667013742      -0.0000000031     0.999997    0.00001649
  984       -6.2667013773      -0.0000000031     0.999997    0.00001651
  985       -6.2667013804      -0.0000000031     0.999997    0.00001654
  986       -6.2667013835      -0.0000000031     0.999997    0.00001657
  987       -6.2667013866      -0.0000000031     0.999997    0.00001660
  988       -6.2667013897      -0.0000000031     0.999997    0.00001663
  989       -6.2667013929      -0.0000000032     0.999997    0.00001666
  990       -6.2667013961      -0.0000000032     0.999997    0.00001669
  991       -6.2667013992      -0.0000000032     0.999997    0.00001672
  992       -6.2667014024      -0.0000000032     0.999997    0.00001675
  993       -6.2667014056      -0.0000000032     0.999997    0.00001678
  994       -6.2667014088      -0.0000000032     0.999997    0.00001682
  995       -6.2667014121      -0.0000000032     0.999997    0.00001685
  996       -6.2667014153      -0.0000000032     0.999997    0.00001688
  997       -6.2667014186      -0.0000000033     0.999997    0.00001691
  998       -6.2667014218      -0.0000000033     0.999997    0.00001694
  999       -6.2667014251      -0.0000000033     0.999997    0.00001698
 1000       -6.2667014284      -0.0000000033     0.999997    0.00001701

Total Energy:                       -6.2667014284 H         -170.5256 eV
Extrapolated to 0:                  -6.2406276430 H         -169.8161 eV

----------------------------------------------------------------------------------
 Solving CP-REKS equation for  1 state vector...
----------------------------------------------------------------------------------
  CG solver: Constructing Y initial guess
  CG solver: Iteration    1    eps =    0.061394080068
  CG solver: Iteration    2    eps =    0.021551111452
  CG solver: Iteration    3    eps =    0.128730896791
  CG solver: Iteration    4    eps =   83.297727706908
  CG solver: Iteration    5    eps =    0.201545829248
  CG solver: Iteration    6    eps =    0.007678553125
  CG solver: Iteration    7    eps =    0.003864093250
  CG solver: Iteration    8    eps =    0.000312533504
  CG solver: Iteration    9    eps =    0.000018846782
  CG solver: Iteration   10    eps =    0.000001444714
  CG solver: Iteration   11    eps =    0.000000075148
  CG solver: Iteration   12    eps =    0.000000013842
  CG solver: Iteration   13    eps =    0.000000000256
  Convergence reached in CG solver after   13 iterations
  CG solver: Calculating converged R, Z, Q2 matrix
----------------------------------------------------------------------------------

----------------------------------------------------------------------------------
 Solving CP-REKS equation for SI between  1 and  2 state vectors...
----------------------------------------------------------------------------------
  CG solver: Constructing Y initial guess
  CG solver: Iteration    1    eps =    0.003267866926
  CG solver: Iteration    2    eps =    0.003154966628
  CG solver: Iteration    3    eps =    0.040605093267
  CG solver: Iteration    4    eps =    0.020330960206
  CG solver: Iteration    5    eps =    0.006719956616
  CG solver: Iteration    6    eps =    0.000782859227
  CG solver: Iteration    7    eps =    0.000067420492
  CG solver: Iteration    8    eps =    0.000001756688
  CG solver: Iteration    9    eps =    0.000000023994
  CG solver: Iteration   10    eps =    0.000000002129
  Convergence reached in CG solver after   10 iterations
  CG solver: Calculating converged R, Z, Q2 matrix
----------------------------------------------------------------------------------

--------------------------------------------------
 Gradient Information
--------------------------------------------------
           1 st state (SSR)
     0.00000000     0.00000000     0.00000000
     0.00000000     0.00000000     0.00000000
     0.00000000     0.00000000     0.00000000
     0.00000000     0.00000000     0.00000000
     0.00000000     0.00000000     0.00000000
     0.00000000     0.00000000     0.00000000

           2 st state (SSR)
     0.00000000     0.00000000     0.00000000
     0.00000000     0.00000000     0.00000000
     0.00000000     0.00000000     0.00000000
     0.00000000     0.00000000     0.00000000
     0.00000000     0.00000000     0.00000000
     0.00000000     0.00000000     0.00000000
--------------------------------------------------
 Coupling Information
--------------------------------------------------
 between  1 and  2 states
--------------------------------------------------
 g vector - difference gradient
    -0.04598309     0.21113959     4.47016775
    -0.34566782    -0.06023780    -4.10396128
     0.22041503     2.54490771    -0.50656796
     0.27799562    -2.80533894     0.03447768
     0.17330943     2.59468282     0.45360171
    -0.28006916    -2.48515337    -0.34771791

 h vector - derivative coupling
     0.04686634    -0.05765600     1.16849949
    -0.09243900     0.03517170    -1.26895001
     0.06695586     0.63206022    -0.03091699
     0.04131333    -0.69684395     0.02763976
    -0.01703973     0.69320111     0.15984335
    -0.04565681    -0.60593308    -0.05611560

 G vector - GDV
     0.00000000     0.00000000     0.00000000
     0.00000000     0.00000000     0.00000000
     0.00000000     0.00000000     0.00000000
     0.00000000     0.00000000     0.00000000
     0.00000000     0.00000000     0.00000000
     0.00000000     0.00000000     0.00000000

 H vector - DCV - non-adiabatic coupling
     0.00000000     0.00000000     0.00000000
     0.00000000     0.00000000     0.00000000
     0.00000000     0.00000000     0.00000000
     0.00000000     0.00000000     0.00000000
     0.00000000     0.00000000     0.00000000
     0.00000000     0.00000000     0.00000000
--------------------------------------------------

WARNING!
-> SCC is NOT converged, maximal SCC iterations exceeded

--------------------------------------------------------------------------------
DFTB+ running times                          cpu [s]             wall clock [s]
--------------------------------------------------------------------------------
SCC                                    +     0.42  ( 96.7%)      0.42  ( 96.1%)
      Sparse to dense                        0.02  (  4.5%)      0.02  (  4.8%)
      Dense to sparse                        0.07  ( 15.2%)      0.06  ( 14.5%)
      Range separated Hamiltonian            0.03  (  6.3%)      0.03  (  5.7%)
  Density matrix creation                    0.05  ( 11.7%)      0.06  ( 12.9%)
  Force calculation                          0.01  (  3.0%)      0.01  (  2.9%)
--------------------------------------------------------------------------------
Missing                                +     0.01  (  3.3%)      0.02  (  3.9%)
Total                                  =     0.44  (100.0%)      0.44  (100.0%)
--------------------------------------------------------------------------------
