     6
  Step:   300            Position(A)                                  Velocity(au)
C        -0.05834162     0.02574099     0.02100605     0.00006667     0.00007921     0.00012378
N        -0.03145154    -0.05599984     1.29657956    -0.00022133     0.00000355    -0.00011607
H         0.13760651    -0.90553806    -0.50158525    -0.00045264    -0.00026683     0.00045811
H         0.14602610     0.74238566     1.91095399     0.00070657    -0.00054293     0.00018767
H        -0.07397027    -0.99188080     1.70717425     0.00164276    -0.00003669     0.00009120
H        -0.29032682     0.95672569    -0.49254796     0.00038456    -0.00014677    -0.00059893
