    14
  Step:     0            Position(A)                                  Velocity(au)
C        -5.95240046    -0.81804365    -0.13492060     0.00014892    -0.00022807    -0.00028736
C        -4.65969687    -0.75606488     0.11076724     0.00013377     0.00036857     0.00000152
H        -6.56952896    -0.02418011    -0.47004643    -0.00096266    -0.00026554     0.00102733
H        -6.52169530    -1.74791594    -0.01034978     0.00089267     0.00015674     0.00067525
H        -4.11353946    -1.70726572     0.39761121     0.00068173    -0.00033782    -0.00022293
C        -3.97542904     0.51845134    -0.02160544    -0.00017717    -0.00000782     0.00039692
C        -2.63308831     0.58665321     0.19633416    -0.00008927     0.00047651    -0.00026239
H        -4.64366337     1.38953337    -0.23988999    -0.00086002    -0.00028716    -0.00002086
H        -2.05603158    -0.31143669     0.50975726    -0.00082232    -0.00132409     0.00068445
C        -1.83569148     1.77032246     0.02175085     0.00050553    -0.00027767    -0.00005676
H        -2.22845261     2.83871571    -0.10082361     0.00029151    -0.00054814    -0.00010926
N        -0.48756690     1.67970066     0.15802348    -0.00020892    -0.00006426     0.00010471
H         0.05859993     2.49542316     0.16643705    -0.00081967     0.00026711    -0.00093916
H        -0.04762390     0.85971270     0.51168164    -0.00171544    -0.00071854    -0.00007067
    14
  Step:     1            Position(A)                                  Velocity(au)
C        -5.95126977    -0.82074691    -0.13810859     0.00005912    -0.00026356    -0.00029504
C        -4.65776307    -0.75201841     0.11085279     0.00021886     0.00036819     0.00001418
H        -6.58038145    -0.02571694    -0.45926814    -0.00101100    -0.00002695     0.00094553
H        -6.51169182    -1.74611927    -0.00287836     0.00092320     0.00014922     0.00068885
H        -4.10641148    -1.70948476     0.39480100     0.00061202    -0.00005228    -0.00029429
C        -3.97776951     0.51826515    -0.01726473    -0.00025143    -0.00002350     0.00039579
C        -2.63366265     0.59196922     0.19349865    -0.00001374     0.00049104    -0.00025422
H        -4.65199202     1.38579848    -0.24000393    -0.00065813    -0.00039581     0.00000290
H        -2.06567360    -0.32544102     0.51697538    -0.00095148    -0.00119725     0.00062217
C        -1.83025560     1.76740186     0.02115145     0.00048435    -0.00025627    -0.00005355
H        -2.22497168     2.83060274    -0.10211834     0.00034226    -0.00092313    -0.00013011
N        -0.48987652     1.67896583     0.15915396    -0.00021117    -0.00006987     0.00010225
H         0.05075599     2.49999252     0.15619076    -0.00061109     0.00055475    -0.00093177
H        -0.06603047     0.85083528     0.51114311    -0.00163540    -0.00090196    -0.00002648
    14
  Step:     2            Position(A)                                  Velocity(au)
C        -5.95110714    -0.82380943    -0.14137511    -0.00002696    -0.00029281    -0.00030172
C        -4.65490887    -0.74801009     0.11107751     0.00030012     0.00036212     0.00002645
H        -6.59164645    -0.02476965    -0.44936120    -0.00103312     0.00018054     0.00087071
H        -6.50149858    -1.74465137     0.00472015     0.00092545     0.00009483     0.00069891
H        -4.10015045    -1.70840952     0.39117312     0.00052836     0.00025574    -0.00036950
C        -3.98092953     0.51793731    -0.01294678    -0.00032612    -0.00003403     0.00039291
C        -2.63338886     0.59739571     0.19077268     0.00006502     0.00049748    -0.00024265
H        -4.65806124     1.38087433    -0.23982646    -0.00045272    -0.00049907     0.00003106
H        -2.07684698    -0.33762888     0.52336841    -0.00109550    -0.00100001     0.00053623
C        -1.82509546     1.76471607     0.02057931     0.00045548    -0.00023589    -0.00005160
H        -2.22096507     2.81852040    -0.10366994     0.00038387    -0.00126274    -0.00015788
N        -0.49218654     1.67817205     0.16026034    -0.00020775    -0.00007438     0.00010061
H         0.04523124     2.50755943     0.14605289    -0.00040856     0.00079559    -0.00091885
H        -0.08340138     0.83998066     0.51110225    -0.00153195    -0.00106872     0.00001545
    14
  Step:     3            Position(A)                                  Velocity(au)
C        -5.95185956    -0.82715267    -0.14470928    -0.00010726    -0.00031433    -0.00030733
C        -4.65119739    -0.74409636     0.11143152     0.00037399     0.00035153     0.00003736
H        -6.60298288    -0.02176730    -0.44021973    -0.00102112     0.00034337     0.00080709
H        -6.49144580    -1.74404466     0.01241160     0.00089699    -0.00000790     0.00070602
H        -4.09485267    -1.70388998     0.38671748     0.00044092     0.00056885    -0.00044287
C        -3.98490391     0.51752074    -0.00866896    -0.00039970    -0.00004019     0.00038859
C        -2.63224024     0.60285254     0.18819015     0.00014569     0.00049741    -0.00022827
H        -4.66189609     1.37488041    -0.23932454    -0.00025547    -0.00058592     0.00006075
H        -2.08963981    -0.34731810     0.52870649    -0.00124126    -0.00074868     0.00043212
C        -1.82029108     1.76224120     0.02002271     0.00041982    -0.00021891    -0.00005049
H        -2.21657379     2.80297778    -0.10557230     0.00040867    -0.00154434    -0.00019604
N        -0.49442146     1.67733855     0.16135498    -0.00019664    -0.00007677     0.00010032
H         0.04181793     2.51739763     0.13608914    -0.00023434     0.00095592    -0.00089905
H        -0.09954472     0.82745496     0.51148119    -0.00141590    -0.00119749     0.00004600
    14
  Step:     4            Position(A)                                  Velocity(au)
C        -5.95345358    -0.83068611    -0.14809852    -0.00018024    -0.00032751    -0.00031165
C        -4.64672714    -0.74031967     0.11189478     0.00043775     0.00033796     0.00004601
H        -6.61398534    -0.01725774    -0.43170460    -0.00097137     0.00045355     0.00075646
H        -6.48187510    -1.74482421     0.02016563     0.00083846    -0.00015556     0.00071026
H        -4.09050449    -1.69596482     0.38148450     0.00035973     0.00086977    -0.00050906
C        -3.98967363     0.51705814    -0.00444555    -0.00047138    -0.00004319     0.00038309
C        -2.63020165     0.60827753     0.18577880     0.00022762     0.00049255    -0.00021160
H        -4.66365010     1.36805612    -0.23849735    -0.00007795    -0.00064561     0.00008914
H        -2.10400196    -0.35400770     0.53282189    -0.00137675    -0.00045981     0.00031566
C        -1.81591118     1.75992707     0.01947485     0.00037853    -0.00020774    -0.00004975
H        -2.21202454     2.78473504    -0.10795868     0.00040879    -0.00174529    -0.00024829
N        -0.49648837     1.67649251     0.16245494    -0.00017682    -0.00007662     0.00010169
H         0.04010463     2.52847194     0.12638437    -0.00010235     0.00101505    -0.00087060
H        -0.11437685     0.81378330     0.51210859    -0.00129566    -0.00127118     0.00005793
    14
  Step:     5            Position(A)                                  Velocity(au)
C        -5.95580259    -0.83431761    -0.15152727    -0.00024522    -0.00033269    -0.00031441
C        -4.64162084    -0.73670283     0.11243813     0.00048987     0.00032355     0.00005167
H        -6.62423357    -0.01184508    -0.42367065    -0.00088453     0.00050846     0.00071847
H        -6.47310287    -1.74744774     0.02794982     0.00075385    -0.00033908     0.00071102
H        -4.08698291    -1.68486213     0.37558083     0.00029483     0.00114099    -0.00056317
C        -3.99521636     0.51657596    -0.00028819    -0.00054130    -0.00004482     0.00037663
C        -2.62726057     0.61362812     0.18356107     0.00031085     0.00048473    -0.00019308
H        -4.66360146     1.36075650    -0.23737439     0.00006881    -0.00066796     0.00011349
H        -2.11975878    -0.35737738     0.53561211    -0.00149116    -0.00014998     0.00019297
C        -1.81201003     1.75769657     0.01893436     0.00033311    -0.00020473    -0.00004888
H        -2.20763072     2.76479616    -0.11100418     0.00037655    -0.00184454    -0.00031843
N        -0.49828971     1.67566233     0.16357954    -0.00014844    -0.00007407     0.00010482
H         0.03957874     2.53960383     0.11704318    -0.00001744     0.00096724    -0.00083204
H        -0.12788981     0.79964553     0.51274845    -0.00117647    -0.00127939     0.00004691
    14
  Step:     6            Position(A)                                  Velocity(au)
C        -5.95881830    -0.83796426    -0.15497674    -0.00030265    -0.00033115    -0.00031534
C        -4.63601038    -0.73324132     0.11302524     0.00053017     0.00031105     0.00005382
H        -6.63333613    -0.00613420    -0.41598674    -0.00076476     0.00051009     0.00069126
H        -6.46538322    -1.75224233     0.03572059     0.00065019    -0.00054407     0.00070692
H        -4.08405442    -1.67100356     0.36916413     0.00025643     0.00136458    -0.00060081
C        -4.00151559     0.51607751     0.00379400    -0.00060979    -0.00004728     0.00036951
C        -2.62340127     0.61888185     0.18155478     0.00039518     0.00047549    -0.00017316
H        -4.66214474     1.35344327    -0.23601445     0.00017505    -0.00064418     0.00013105
H        -2.13662395    -0.35728871     0.53704344    -0.00157473     0.00016394     0.00007041
C        -1.80862380     1.75544825     0.01840548     0.00028534    -0.00021153    -0.00004744
H        -2.20378673     2.74438212    -0.11492493     0.00030570    -0.00182569    -0.00040966
N        -0.49973575     1.67487218     0.16474808    -0.00011261    -0.00006964     0.00010963
H         0.03972314     2.54963217     0.10818196     0.00002344     0.00081998    -0.00078288
H        -0.14011427     0.78579421     0.51313481    -0.00106024    -0.00121935     0.00001188
    14
  Step:     7            Position(A)                                  Velocity(au)
C        -5.96242356    -0.84156209    -0.15842586    -0.00035376    -0.00032493    -0.00031426
C        -4.63002235    -0.72989805     0.11361556     0.00055925     0.00030309     0.00005223
H        -6.64096425    -0.00068596    -0.40854806    -0.00061889     0.00046402     0.00067213
H        -6.45887871    -1.75935031     0.04341495     0.00053651    -0.00075222     0.00069590
H        -4.08137307    -1.65500930     0.36243692     0.00025460     0.00152274    -0.00061828
C        -4.00855670     0.51554169     0.00779562    -0.00067574    -0.00005215     0.00036217
C        -2.61861528     0.62403039     0.17977281     0.00047830     0.00046543    -0.00015238
H        -4.65977201     1.34666375    -0.23450736     0.00023337    -0.00056819     0.00013885
H        -2.15420894    -0.35379081     0.53715244    -0.00161845     0.00046431    -0.00004557
C        -1.80576769     1.75306891     0.01789650     0.00023735    -0.00022803    -0.00004523
H        -2.20094292     2.72485578    -0.11996622     0.00019322    -0.00168160    -0.00052341
N        -0.50075331     1.67413871     0.16597801    -0.00007103    -0.00006413     0.00011590
H         0.04009145     2.55754252     0.09991616     0.00002884     0.00059051    -0.00072378
H        -0.15108467     0.77296993     0.51300825    -0.00094615    -0.00109539    -0.00004515
    14
  Step:     8            Position(A)                                  Velocity(au)
C        -5.96655753    -0.84507274    -0.16185168    -0.00039968    -0.00031646    -0.00031093
C        -4.62377572    -0.72661073     0.11416787     0.00057719     0.00030105     0.00004694
H        -6.64687544     0.00401712    -0.40128259    -0.00045544     0.00037846     0.00065798
H        -6.45364593    -1.76869860     0.05094467     0.00042233    -0.00094393     0.00067541
H        -4.07848454    -1.63769064     0.35563796     0.00029854     0.00159922    -0.00061274
C        -4.01629866     0.51493652     0.01171718    -0.00073518    -0.00005931     0.00035519
C        -2.61293747     0.62906398     0.17822128     0.00055451     0.00045371    -0.00013141
H        -4.65703938     1.34101308    -0.23297684     0.00023993    -0.00043792     0.00013403
H        -2.17203071    -0.34713105     0.53604650    -0.00161415     0.00073248    -0.00014844
C        -1.80343135     1.75045956     0.01741597     0.00019153    -0.00025158    -0.00004245
H        -2.19955971     2.70759382    -0.12637562     0.00004137    -0.00141932    -0.00065829
N        -0.50128976     1.67346917     0.16728353    -0.00002562    -0.00005840     0.00012326
H         0.04035396     2.56255064     0.09234783     0.00001037     0.00030175    -0.00065633
H        -0.16081320     0.76183055     0.51214708    -0.00083148    -0.00091735    -0.00011968
    14
  Step:     9            Position(A)                                  Velocity(au)
C        -5.97116739    -0.84848516    -0.16522796    -0.00044056    -0.00030809    -0.00030496
C        -4.61739524    -0.72331201     0.11464256     0.00058290     0.00030454     0.00003812
H        -6.65092796     0.00759351    -0.39415355    -0.00028391     0.00026329     0.00064565
H        -6.44963952    -1.78000069     0.05819082     0.00031611    -0.00110125     0.00064258
H        -4.07484199    -1.62002327     0.34903214     0.00039491     0.00158219    -0.00058249
C        -4.02464028     0.51424416     0.01556598    -0.00078256    -0.00006665     0.00034903
C        -2.60648420     0.63395609     0.17689785     0.00061636     0.00043879    -0.00011104
H        -4.65452301     1.33708343    -0.23157519     0.00019543    -0.00025659     0.00011505
H        -2.18952156    -0.33776648     0.53390512    -0.00155482     0.00094899    -0.00023156
C        -1.80157750     1.74756504     0.01696780     0.00014998    -0.00027741    -0.00003968
H        -2.20003790     2.69380544    -0.13436749    -0.00014059    -0.00106307    -0.00080970
N        -0.50131371     1.67286108     0.16867464     0.00002172    -0.00005328     0.00013133
H         0.04031829     2.56414378     0.08555765    -0.00001897    -0.00002062    -0.00058273
H        -0.16927486     0.75290105     0.51039006    -0.00071247    -0.00069908    -0.00020555
    14
  Step:    10            Position(A)                                  Velocity(au)
C        -5.97619570    -0.85181280    -0.16852325    -0.00047572    -0.00030186    -0.00029587
C        -4.61102376    -0.71994837     0.11500188     0.00057484     0.00031182     0.00002598
H        -6.65308641     0.00977703    -0.38715770    -0.00011404     0.00012945     0.00063219
H        -6.44673048    -1.79279045     0.06500233     0.00022417    -0.00121031     0.00059472
H        -4.06984522    -1.60307730     0.34289482     0.00054569     0.00146800    -0.00052778
C        -4.03341863     0.51347845     0.01935297    -0.00081346    -0.00007109     0.00034382
C        -2.59945352     0.63866346     0.17579213     0.00065772     0.00041964    -0.00009189
H        -4.65276407     1.33539975    -0.23045996     0.00010581    -0.00003362     0.00008294
H        -2.20604538    -0.32637008     0.53098075    -0.00143538     0.00109471    -0.00028840
C        -1.80015030     1.74439070     0.01654795     0.00011382    -0.00029984    -0.00003770
H        -2.20263548     2.68433714    -0.14408938    -0.00033638    -0.00065298    -0.00097027
N        -0.50081470     1.67230352     0.17015672     0.00006903    -0.00004945     0.00013969
H         0.03993901     2.56209949     0.07959944    -0.00004561    -0.00034986    -0.00050572
H        -0.17639986     0.74653682     0.50765019    -0.00058498    -0.00045725    -0.00029579
    14
  Step:    11            Position(A)                                  Velocity(au)
C        -5.98157473    -0.85508897    -0.17170069    -0.00050421    -0.00029935    -0.00028326
C        -4.60481957    -0.71649035     0.11521095     0.00055217     0.00032032     0.00001089
H        -6.65342278     0.01042546    -0.38032311     0.00004450    -0.00001157     0.00061488
H        -6.44473546    -1.80647854     0.07120135     0.00014995    -0.00126288     0.00053002
H        -4.06290403    -1.58790790     0.33748596     0.00074593     0.00126462    -0.00045159
C        -4.04243631     0.51268895     0.02308772    -0.00082607    -0.00006941     0.00033924
C        -2.59209527     0.64313651     0.17488762     0.00067530     0.00039605    -0.00007441
H        -4.65220829     1.33634791    -0.22976075    -0.00001773     0.00021527     0.00004161
H        -2.22092333    -0.31381762     0.52759591    -0.00125354     0.00115275    -0.00031309
C        -1.79908744     1.74100546     0.01614294     0.00008328    -0.00031330    -0.00003743
H        -2.20739688     2.67952015    -0.15559390    -0.00052504    -0.00023852    -0.00113047
N        -0.49980346     1.67177917     0.17173069     0.00011440    -0.00004742     0.00014795
H         0.03932038     2.55648993     0.07449399    -0.00005590    -0.00065926    -0.00042860
H        -0.18207244     0.74289785     0.50391918    -0.00044494    -0.00021030    -0.00038319
    14
  Step:    12            Position(A)                                  Velocity(au)
C        -5.98722630    -0.85836155    -0.17472004    -0.00052513    -0.00030164    -0.00026690
C        -4.59894406    -0.71294076     0.11524022     0.00051520     0.00032674    -0.00000653
H        -6.65211295     0.00952396    -0.37370595     0.00018256    -0.00014818     0.00059137
H        -6.44345009    -1.82041833     0.07659760     0.00009410    -0.00125656     0.00044802
H        -4.05352651    -1.57541128     0.33301538     0.00098249     0.00099317    -0.00036007
C        -4.05149042     0.51195994     0.02677451    -0.00082074    -0.00005858     0.00033472
C        -2.58468014     0.64732782     0.17416433     0.00066818     0.00036831    -0.00005880
H        -4.65315197     1.34010928    -0.22954968    -0.00016006     0.00046952    -0.00000284
H        -2.23346895    -0.30115156     0.52413128    -0.00101067     0.00111146    -0.00030159
C        -1.79832845     1.73753659     0.01572909     0.00005808    -0.00031303    -0.00003975
H        -2.21412183     2.67911897    -0.16882065    -0.00068527     0.00013164    -0.00127984
N        -0.49831200     1.67126615     0.17339351     0.00015590    -0.00004752     0.00015579
H         0.03871614     2.54767684     0.07022304    -0.00003659    -0.00092323    -0.00035512
H        -0.18613370     0.74193600     0.49926713    -0.00028875     0.00002269    -0.00046091
    14
  Step:    13            Position(A)                                  Velocity(au)
C        -5.99306286    -0.86168783    -0.17753966    -0.00053768    -0.00030938    -0.00024677
C        -4.59354865    -0.70934232     0.11506813     0.00046535     0.00032724    -0.00002546
H        -6.64942896     0.00718371    -0.36738578     0.00029189    -0.00026919     0.00055974
H        -6.44267674    -1.83396816     0.08100254     0.00005504    -0.00119419     0.00034951
H        -4.04141025    -1.56618040     0.32960875     0.00123464     0.00068618    -0.00026197
C        -4.06039153     0.51140737     0.03041025    -0.00079918    -0.00003597     0.00032956
C        -2.57747750     0.65119405     0.17360133     0.00063725     0.00033666    -0.00004499
H        -4.65570988     1.34661965    -0.22982298    -0.00030448     0.00070653    -0.00004327
H        -2.24303360    -0.28950238     0.52099799    -0.00071266     0.00096838    -0.00025316
C        -1.79781688     1.73415729     0.01527333     0.00003789    -0.00029572    -0.00004542
H        -2.22238842     2.68240005    -0.18359285    -0.00079979     0.00041940    -0.00140852
N        -0.49639288     1.67073966     0.17513880     0.00019177    -0.00004993     0.00016292
H         0.03851996     2.53629260     0.06672498     0.00002420    -0.00111880    -0.00028929
H        -0.18838944     0.74339414     0.49383591    -0.00011369     0.00022322    -0.00052284
    14
  Step:    14            Position(A)                                  Velocity(au)
C        -5.99898911    -0.86512972    -0.18011870    -0.00054125    -0.00032278    -0.00022303
C        -4.58876356    -0.70578165     0.11468315     0.00040489     0.00031801    -0.00004499
H        -6.64572741     0.00363498    -0.36146048     0.00036554    -0.00036438     0.00051861
H        -6.44224609    -1.84654359     0.08424378     0.00002951    -0.00108284     0.00023652
H        -4.02651637    -1.56039977     0.32728421     0.00147702     0.00038218    -0.00016729
C        -4.06897408     0.51117308     0.03398425    -0.00076377     0.00000032     0.00032314
C        -2.57073906     0.65469296     0.17318015     0.00058467     0.00030091    -0.00003258
H        -4.65981303     1.35556601    -0.23049630    -0.00043547     0.00090530    -0.00007275
H        -2.24905986    -0.27996631     0.51859288    -0.00037036     0.00073364    -0.00017167
C        -1.79749950     1.73106725     0.01473541     0.00002253    -0.00025993    -0.00005494
H        -2.23161880     2.68829422    -0.19963465    -0.00085822     0.00060295    -0.00150890
N        -0.49411660     1.67017387     0.17695760     0.00022059    -0.00005461     0.00016914
H         0.03924551     2.52320100     0.06389418     0.00013564    -0.00122805    -0.00023491
H        -0.18862085     0.74681931     0.48782897     0.00008181     0.00037476    -0.00056407
    14
  Step:    15            Position(A)                                  Velocity(au)
C        -6.00490380    -0.86874919    -0.18241893    -0.00053543    -0.00034165    -0.00019599
C        -4.58469099    -0.70238524     0.11408380     0.00033647     0.00029598    -0.00006427
H        -6.64143202    -0.00078790    -0.35604030     0.00039858    -0.00042551     0.00046717
H        -6.44203115    -1.85765746     0.08617696     0.00001334    -0.00093260     0.00011201
H        -4.00909763    -1.55781947     0.32594898     0.00168421     0.00011801    -0.00008534
C        -4.07710054     0.51141427     0.03747963    -0.00071708     0.00005104     0.00031502
C        -2.56468663     0.65777713     0.17288854     0.00051360     0.00026031    -0.00002085
H        -4.66523664     1.36642488    -0.23141457    -0.00054096     0.00104974    -0.00008577
H        -2.25113602    -0.27345262     0.51724235     0.00000085     0.00043119    -0.00006609
C        -1.79732405     1.72847092     0.01407145     0.00001194    -0.00020615    -0.00006846
H        -2.24116366     2.69559079    -0.21660291    -0.00085758     0.00067718    -0.00157651
N        -0.49156711     1.66954487     0.17883908     0.00024144    -0.00006121     0.00017433
H         0.04148726     2.50942669     0.06158586     0.00030214    -0.00124135    -0.00019497
H        -0.18659979     0.75159276     0.48149579     0.00029764     0.00046456    -0.00058139
    14
  Step:    16            Position(A)                                  Velocity(au)
C        -6.01070274    -0.87260396    -0.18440641    -0.00052011    -0.00036540    -0.00016611
C        -4.58140270    -0.69930650     0.11327701     0.00026278     0.00025956    -0.00008267
H        -6.63700768    -0.00567389    -0.35124029     0.00038881    -0.00044741     0.00040539
H        -6.44195420    -1.86694597     0.08669416     0.00000194    -0.00075543    -0.00002046
H        -3.98967095    -1.55781806     0.32541719     0.00183542    -0.00007822    -0.00002315
C        -4.08466149     0.51228958     0.04087590    -0.00066157     0.00011562     0.00030499
C        -2.55950316     0.66038781     0.17272402     0.00042784     0.00021370    -0.00000881
H        -4.67164757     1.37853106    -0.23237266    -0.00061353     0.00113067    -0.00007894
H        -2.24904132    -0.27053317     0.51714695     0.00038232     0.00009661     0.00005034
C        -1.79723818     1.72655739     0.01323782     0.00000611    -0.00013649    -0.00008579
H        -2.25038007     2.70310883    -0.23412375    -0.00080097     0.00065012    -0.00161000
N        -0.48883462     1.66883476     0.18077130     0.00025418    -0.00006896     0.00017839
H         0.04585536     2.49604399     0.05962875     0.00052115    -0.00116065    -0.00017097
H        -0.18210937     0.75698253     0.47510987     0.00053158     0.00048576    -0.00057389
    14
  Step:    17            Position(A)                                  Velocity(au)
C        -6.01628230    -0.87674291    -0.18605288    -0.00049553    -0.00039298    -0.00013396
C        -4.57894214    -0.69670680     0.11227512     0.00018624     0.00020898    -0.00009985
H        -6.63292610    -0.01057585    -0.34717150     0.00033739    -0.00042910     0.00033408
H        -6.44198868    -1.87418384     0.08572930    -0.00000936    -0.00056441    -0.00015691
H        -3.96894427    -1.55953079     0.32544245     0.00191734    -0.00019097     0.00001538
C        -4.09157374     0.51394368     0.04415190    -0.00059955     0.00019212     0.00029313
C        -2.55532683     0.66245232     0.17269572     0.00033160     0.00015998     0.00000456
H        -4.67865868     1.39116040    -0.23314146    -0.00065044     0.00114624    -0.00005120
H        -2.24277214    -0.27133910     0.51834356     0.00075417    -0.00022893     0.00016236
C        -1.79719038     1.72548504     0.01219470     0.00000483    -0.00005423    -0.00010646
H        -2.25868650     2.70981350    -0.25182471    -0.00069548     0.00053810    -0.00161063
N        -0.48600639     1.66803633     0.18274179     0.00025957    -0.00007669     0.00018132
H         0.05288844     2.48403533     0.05784557     0.00078157    -0.00100130    -0.00016225
H        -0.17497038     0.76221976     0.46894094     0.00077878     0.00043930    -0.00054331
    14
  Step:    18            Position(A)                                  Velocity(au)
C        -6.02154344    -0.88120118    -0.18733697    -0.00046230    -0.00042292    -0.00010021
C        -4.57732829    -0.69473473     0.11109265     0.00010888     0.00014622    -0.00011572
H        -6.62962652    -0.01506128    -0.34393160     0.00024927    -0.00037460     0.00025489
H        -6.44215907    -1.87929359     0.08326153    -0.00002514    -0.00037325    -0.00029313
H        -3.94772548    -1.56199594     0.32575370     0.00192490    -0.00021737     0.00002946
C        -4.09777784     0.51649249     0.04728859    -0.00053309     0.00027736     0.00027971
C        -2.55224870     0.66388765     0.17282376     0.00022918     0.00009865     0.00002013
H        -4.68587723     1.40360728    -0.23349286    -0.00065278     0.00110084    -0.00000354
H        -2.23254238    -0.27554144     0.52069889     0.00109762    -0.00050657     0.00025565
C        -1.79713258     1.72537095     0.01090879     0.00000764     0.00003657    -0.00012979
H        -2.26559509     2.71488072    -0.26935943    -0.00055022     0.00036126    -0.00158149
N        -0.48315607     1.66715710     0.18473807     0.00025928    -0.00008299     0.00018313
H         0.06295373     2.47413855     0.05607926     0.00106367    -0.00079132    -0.00016579
H        -0.16507199     0.76659313     0.46322392     0.00103147     0.00033507    -0.00049422
    14
  Step:    19            Position(A)                                  Velocity(au)
C        -6.02639594    -0.88599502    -0.18824523    -0.00042138    -0.00045327    -0.00006563
C        -4.57656017    -0.69350790     0.10974363     0.00003235     0.00007470    -0.00013040
H        -6.62747275    -0.01877100    -0.34159532     0.00013307    -0.00029317     0.00017028
H        -6.44253877    -1.88234948     0.07931662    -0.00004973    -0.00019578    -0.00042489
H        -3.92683345    -1.56428617     0.32608686     0.00186003    -0.00016456     0.00002066
C        -4.10323608     0.52001145     0.05027101    -0.00046409     0.00036729     0.00026516
C        -2.55031311     0.66461044     0.17313600     0.00012471     0.00003031     0.00003836
H        -4.69293943     1.41524333    -0.23321897    -0.00062427     0.00100344     0.00006156
H        -2.21875954    -0.28242122     0.52393641     0.00139691    -0.00070678     0.00031943
C        -1.79702332     1.72628502     0.00935524     0.00001380     0.00013146    -0.00015495
H        -2.27072364     2.71771670    -0.28642284    -0.00037501     0.00014075    -0.00152684
N        -0.48033405     1.66622080     0.18674811     0.00025576    -0.00008650     0.00018388
H         0.07615823     2.46672373     0.05421868     0.00134136    -0.00056680    -0.00017659
H        -0.15240504     0.76955014     0.45812896     0.00127898     0.00019161    -0.00043356
    14
  Step:    20            Position(A)                                  Velocity(au)
C        -6.03076186    -0.89111729    -0.18877282    -0.00037401    -0.00048178    -0.00003101
C        -4.57662056    -0.69310062     0.10823994    -0.00004200    -0.00000136    -0.00014412
H        -6.62671527    -0.02147483    -0.34020636     0.00000030    -0.00019839     0.00008333
H        -6.44324701    -1.88357665     0.07396623    -0.00008709    -0.00004547    -0.00054815
H        -3.90703383    -1.56559605     0.32620558     0.00172953    -0.00004598    -0.00000794
C        -4.10793070     0.52452763     0.05308954    -0.00039430     0.00045733     0.00025000
C        -2.54952042     0.66455083     0.17366302     0.00002201    -0.00004319     0.00005929
H        -4.69953436     1.42555939    -0.23214608    -0.00057035     0.00086601     0.00014062
H        -2.20198226    -0.29100367     0.52768710     0.00164047    -0.00081305     0.00034784
C        -1.79683065     1.72824695     0.00751895     0.00002239     0.00022586    -0.00018101
H        -2.27379905     2.71795997    -0.30276198    -0.00017973    -0.00010259    -0.00145178
N        -0.47756093     1.66526481     0.18876085     0.00025178    -0.00008625     0.00018369