     6
  Step:     0            Position(A)                                  Velocity(au)
C        -0.04204126     0.02425563    -0.00540023     0.00011705     0.00004821     0.00003639
N        -0.04072428    -0.05652392     1.31199677     0.00015544     0.00016889     0.00002419
H         0.96602723    -0.00700334    -0.48967704    -0.00025164    -0.00024699    -0.00015951
H         0.80159661    -0.12390768     1.81133855    -0.00155216    -0.00118084    -0.00053750
H        -0.94564135    -0.06261612     1.94314216    -0.00065371    -0.00073886     0.00032583
H        -0.96803534     0.02019386    -0.54038171    -0.00109733    -0.00075481    -0.00039869
     6
  Step:     1            Position(A)                                  Velocity(au)
C        -0.04068593     0.02480426    -0.00511122     0.00012597     0.00005201     0.00001432
N        -0.03933890    -0.05467956     1.31249103     0.00009113     0.00016943     0.00006320
H         0.96325633    -0.00967178    -0.49212947    -0.00025075    -0.00024023    -0.00029213
H         0.78714461    -0.13708823     1.80739091    -0.00101077    -0.00124442    -0.00013605
H        -0.95059400    -0.07062426     1.94512710    -0.00023833    -0.00072335     0.00002582
H        -0.98126187     0.01188280    -0.54627986    -0.00126769    -0.00076632    -0.00064661
     6
  Step:     2            Position(A)                                  Velocity(au)
C        -0.03928534     0.02539347    -0.00508705     0.00012583     0.00005549    -0.00001166
N        -0.03873058    -0.05281727     1.31337947     0.00001759     0.00017202     0.00009717
H         0.96054162    -0.01225893    -0.49606790    -0.00024425    -0.00023196    -0.00042987
H         0.77948416    -0.15113164     1.80836221    -0.00035832    -0.00133608     0.00033135
H        -0.95085530    -0.07844082     1.94370694     0.00018994    -0.00070386    -0.00028590
H        -0.99576848     0.00342905    -0.55452762    -0.00133119    -0.00077993    -0.00082699
     6
  Step:     3            Position(A)                                  Velocity(au)
C        -0.03793313     0.02601826    -0.00536628     0.00011810     0.00005839    -0.00004057
N        -0.03895415    -0.05091622     1.31461671    -0.00005605     0.00017609     0.00012836
H         0.95791300    -0.01474628    -0.50153377    -0.00023805    -0.00022180    -0.00056973
H         0.77930560    -0.16631754     1.81463975     0.00030037    -0.00144640     0.00079734
H        -0.94643862    -0.08602253     1.93887259     0.00060254    -0.00068091    -0.00058746
H        -1.01038427    -0.00517956    -0.56437184    -0.00129323    -0.00079381    -0.00094062
     6
  Step:     4            Position(A)                                  Velocity(au)
C        -0.03670167     0.02667089    -0.00597459     0.00010489     0.00006048    -0.00007111
N        -0.03995685    -0.04896489     1.31618768    -0.00012038     0.00018065     0.00015918
H         0.95533376    -0.01711124    -0.50853176    -0.00023800    -0.00020940    -0.00070812
H         0.78605542    -0.18277451     1.82580560     0.00085977    -0.00155916     0.00119290
H        -0.93767356    -0.09333702     1.93085523     0.00096903    -0.00065605    -0.00085598
H        -1.02406026    -0.01393697    -0.57510540    -0.00116790    -0.00080652    -0.00099356
     6
  Step:     5            Position(A)                                  Velocity(au)
C        -0.03563842     0.02734127    -0.00692206     0.00008842     0.00006156    -0.00010181
N        -0.04158762    -0.04696406     1.31809915    -0.00016767     0.00018467     0.00019061
H         0.95270637    -0.01932731    -0.51702515    -0.00024896    -0.00019445    -0.00084124
H         0.79811480    -0.20042716     1.84073668     0.00124292    -0.00165638     0.00146642
H        -0.92523929    -0.10037488     1.92014647     0.00125556    -0.00063201    -0.00106654
H        -1.03593442    -0.02282374    -0.58610778    -0.00097318    -0.00081701    -0.00099442
     6
  Step:     6            Position(A)                                  Velocity(au)
C        -0.03476726     0.02801753    -0.00820181     0.00007062     0.00006150    -0.00013113
N        -0.04362492    -0.04492481     1.32035769    -0.00019296     0.00018748     0.00022154
H         0.94988718    -0.02136521    -0.52693540    -0.00027420    -0.00017669    -0.00096536
H         0.81324667    -0.21901098     1.85788627     0.00141646    -0.00172381     0.00159428
H        -0.91020584    -0.10716353     1.90752256     0.00142504    -0.00061297    -0.00119256
H        -1.04535035    -0.03181064    -0.59686024    -0.00072733    -0.00082467    -0.00095247
     6
  Step:     7            Position(A)                                  Velocity(au)
C        -0.03409356     0.02868660    -0.00979086     0.00005289     0.00006021    -0.00015771
N        -0.04580898    -0.04286258     1.32294577    -0.00019404     0.00018898     0.00024914
H         0.94670764    -0.02319280    -0.53814426    -0.00031495    -0.00015591    -0.00107713
H         0.82910268    -0.23813870     1.87561454     0.00138704    -0.00175400     0.00157943
H        -0.89406386    -0.11378477     1.89405699     0.00144106    -0.00060441    -0.00120878
H        -1.05184618    -0.04086504    -0.60694484    -0.00044698    -0.00082929    -0.00087648
     6
  Step:     8            Position(A)                                  Velocity(au)
C        -0.03361016     0.02933475    -0.01165204     0.00003615     0.00005767    -0.00018036
N        -0.04786989    -0.04079061     1.32580814    -0.00017107     0.00018956     0.00027007
H         0.94299707    -0.02477611    -0.55049965    -0.00037034    -0.00013193    -0.00117382
H         0.84359080    -0.25738308     1.89243927     0.00118635    -0.00174620     0.00144229
H        -0.87867991    -0.12038626     1.88107820     0.00127707    -0.00061236    -0.00109790
H        -1.05512881    -0.04995299    -0.61603495    -0.00014654    -0.00083092    -0.00077445
     6
  Step:     9            Position(A)                                  Velocity(au)
C        -0.03330281     0.02994822    -0.01373655     0.00002083     0.00005389    -0.00019819
N        -0.04955148    -0.03871566     1.32885402    -0.00012643     0.00018985     0.00028188
H         0.93860573    -0.02607905    -0.56382388    -0.00043764    -0.00010456    -0.00125347
H         0.85505639    -0.27634025     1.90716735     0.00085592    -0.00170438     0.00121072
H        -0.86612545    -0.12718133     1.87003832     0.00092894    -0.00064161    -0.00085911
H        -1.05505192    -0.05904301    -0.62388738     0.00016145    -0.00082993    -0.00065365
     6
  Step:    10            Position(A)                                  Velocity(au)
C        -0.03315446     0.03051372    -0.01598790     0.00000707     0.00004894    -0.00021069
N        -0.05063574    -0.03663726     1.33197479    -0.00006480     0.00019039     0.00028414
H         0.93342290    -0.02706347    -0.57792168    -0.00051266    -0.00007354    -0.00131481
H         0.86231578    -0.29466964     1.91892599     0.00043673    -0.00163513     0.00091287
H        -0.85835758    -0.13442271     1.86228359     0.00042629    -0.00069322    -0.00051528
H        -1.05159675    -0.06810920    -0.63033482     0.00046592    -0.00082700    -0.00052080
     6
  Step:    11            Position(A)                                  Velocity(au)
C        -0.03314814     0.03101882    -0.01834572    -0.00000520     0.00004291    -0.00021762
N        -0.05096916    -0.03455057     1.33507007     0.00000692     0.00019135     0.00027866
H         0.92739029    -0.02768798    -0.59258797    -0.00059025    -0.00003851    -0.00135727
H         0.86461061    -0.31211193     1.92713819    -0.00003537    -0.00154625     0.00057393
H        -0.85679959    -0.14234691     1.85876553    -0.00016516    -0.00076239    -0.00011358
H        -1.04485910    -0.07713527    -0.63528085     0.00075665    -0.00082326    -0.00038228
     6
  Step:    12            Position(A)                                  Velocity(au)
C        -0.03326825     0.03145236    -0.02074885    -0.00001611     0.00003592    -0.00021902
N        -0.05048444    -0.03245109     1.33807096     0.00008050     0.00019254     0.00026880
H         0.92051013    -0.02790601    -0.60761446    -0.00066477     0.00000116    -0.00138074
H         0.86154194    -0.32849687     1.93148186    -0.00052978    -0.00144627     0.00021575
H        -0.86197086    -0.15110149     1.85979874    -0.00075582    -0.00083820     0.00028390
H        -1.03504361    -0.08611959    -0.63869802     0.00102366    -0.00082033    -0.00024446
     6
  Step:    13            Position(A)                                  Velocity(au)
C        -0.03350049     0.03180458    -0.02313721    -0.00002570     0.00002811    -0.00021502
N        -0.04920812    -0.03033844     1.34095053     0.00014790     0.00019357     0.00025809
H         0.91284724    -0.02766258    -0.62279425    -0.00073067     0.00004645    -0.00138547
H         0.85302061    -0.34375185     1.93185818    -0.00101912    -0.00134487    -0.00014182
H        -0.87333455    -0.16068412     1.86497643    -0.00125598    -0.00090607     0.00061673
H        -1.02246461    -0.09508150    -0.64062890     0.00125667    -0.00082048    -0.00011386
     6
  Step:    14            Position(A)                                  Velocity(au)
C        -0.03383039     0.03206740    -0.02545284    -0.00003385     0.00001965    -0.00020585
N        -0.04724884    -0.02821641     1.34371720     0.00020277     0.00019426     0.00024892
H         0.90452535    -0.02688987    -0.63792430    -0.00078299     0.00009880    -0.00137182
H         0.83924680    -0.35791850     1.92837935    -0.00147647    -0.00125387    -0.00047910
H        -0.88944777    -0.17092347     1.87329079    -0.00159979    -0.00095188     0.00084187
H        -1.00755161    -0.10406913    -0.64118893     0.00144491    -0.00082677     0.00000277
     6
  Step:    15            Position(A)                                  Velocity(au)
C        -0.03424113     0.03223446    -0.02764054    -0.00004023     0.00001069    -0.00019181
N        -0.04477217    -0.02608863     1.34639616     0.00024114     0.00019498     0.00024184
H         0.89571780    -0.02550112    -0.65280551    -0.00081787     0.00016032    -0.00134004
H         0.82072003    -0.37118273     1.92137687    -0.00187303    -0.00118857    -0.00077503
H        -0.90833298    -0.18150837     1.88339398    -0.00175777    -0.00096554     0.00094134
H        -0.99085452    -0.11316872    -0.64056839     0.00157707    -0.00084323     0.00009848
     6
  Step:    16            Position(A)                                  Velocity(au)
C        -0.03471042     0.03230135    -0.02964899    -0.00004419     0.00000142    -0.00017340
N        -0.04197351    -0.02395083     1.34900799     0.00026120     0.00019685     0.00023576
H         0.88663289    -0.02338256    -0.66724031    -0.00083299     0.00023400    -0.00129004
H         0.79827077    -0.38392084     1.91142401    -0.00217729    -0.00116907    -0.00100666
H        -0.92790233    -0.19204645     1.89388445    -0.00173478    -0.00094226     0.00092007
H        -0.97305018    -0.12251650    -0.63903441     0.00164197    -0.00087507     0.00016667
     6
  Step:    17            Position(A)                                  Velocity(au)
C        -0.03520798     0.03226549    -0.03143408    -0.00004493    -0.00000802    -0.00015162
N        -0.03905797    -0.02178226     1.35155379     0.00026259     0.00020169     0.00022874
H         0.87749453    -0.02038194    -0.68102769    -0.00082805     0.00032420    -0.00122116
H         0.77308772    -0.39675846     1.89935424    -0.00235731    -0.00122093    -0.00115093
H        -0.94628461    -0.20212206     1.90352226    -0.00155842    -0.00088149     0.00079801
H        -0.95493323    -0.13231259    -0.63692210     0.00163002    -0.00092909     0.00020211
     6
  Step:    18            Position(A)                                  Velocity(au)
C        -0.03569325     0.03212590    -0.03296600    -0.00003689    -0.00001775    -0.00016738
N        -0.03622881    -0.01953840     1.35401204     0.00024285     0.00021474     0.00024888
H         0.86851780    -0.01629006    -0.69395554    -0.00083975     0.00052531    -0.00109359
H         0.74670019    -0.41063110     1.88624517    -0.00241514    -0.00148377    -0.00123816
H        -0.96199586    -0.21133065     1.91134247    -0.00124298    -0.00071009     0.00061748
H        -0.93739031    -0.14284220    -0.63461278     0.00156262    -0.00110411     0.00025018
     6
  Step:    19            Position(A)                                  Velocity(au)
C        -0.03601491     0.03187708    -0.03509594    -0.00001964    -0.00002615    -0.00023338
N        -0.03374511    -0.01708434     1.35699857     0.00020232     0.00023521     0.00030609
H         0.85912346    -0.00888975    -0.70495213    -0.00086947     0.00082086    -0.00090355
H         0.72025196    -0.42921871     1.87226711    -0.00233534    -0.00195029    -0.00127224
H        -0.97347721    -0.21765671     1.91703071    -0.00081263    -0.00043633     0.00038754
H        -0.92074797    -0.15646704    -0.63144896     0.00143999    -0.00139126     0.00031562
     6
  Step:    20            Position(A)                                  Velocity(au)
C        -0.03612300     0.03155372    -0.03807170     0.00000183    -0.00003186    -0.00031110
N        -0.03180267    -0.01439266     1.36070836     0.00014657     0.00025931     0.00037192
H         0.84949654     0.00166792    -0.71372253    -0.00087671     0.00110718    -0.00069791
H         0.69561018    -0.45329747     1.85841246    -0.00209968    -0.00249447    -0.00122004
H        -0.97977375    -0.22087621     1.91982061    -0.00031838    -0.00014491     0.00010727
H        -0.90588768    -0.17327859    -0.62770806     0.00123613    -0.00169169     0.00034930
     6
  Step:    21            Position(A)                                  Velocity(au)
C        -0.03597483     0.03118012    -0.04190179     0.00002630    -0.00003546    -0.00038532
N        -0.03053860    -0.01141147     1.36513504     0.00008198     0.00028763     0.00043442
H         0.83994380     0.01533183    -0.72022031    -0.00085236     0.00139065    -0.00049540
H         0.67431744    -0.48379011     1.84557643    -0.00175621    -0.00311187    -0.00110613
H        -0.98044244    -0.22082680     1.91937748     0.00019775     0.00015890    -0.00019004
H        -0.89370528    -0.19347592    -0.62380737     0.00095825    -0.00201219     0.00034615
     6
  Step:    22            Position(A)                                  Velocity(au)
C        -0.03554771     0.03077798    -0.04650129     0.00005143    -0.00003726    -0.00044965
N        -0.03000924    -0.00810025     1.37021206     0.00001677     0.00031793     0.00049014
H         0.83084962     0.03209098    -0.72456045    -0.00079060     0.00167444    -0.00030941
H         0.65718972    -0.52137566     1.83421369    -0.00138294    -0.00376456    -0.00097894
H        -0.97544762    -0.21740000     1.91566317     0.00069873     0.00046970    -0.00047849
H        -0.88492404    -0.21729908    -0.62013544     0.00062893    -0.00235374     0.00031370
     6
  Step:    23            Position(A)                                  Velocity(au)
C        -0.03484961     0.03036499    -0.05173882     0.00007415    -0.00003778    -0.00050107
N        -0.03017183    -0.00445615     1.37585775    -0.00003997     0.00034604     0.00053820
H         0.82264795     0.05196342    -0.72698918    -0.00068870     0.00196079    -0.00015053
H         0.64406307    -0.56614696     1.82416021    -0.00106793    -0.00438912    -0.00089294
H        -0.96515637    -0.21055123     1.90890963     0.00114587     0.00078114    -0.00073271
H        -0.87994623    -0.24496838    -0.61694449     0.00028260    -0.00271138     0.00026783
     6
  Step:    24            Position(A)                                  Velocity(au)
C        -0.03392544     0.02995155    -0.05746323     0.00009115    -0.00003785    -0.00053854
N        -0.03088372    -0.00053005     1.38198630    -0.00007993     0.00036715     0.00057776
H         0.81578302     0.07498698    -0.72785358    -0.00054800     0.00225111    -0.00002602
H         0.63382675    -0.61739612     1.81467894    -0.00088298    -0.00491339    -0.00088913
H        -0.95037953    -0.20031110     1.89963368     0.00149531     0.00108538    -0.00092515
H        -0.87874171    -0.27661574    -0.61427611    -0.00003968    -0.00307412     0.00022866
     6
  Step:    25            Position(A)                                  Velocity(au)
C        -0.03285555     0.02953690    -0.06352040     0.00009962    -0.00003860    -0.00056224
N        -0.03192054     0.00357587     1.38849742    -0.00009695     0.00037739     0.00060670
H         0.81065940     0.10121082    -0.72755833    -0.00037483     0.00254584     0.00006137
H         0.62474616    -0.67363682     1.80470872    -0.00086464    -0.00527740    -0.00098246
H        -0.93244360    -0.18680646     1.88867026     0.00169735     0.00137314    -0.00102567
H        -0.88081426    -0.31222072    -0.61194218    -0.00029777    -0.00342603     0.00021539
     6
  Step:    26            Position(A)                                  Velocity(au)
C        -0.03174607     0.02910717    -0.06976326     0.00009796    -0.00004115    -0.00057310
N        -0.03300459     0.00772600     1.39525905    -0.00008752     0.00037473     0.00062170
H         0.80758279     0.13068205    -0.72651110    -0.00018124     0.00284382     0.00011426
H         0.61491116    -0.73284930     1.79318566    -0.00101162    -0.00544773    -0.00116179
H        -0.91324678    -0.17027104     1.87719511     0.00170149     0.00163555    -0.00100467
H        -0.88525590    -0.35156679    -0.60956405    -0.00045978    -0.00374872     0.00024177
     6
  Step:    27            Position(A)                                  Velocity(au)
C        -0.03071248     0.02863669    -0.07605802     0.00008617    -0.00004637    -0.00057250
N        -0.03383513     0.01177374     1.40209837    -0.00005100     0.00035886     0.00061938
H         0.80669452     0.16342480    -0.72505875     0.00001511     0.00314163     0.00014097
H         0.60261501    -0.79281632     1.77929225    -0.00129580    -0.00541939    -0.00139938
H        -0.89522015    -0.15102571     1.86669120     0.00146960     0.00186782    -0.00084049
H        -0.89087289    -0.39423122    -0.60665308    -0.00050698    -0.00402450     0.00031357
     6
  Step:    28            Position(A)                                  Velocity(au)
C        -0.02986091     0.02809274    -0.08228777     0.00006581    -0.00005459    -0.00056213
N        -0.03412038     0.01557685     1.40880923     0.00001001     0.00033035     0.00059783
H         0.80791345     0.19941124    -0.72342704     0.00019239     0.00343300     0.00015442
H         0.58656313    -0.85140879     1.76257150    -0.00167719    -0.00520799    -0.00166227
H        -0.88109644    -0.12940890     1.85880776     0.00099620     0.00207364    -0.00053041
H        -0.89634712    -0.43961034    -0.60270410    -0.00043475    -0.00423890     0.00042886
     6
  Step:    29            Position(A)                                  Velocity(au)
C        -0.02927266     0.02744242    -0.08835573     0.00003956    -0.00006551    -0.00054391
N        -0.03361616     0.01900082     1.41517710     0.00008915     0.00028970     0.00055783
H         0.81090339     0.23852820    -0.72168061     0.00032748     0.00370861     0.00016969
H         0.56592335    -0.90675108     1.74292701    -0.00211568    -0.00483909    -0.00192031
H        -0.87342642    -0.10566088     1.85508749     0.00032808     0.00226734    -0.00010029
H        -0.90038386    -0.48696537    -0.59727093    -0.00025013    -0.00438204     0.00058024
     6
  Step:    30            Position(A)                                  Velocity(au)
C        -0.02899546     0.02665960    -0.09418675     0.00001055    -0.00007824    -0.00051981
N        -0.03217009     0.02191450     1.42101280     0.00017636     0.00023700     0.00050307
H         0.81507769     0.28054420    -0.71971484     0.00039972     0.00395672     0.00020100
H         0.54027867    -0.95727319     1.72056111    -0.00257675    -0.00433953    -0.00214962
H        -0.87391905    -0.07980655     1.85661373    -0.00043129     0.00247026     0.00039430
H        -0.90181922    -0.53547585    -0.59001028     0.00003186    -0.00444858     0.00075747
     6
  Step:    31            Position(A)                                  Velocity(au)
C        -0.02904192     0.02573073    -0.09972748    -0.00001823    -0.00009150    -0.00049172
N        -0.02975794     0.02418559     1.42618263     0.00025955     0.00017226     0.00043918
H         0.81964800     0.32508902    -0.71728327     0.00039440     0.00416448     0.00025892
H         0.50955201    -1.00168662     1.69589998    -0.00303242    -0.00373256    -0.00233269
H        -0.88286180    -0.05161923     1.86371353    -0.00114361     0.00270138     0.00088033
H        -0.89968675    -0.58428665    -0.58069980     0.00039195    -0.00443691     0.00094969
     6
  Step:    32            Position(A)                                  Velocity(au)
C        -0.02939419     0.02465793    -0.10494413    -0.00004433    -0.00010382    -0.00046133
N        -0.02649186     0.02568308     1.43062078     0.00032750     0.00009601     0.00037203
H         0.82370594     0.37165011    -0.71405043     0.00030485     0.00431945     0.00034885
H         0.47393866    -1.03893004     1.66952912    -0.00345964    -0.00303653    -0.00245705
H        -0.89893771    -0.02070866     1.87587256    -0.00167741     0.00296782     0.00128864
H        -0.89324450    -0.63254180    -0.56923405     0.00080936    -0.00434784     0.00114684
     6
  Step:    33            Position(A)                                  Velocity(au)
C        -0.03001169     0.02345945    -0.10981993    -0.00006606    -0.00011384    -0.00043001
N        -0.02259326     0.02628597     1.43432147     0.00037247     0.00000959     0.00030613
H         0.82631709     0.41958523    -0.70965157     0.00013296     0.00441095     0.00047092
H         0.43386566    -1.06811647     1.64214739    -0.00383780    -0.00226582    -0.00251381
H        -0.91955840     0.01330749     1.89190508    -0.00194695     0.00326153     0.00157251
H        -0.88198045    -0.67940398    -0.55561049     0.00126295    -0.00418346     0.00134015
     6
  Step:    34            Position(A)                                  Velocity(au)
C        -0.03083943     0.02216737    -0.11435134    -0.00008243    -0.00012051    -0.00039878
N        -0.01834329     0.02589296     1.43731799     0.00039126    -0.00008478     0.00024410
H         0.82661479     0.46814803    -0.70374812    -0.00011166     0.00443070     0.00062107
H         0.38997937    -1.08849920     1.61453473    -0.00414638    -0.00143354    -0.00249696
H        -0.94153106     0.05064357     1.91027432    -0.00192800     0.00356311     0.00171383
H        -0.86561501    -0.72406296    -0.53991574     0.00173111    -0.00394619     0.00152187
     6
  Step:    35            Position(A)                                  Velocity(au)
C        -0.03181499     0.02082301    -0.11854411    -0.00009304    -0.00012334    -0.00036823
N        -0.01403362     0.02443129     1.43966154     0.00038454    -0.00018396     0.00018695
H         0.82387435     0.51651536    -0.69606453    -0.00041330     0.00437297     0.00079242
H         0.34315558    -1.09947787     1.58752161    -0.00436387    -0.00055629    -0.00240407
H        -0.96173709     0.09125726     1.92939835    -0.00164896     0.00384755     0.00171681
H        -0.84410907    -0.76573442    -0.52231668     0.00219098    -0.00363824     0.00168458
     6
  Step:    36            Position(A)                                  Velocity(au)
C        -0.03287479     0.01946911    -0.12240700    -0.00009805    -0.00012265    -0.00033809
N        -0.00993066     0.02186857     1.44140795     0.00035566    -0.00028323     0.00013487
H         0.81757313     0.56381505    -0.68641232    -0.00075191     0.00423473     0.00097646
H         0.29451126    -1.10066913     1.56194116    -0.00446975     0.00033790    -0.00223854
H        -0.97760518     0.13481603     1.94783288    -0.00117039     0.00408717     0.00159640
H        -0.81768305    -0.80365650    -0.50306223     0.00261800    -0.00326243     0.00182000
     6
  Step:    37            Position(A)                                  Velocity(au)
C        -0.03395993     0.01813980    -0.12594041    -0.00009813    -0.00011957    -0.00030692
N        -0.00625291     0.01823502     1.44261218     0.00030968    -0.00037557     0.00008763
H         0.80742483     0.60915812    -0.67470268    -0.00110600     0.00401736     0.00116341
H         0.24537125    -1.09208565     1.53854932    -0.00445160     0.00119916    -0.00201143
H        -0.98734161     0.18067190     1.96432260    -0.00056454     0.00425299     0.00136953
H        -0.78683526    -0.83710632    -0.48250066     0.00298810    -0.00282574     0.00191801
     6
  Step:    38            Position(A)                                  Velocity(au)
C        -0.03502168     0.01685328    -0.12912148    -0.00009428    -0.00011529    -0.00027241
N        -0.00315585     0.01365233     1.44332494     0.00025244    -0.00045201     0.00004460
H         0.79337731     0.65170253    -0.66096039    -0.00145692     0.00372930     0.00134267
H         0.19712392    -1.07443527     1.51793717    -0.00431370     0.00194927    -0.00173808
H        -0.98995561     0.22785831     1.97779392     0.00010236     0.00432106     0.00105385
H        -0.75231256    -0.86547499    -0.46110209     0.00328368    -0.00234464     0.00196780
     6
  Step:    39            Position(A)                                  Velocity(au)
C        -0.03602243     0.01561766    -0.13189997    -0.00008726    -0.00010995    -0.00023272
N        -0.00073032     0.00834650     1.44358785     0.00018912    -0.00050369     0.00000484
H         0.77555197     0.69074369    -0.64532911    -0.00179210     0.00338589     0.00150396
H         0.15100071    -1.04944154     1.50052558    -0.00407634     0.00248735    -0.00142943
H        -0.98510235     0.27520325     1.98737765     0.00078254     0.00428234     0.00067013
H        -0.71499847    -0.88839979    -0.43945128     0.00349767    -0.00184608     0.00196114
     6
  Step:    40            Position(A)                                  Velocity(au)
C        -0.03693070     0.01444800    -0.13421272    -0.00007739    -0.00010238    -0.00018745
N         0.00098145     0.00263322     1.44343079     0.00012338    -0.00052348    -0.00003259
H         0.75417169     0.72577539    -0.62805839    -0.00210365     0.00300538     0.00163869
H         0.10794607    -1.02001966     1.48666572    -0.00376662     0.00270622    -0.00108799
H        -0.97283601     0.32154263     1.99245421     0.00144765     0.00414456     0.00024137
H        -0.67579438    -0.90586157    -0.41819829     0.00363021    -0.00136180     0.00189439
     6
  Step:    41            Position(A)                                  Velocity(au)
C        -0.03771539     0.01337801    -0.13600086    -0.00006458    -0.00009080    -0.00013730
N         0.00196886    -0.00310566     1.44287494     0.00005795    -0.00050673    -0.00006826
H         0.72953054     0.75649218    -0.60947969    -0.00238496     0.00260533     0.00174025
H         0.06859866    -0.99023789     1.47672374    -0.00341381     0.00251646    -0.00071239
H        -0.95343215     0.36587335     1.99265812     0.00208048     0.00392454    -0.00021058
H        -0.63558058    -0.91819167    -0.39800791     0.00368248    -0.00092267     0.00176726
     6
  Step:    42            Position(A)                                  Velocity(au)
C        -0.03834340     0.01246160    -0.13721641    -0.00004870    -0.00007361    -0.00008320
N         0.00224920    -0.00845251     1.44193749    -0.00000439    -0.00045283    -0.00010243
H         0.70199616     0.78277197    -0.58998703    -0.00262885     0.00220217     0.00180345
H         0.03326255    -0.96496728     1.47108089    -0.00305067     0.00188318    -0.00030334
H        -0.92732154     0.40739943     1.98784734     0.00266648     0.00364141    -0.00066638
H        -0.59523316    -0.92604674    -0.37953608     0.00365440    -0.00055700     0.00158102
     6
  Step:    43            Position(A)                                  Velocity(au)
C        -0.03878087     0.01176775    -0.13782108    -0.00002990    -0.00004981    -0.00002587
N         0.00187281    -0.01301222     1.44063412    -0.00006050    -0.00036791    -0.00013528
H         0.67201935     0.80466885    -0.57002587    -0.00282731     0.00181239     0.00182378
H         0.00185946    -0.94903969     1.47008768    -0.00271049     0.00086806     0.00013410
H        -0.89509786     0.44553609     1.97807968     0.00318848     0.00331510    -0.00110764
H        -0.55563360    -0.93037711    -0.36342003     0.00354634    -0.00028940     0.00133779
     6
  Step:    44            Position(A)                                  Velocity(au)
C        -0.03899757     0.01137193    -0.13778231    -0.00000879    -0.00001935     0.00003432
N         0.00092570    -0.01650132     1.43897799    -0.00010740    -0.00026606    -0.00016716
H         0.64014333     0.82242137    -0.55008826    -0.00297176     0.00145345     0.00179724
H        -0.02603472    -0.94597684     1.47401463    -0.00241653    -0.00035566     0.00059029
H        -0.85756743     0.47992356     1.96361569     0.00362379     0.00296817    -0.00151451
H        -0.51765023    -0.93237801    -0.35026929     0.00336165    -0.00013813     0.00104079
     6