 Fermi distribution function

Calculation with static geometry


********************************************************************************
 iSCC Total electronic   Diff electronic      SCC error    
   10   -0.53281202E+01   -0.17710668E-08    0.86188602E-06
********************************************************************************

 Total charge:     1.00000000

 Atomic gross charges (e)
 Atom           Charge
    1       0.26289086
    2      -0.14576544
    3       0.17886716
    4       0.26183227
    5       0.26504408
    6       0.17713107

Nr. of electrons (up):     12.00000000
Atom populations (up)
 Atom       Population
    1       3.73710914
    2       5.14576544
    3       0.82113284
    4       0.73816773
    5       0.73495592
    6       0.82286893

l-shell populations (up)
 Atom Sh.   l       Population
    1   1   0       1.36967530
    1   2   1       2.36743384
    2   1   0       1.49790775
    2   2   1       3.64785769
    3   1   0       0.82113284
    4   1   0       0.73816773
    5   1   0       0.73495592
    6   1   0       0.82286893

Orbital populations (up)
 Atom Sh.   l   m       Population  Label
    1   1   0   0       1.36967530  s
    1   2   1  -1       0.47322555  p_y
    1   2   1   0       0.88051029  p_z
    1   2   1   1       1.01369799  p_x
    2   1   0   0       1.49790775  s
    2   2   1  -1       1.35861392  p_y
    2   2   1   0       1.12588034  p_z
    2   2   1   1       1.16336344  p_x
    3   1   0   0       0.82113284  s
    4   1   0   0       0.73816773  s
    5   1   0   0       0.73495592  s
    6   1   0   0       0.82286893  s

Fermi level:                        -0.5247531152 H          -14.2793 eV
Band energy:                        -8.8136862409 H         -239.8326 eV
TS:                                  0.0000000000 H            0.0000 eV
Band free energy (E-TS):            -8.8136862409 H         -239.8326 eV
Extrapolated E(0K):                 -8.8136862409 H         -239.8326 eV
Input / Output electrons (q):     12.0000000000     12.0000000000

Energy H0:                          -5.4652056807 H         -148.7158 eV
Energy SCC:                          0.1370855183 H            3.7303 eV
Total Electronic energy:            -5.3281201624 H         -144.9855 eV
Repulsive energy:                    0.1565492072 H            4.2599 eV
Total energy:                       -5.1715709551 H         -140.7256 eV
Extrapolated to 0:                  -5.1715709551 H         -140.7256 eV
Total Mermin free energy:           -5.1715709551 H         -140.7256 eV
Force related energy:               -5.1715709551 H         -140.7256 eV

SCC converged

Excitation Energy:                   0.1486791247 H            4.0458 eV

Total Forces
    1     -0.022641365085     -0.005186486306      0.022873289296
    2     -0.003127436695      0.012018514959     -0.016991376409
    3      0.007589147502      0.008526170283     -0.000777450644
    4      0.008029177629     -0.006350531960      0.013593439464
    5      0.010539715254     -0.003992713162     -0.006619080050
    6     -0.000389238606     -0.005014953814     -0.012078821657

Maximal derivative component:        0.228733E-01 au


