    14
  Step:     0            Position(A)                                  Velocity(au)
C        -5.98667924    -0.71638738    -0.18500827     0.00009158    -0.00032122    -0.00002431
C        -4.69209033    -0.74160122     0.15544911    -0.00004418     0.00023560    -0.00004207
H        -6.48426917     0.19748562    -0.54748841    -0.00084602     0.00019560     0.00008794
H        -6.52461281    -1.65871721    -0.23146286    -0.00143303     0.00032666     0.00006538
H        -4.24389745    -1.67883078     0.56802882     0.00003590     0.00036129    -0.00045836
C        -3.88169404     0.41304699     0.00357871    -0.00014188     0.00003583     0.00013203
C        -2.54869716     0.49555614     0.28045548     0.00021202    -0.00000096     0.00010394
H        -4.50092007     1.29398301    -0.28907058    -0.00031936     0.00028667     0.00013735
H        -1.98367275    -0.41508222     0.61348631     0.00005165    -0.00057397    -0.00057962
C        -1.88630129     1.71422204    -0.00620210    -0.00030469    -0.00011321    -0.00023167
H        -2.43152063     2.62712525    -0.38005815     0.00036405     0.00049814    -0.00076050
N        -0.54296165     1.78332662     0.14985887     0.00030272     0.00002821     0.00018024
H         0.00369082     2.65329183    -0.12741148    -0.00008643     0.00074909    -0.00001214
H         0.08803107     0.95963317     0.36682480     0.00025650    -0.00028160    -0.00024483
    14
  Step:     1            Position(A)                                  Velocity(au)
C        -5.98599966    -0.71992556    -0.18540283     0.00002967    -0.00032344    -0.00004876
C        -4.69224717    -0.73912727     0.15513481     0.00001531     0.00021626    -0.00001585
H        -6.49335808     0.19923309    -0.54622058    -0.00079893     0.00010407     0.00015095
H        -6.54081667    -1.65506158    -0.23065587    -0.00151400     0.00034389     0.00008567
H        -4.24377609    -1.67413279     0.56253021    -0.00000807     0.00048794    -0.00054196
C        -3.88377886     0.41344396     0.00496381    -0.00023908     0.00003760     0.00012135
C        -2.54598131     0.49557732     0.28162083     0.00028337     0.00000511     0.00010839
H        -4.50324101     1.29687651    -0.28762029    -0.00010127     0.00023769     0.00013018
H        -1.98357493    -0.42023183     0.60687802    -0.00003219    -0.00036268    -0.00062628
C        -1.88965751     1.71299254    -0.00873241    -0.00030468    -0.00011136    -0.00023059
H        -2.42676919     2.63134549    -0.38779178     0.00050195     0.00026449    -0.00064926
N        -0.53935254     1.78372565     0.15181152     0.00035365     0.00004543     0.00017608
H         0.00136301     2.65960502    -0.12694904    -0.00033792     0.00039519     0.00009972
H         0.08909160     0.95806067     0.36375164    -0.00005729    -0.00000670    -0.00031570
    14
  Step:     2            Position(A)                                  Velocity(au)
C        -5.98603013    -0.72346318    -0.18607497    -0.00003723    -0.00032163    -0.00007458
C        -4.69175532    -0.73687013     0.15510239     0.00007336     0.00019661     0.00000899
H        -6.50174728     0.19976228    -0.54418605    -0.00072135    -0.00002117     0.00022516
H        -6.55773452    -1.65119386    -0.22958866    -0.00156336     0.00036530     0.00011278
H        -4.24407409    -1.66815609     0.55617247    -0.00003764     0.00058963    -0.00061321
C        -3.88692434     0.41386964     0.00623350    -0.00033512     0.00004059     0.00011115
C        -2.54249786     0.49566787     0.28282680     0.00035205     0.00001262     0.00011109
H        -4.50313563     1.29918291    -0.28622261     0.00011890     0.00018388     0.00012605
H        -1.98437700    -0.42301648     0.59978515    -0.00010868    -0.00014831    -0.00066577
C        -1.89296682     1.71178587    -0.01124678    -0.00029608    -0.00011008    -0.00022841
H        -2.42053958     2.63291152    -0.39426190     0.00062994     0.00002058    -0.00053257
N        -0.53522497     1.78432058     0.15371087     0.00039600     0.00006383     0.00017057
H        -0.00370185     2.66193739    -0.12522985    -0.00057617     0.00003807     0.00021255
H         0.08677780     0.95948667     0.35991826    -0.00034891     0.00025244    -0.00038005
    14
  Step:     3            Position(A)                                  Velocity(au)
C        -5.98681422    -0.72696184    -0.18703437    -0.00010712    -0.00031683    -0.00010080
C        -4.69064222    -0.73482595     0.15533139     0.00012797     0.00017795     0.00003152
H        -6.50913890     0.19877002    -0.54129481    -0.00062032    -0.00016773     0.00030463
H        -6.57501814    -1.64706985    -0.22818850    -0.00158128     0.00039002     0.00014615
H        -4.24459950    -1.66123352     0.54911502    -0.00004687     0.00065598    -0.00066786
C        -3.89111025     0.41433201     0.00739545    -0.00042856     0.00004382     0.00010186
C        -2.53827948     0.49585350     0.28405121     0.00041733     0.00002328     0.00011151
H        -4.50063993     1.30089916    -0.28486262     0.00033053     0.00013431     0.00012159
H        -1.98595242    -0.42347633     0.59231293    -0.00016952     0.00005560    -0.00069341
C        -1.89613482     1.71058423    -0.01372929    -0.00027891    -0.00011136    -0.00022444
H        -2.41298807     2.63179572    -0.39944279     0.00073954    -0.00021811    -0.00041664
N        -0.53068929     1.78512212     0.15554300     0.00042693     0.00008298     0.00016389
H        -0.01124173     2.66043784    -0.12229903    -0.00078025    -0.00028842     0.00031611
H         0.08145857     0.96358328     0.35543741    -0.00059579     0.00046762    -0.00043058
    14
  Step:     4            Position(A)                                  Velocity(au)
C        -5.98837354    -0.73039435    -0.18828025    -0.00017801    -0.00031003    -0.00012650
C        -4.68895568    -0.73297703     0.15579203     0.00017737     0.00016139     0.00005100
H        -6.51531795     0.19609282    -0.53752159    -0.00050377    -0.00032264     0.00038373
H        -6.59232798    -1.64266137    -0.22639127    -0.00156909     0.00041603     0.00018472
H        -4.24509955    -1.65380520     0.54156184    -0.00003081     0.00067826    -0.00070211
C        -3.89629997     0.41482830     0.00846199    -0.00051758     0.00004642     0.00009393
C        -2.53336807     0.49617713     0.28526631     0.00047796     0.00003831     0.00010918
H        -4.49590458     1.30212113    -0.28356263     0.00052344     0.00009780     0.00011334
H        -1.98808558    -0.42180010     0.58461551    -0.00020688     0.00023563    -0.00070506
C        -1.89906849     1.70934961    -0.01615682    -0.00025320    -0.00011670    -0.00021809
H        -2.40436070     2.62813999    -0.40337680     0.00082291    -0.00043621    -0.00030768
N        -0.52588513     1.78613590     0.15729635     0.00044390     0.00010231     0.00015631
H        -0.02077129     2.65562772    -0.11831424    -0.00093037    -0.00055019     0.00040005
H         0.07374382     0.96971674     0.35049856    -0.00077710     0.00061197    -0.00046075
    14
  Step:     5            Position(A)                                  Velocity(au)
C        -5.99070864    -0.73374441    -0.18980191    -0.00024802    -0.00030223    -0.00015081
C        -4.68676193    -0.73129519     0.15644720     0.00021997     0.00014762     0.00006687
H        -6.52015979     0.19171171    -0.53290002    -0.00038019    -0.00047265     0.00045725
H        -6.60934490    -1.63796850    -0.22414730    -0.00152928     0.00044035     0.00022709
H        -4.24527363    -1.64639528     0.53375504     0.00001390     0.00065052    -0.00071318
C        -3.90243340     0.41534764     0.00945029    -0.00059970     0.00004784     0.00008780
C        -2.52782314     0.49669150     0.28643964     0.00053189     0.00005813     0.00010371
H        -4.48918863     1.30303873    -0.28238315     0.00068823     0.00008263     0.00009793
H        -1.99047842    -0.41832156     0.57688850    -0.00021371     0.00037901    -0.00069729
C        -1.90167414     1.70803116    -0.01850038    -0.00021867    -0.00012680    -0.00020892
H        -2.39498528     2.62225269    -0.40617388     0.00087298    -0.00061895    -0.00021172
N        -0.52097817     1.78736027     0.15896258     0.00044477     0.00012103     0.00014816
H        -0.03159539     2.64840147    -0.11354719    -0.00100882    -0.00071444     0.00045424
H         0.06445797     0.97697124     0.34535757    -0.00087585     0.00066248    -0.00046542
    14
  Step:     6            Position(A)                                  Velocity(au)
C        -5.99379945    -0.73700630    -0.19157952    -0.00031524    -0.00029437    -0.00017292
C        -4.68414352    -0.72974766     0.15725496     0.00025434     0.00013673     0.00007880
H        -6.52363528     0.18575262    -0.52751834    -0.00025835    -0.00060464     0.00052044
H        -6.62578387    -1.63302798    -0.22142333    -0.00146545     0.00045940     0.00027175
H        -4.24479537    -1.63957392     0.52595965     0.00008841     0.00057086    -0.00069995
C        -3.90941961     0.41587490     0.01038286    -0.00067196     0.00004787     0.00008397
C        -2.52173203     0.49744886     0.28753523     0.00057636     0.00008230     0.00009490
H        -4.48084814     1.30392881    -0.28142031     0.00081686     0.00009604     0.00007232
H        -1.99276099    -0.41350861     0.56936102    -0.00018436     0.00047466    -0.00066762
C        -1.90385235     1.70657552    -0.02072738    -0.00017471    -0.00014152    -0.00019672
H        -2.38526251     2.61459931    -0.40800852     0.00088373    -0.00075276    -0.00013440
N        -0.51615491     1.78878368     0.16053763     0.00042814     0.00013812     0.00013988
H        -0.04284105     2.63999797    -0.10837681    -0.00100200    -0.00075336     0.00046994
H         0.05458292     0.98420980     0.34031657    -0.00088192     0.00060422    -0.00044183
    14
  Step:     7            Position(A)                                  Velocity(au)
C        -5.99760522    -0.74018432    -0.19358488    -0.00037783    -0.00028733    -0.00019211
C        -4.68119772    -0.72830403     0.15817115     0.00027933     0.00012821     0.00008672
H        -6.52581176     0.17848401    -0.52151435    -0.00014695    -0.00070591     0.00056897
H        -6.64140449    -1.62791818    -0.21820230    -0.00138207     0.00046936     0.00031735
H        -4.24333944    -1.63390653     0.51844228     0.00019109     0.00044266    -0.00066355
C        -3.91713370     0.41639488     0.01128724    -0.00073147     0.00004665     0.00008282
C        -2.51521415     0.49849199     0.28851581     0.00060868     0.00010970     0.00008275
H        -4.47131819     1.30513987    -0.28080095     0.00090336     0.00014333     0.00003419
H        -1.99451155    -0.40793741     0.56228313    -0.00011549     0.00051478    -0.00061489
C        -1.90549624     1.70493524    -0.02280410    -0.00012079    -0.00016007    -0.00018151
H        -2.37565191     2.60578459    -0.40911406     0.00085086    -0.00082661    -0.00008048
N        -0.51161172     1.79038193     0.16202264     0.00039395     0.00015240     0.00013193
H        -0.05351606     2.63192029    -0.10326640    -0.00090358    -0.00065024     0.00044172
H         0.04516420     0.99018973     0.33569173    -0.00079541     0.00043541    -0.00039063
    14
  Step:     8            Position(A)                                  Velocity(au)
C        -6.00206527    -0.74329217    -0.19578240    -0.00043406    -0.00028193    -0.00020778
C        -4.67803273    -0.72694287     0.15915207     0.00029418     0.00012097     0.00009079
H        -6.52685015     0.17030958    -0.51507106    -0.00005422    -0.00076467     0.00059901
H        -6.65601938    -1.62275973    -0.21448075    -0.00128420     0.00046650     0.00036275
H        -4.24061491    -1.62988998     0.51144317     0.00031718     0.00027526    -0.00060770
C        -3.92542200     0.41689548     0.01219468    -0.00077606     0.00004461     0.00008459
C        -2.50841596     0.49984873     0.28934554     0.00062685     0.00013880     0.00006752
H        -4.46108533     1.30706450    -0.28067226     0.00094467     0.00022665    -0.00001762
H        -1.99528766    -0.40224674     0.55590913    -0.00000705     0.00049649    -0.00053962
C        -1.90649482     1.70307367    -0.02469821    -0.00005684    -0.00018133    -0.00016352
H        -2.36664829     2.59651556    -0.40976924     0.00077270    -0.00083385    -0.00005307
N        -0.50753659     1.79211767     0.16342385     0.00034397     0.00016279     0.00012471
H        -0.06260864     2.62577279    -0.09871332    -0.00071791    -0.00040693     0.00036998
H         0.03718174     0.99373529     0.33177068    -0.00062896     0.00017176    -0.00031654
    14
  Step:     9            Position(A)                                  Velocity(au)
C        -6.00710114    -0.74635202    -0.19813050    -0.00048246    -0.00027886    -0.00021945
C        -4.67476206    -0.72565757     0.16015742     0.00029867     0.00011345     0.00009145
H        -6.52699789     0.16175545    -0.50840979     0.00001265    -0.00077094     0.00060754
H        -6.66949877    -1.61771267    -0.21026651    -0.00117716     0.00044749     0.00040705
H        -4.23640060    -1.62788468     0.50514778     0.00045890     0.00008374    -0.00053837
C        -3.93411156     0.41737075     0.01313775    -0.00080446     0.00004247     0.00008927
C        -2.50150059     0.50152859     0.28999293     0.00062991     0.00016777     0.00004974
H        -4.45065182     1.31009820    -0.28118644     0.00094118     0.00034386    -0.00008268
H        -1.99466589    -0.39707572     0.55047799     0.00013704     0.00042339    -0.00044424
C        -1.90673980     1.70096820    -0.02638144     0.00001654    -0.00020386    -0.00014327
H        -2.35874770     2.58754250    -0.41027504     0.00065106    -0.00077411    -0.00005268
N        -0.50408672     1.79394321     0.16475091     0.00028200     0.00016867     0.00011837
H        -0.06922165     2.62301795    -0.09517247    -0.00046215    -0.00004949     0.00026270
H         0.03140447     0.99394725     0.32876682    -0.00040746    -0.00015272    -0.00022796
    14
  Step:    10            Position(A)                                  Velocity(au)
C        -6.01262009    -0.74939278    -0.20058338    -0.00052193    -0.00027861    -0.00022685
C        -4.67149876    -0.72446093     0.16115266     0.00029306     0.00010378     0.00008927
H        -6.52657340     0.15344379    -0.50177999     0.00004836    -0.00071798     0.00059274
H        -6.68177197    -1.61297002    -0.20557585    -0.00106624     0.00040976     0.00044957
H        -4.23057552    -1.62805798     0.49966523     0.00060626    -0.00011283    -0.00046301
C        -3.94302121     0.41782449     0.01414756    -0.00081640     0.00004130     0.00009659
C        -2.49463546     0.50351913     0.29043377     0.00061798     0.00019445     0.00003020
H        -4.44049532     1.31458702    -0.28248098     0.00089699     0.00048769    -0.00015863
H        -1.99228968    -0.39298438     0.54619049     0.00030854     0.00030638    -0.00033325
C        -1.90613298     1.69861392    -0.02783244     0.00009812    -0.00022580    -0.00012152
H        -2.35240515     2.57958043    -0.41092176     0.00049191    -0.00065491    -0.00007649
N        -0.50136720     1.79580764     0.16601334     0.00021342     0.00017020     0.00011270
H        -0.07271904     2.62469006    -0.09296633    -0.00016536     0.00037200     0.00013539
H         0.02826777     0.99039421     0.32678369    -0.00016412    -0.00049034    -0.00013557
    14
  Step:    11            Position(A)                                  Velocity(au)
C        -6.01851939    -0.75244717    -0.20309327    -0.00055180    -0.00028133    -0.00022990
C        -4.66835071    -0.72338728     0.16211041     0.00027800     0.00009004     0.00008493
H        -6.52593994     0.14604832    -0.49544256     0.00005041    -0.00060382     0.00055451
H        -6.69282483    -1.60874840    -0.20043129    -0.00095633     0.00035170     0.00048983
H        -4.22313751    -1.63035299     0.49501862     0.00074827    -0.00029407    -0.00038928
C        -3.95197180     0.41827419     0.01525082    -0.00081245     0.00004248     0.00010604
C        -2.48798099     0.50578259     0.29065353     0.00059215     0.00021644     0.00000983
H        -4.43102844     1.32076732    -0.28465669     0.00081948     0.00064570    -0.00024120
H        -1.98791601    -0.39037300     0.54318743     0.00049545     0.00016294    -0.00021285
C        -1.90459314     1.69602835    -0.02903995     0.00018612    -0.00024495    -0.00009932
H        -2.34798617     2.57321517    -0.41194833     0.00030543    -0.00049197    -0.00011805
N        -0.49941775     1.79766669     0.16721636     0.00014425     0.00016839     0.00010717
H        -0.07283924     2.63115609    -0.09221064     0.00013638     0.00079192     0.00000832
H         0.02781403     0.98322020     0.32580097     0.00006617    -0.00078925    -0.00005015
    14
  Step:    12            Position(A)                                  Velocity(au)
C        -6.02469176    -0.75554751    -0.20561286    -0.00057193    -0.00028675    -0.00022877
C        -4.66541707    -0.72249124     0.16301069     0.00025436     0.00007059     0.00007906
H        -6.52547047     0.14023397    -0.48964901     0.00001997    -0.00043287     0.00049486
H        -6.70269354    -1.60527583    -0.19485988    -0.00085158     0.00027295     0.00052747
H        -4.21420565    -1.63449139     0.49114894     0.00087449    -0.00044143    -0.00032397
C        -3.96079520     0.41875390     0.01646735    -0.00079393     0.00004756     0.00011692
C        -2.48168095     0.50825427     0.29064883     0.00055422     0.00023136    -0.00001033
H        -4.42256763     1.32871291    -0.28775777     0.00071812     0.00080158    -0.00032464
H        -1.98145071    -0.38941968     0.54153410     0.00068345     0.00001466    -0.00009018
C        -1.90206120     1.69325514    -0.03000530     0.00027835    -0.00025886    -0.00007788
H        -2.34572331     2.56881774    -0.41350423     0.00010511    -0.00030750    -0.00016799
N        -0.49821147     1.79949143     0.16835792     0.00008008     0.00016480     0.00010110
H        -0.06973543     2.64201473    -0.09278429     0.00040745     0.00114390    -0.00009814
H         0.02971533     0.97312796     0.32568663     0.00025382    -0.00100449     0.00001962
    14
  Step:    13            Position(A)                                  Velocity(au)
C        -6.03103140    -0.75872038    -0.20809803    -0.00058272    -0.00029407    -0.00022386
C        -4.66278606    -0.72184299     0.16383997     0.00022319     0.00004436     0.00007216
H        -6.52550311     0.13657838    -0.48461657    -0.00003771    -0.00021689     0.00041801
H        -6.71145478    -1.60277713    -0.18889191    -0.00075510     0.00017453     0.00056222
H        -4.20400643    -1.64001004     0.48793107     0.00097630    -0.00054079    -0.00027204
C        -3.96934061     0.41931461     0.01780857    -0.00076258     0.00005795     0.00012844
C        -2.47585638     0.51084401     0.29042764     0.00050639     0.00023710    -0.00002929
H        -4.41531812     1.33830335    -0.29175880     0.00060295     0.00093752    -0.00040244
H        -1.97296424    -0.39005233     0.54121450     0.00085782    -0.00011628     0.00002754
C        -1.89850374     1.69036525    -0.03074372     0.00037240    -0.00026517    -0.00005844
H        -2.34568658     2.56648808    -0.41562349    -0.00009380    -0.00012677    -0.00021549
N        -0.49766584     1.80127205     0.16942821     0.00002515     0.00016111     0.00009388
H        -0.06392549     2.65618113    -0.09435764     0.00061985     0.00137604    -0.00016829
H         0.03336682     0.96124509     0.32623023     0.00037947    -0.00110652     0.00006853
    14
  Step:    14            Position(A)                                  Velocity(au)
C        -6.03743986    -0.76198087    -0.21051022    -0.00058507    -0.00030204    -0.00021576
C        -4.66053429    -0.72152088     0.16458931     0.00018555     0.00001097     0.00006456
H        -6.52629536     0.13548906    -0.48050425    -0.00011363     0.00002545     0.00033007
H        -6.71921281    -1.60145770    -0.18256032    -0.00066872     0.00005899     0.00059385
H        -4.19284723    -1.64632226     0.48519745     0.00104778    -0.00058416    -0.00023622
C        -3.97747813     0.42002168     0.01927725    -0.00072038     0.00007472     0.00013987
C        -2.47060276     0.51344128     0.29000808     0.00045101     0.00023221    -0.00004625
H        -4.40937689     1.34922288    -0.29656185     0.00048305     0.00103709    -0.00046833
H        -1.96268418    -0.39196363     0.54213659     0.00100548    -0.00021081     0.00013407
C        -1.89391423     1.68745408    -0.03128375     0.00046583    -0.00026198    -0.00004209
H        -2.34777528     2.56604446    -0.41821844    -0.00027637     0.00002628    -0.00025015
N        -0.49766125     1.80301604     0.17041179    -0.00001807     0.00015862     0.00008515
H        -0.05617502     2.67211817    -0.09646585     0.00075751     0.00146018    -0.00019388
H         0.03801705     0.94892075     0.32718576     0.00043548    -0.00108436     0.00009510
    14
  Step:    15            Position(A)                                  Velocity(au)
C        -6.04383091    -0.76532818    -0.21281809    -0.00058024    -0.00030914    -0.00020515
C        -4.65872672    -0.72160303     0.16525227     0.00014251    -0.00002915     0.00005639
H        -6.52798902     0.13713514    -0.47739562    -0.00019646     0.00027070     0.00023822
H        -6.72608438    -1.60148664    -0.17590041    -0.00059286    -0.00006961     0.00062211
H        -4.18108412    -1.65278962     0.48276335     0.00108592    -0.00056980    -0.00021706
C        -3.98510025     0.42094927     0.02086839    -0.00066935     0.00009830     0.00015056
C        -2.46598968     0.51592415     0.28941594     0.00039035     0.00021614    -0.00006064
H        -4.40475038     1.36099178    -0.30200436     0.00036549     0.00108784    -0.00051716
H        -1.95096745    -0.39466416     0.54414762     0.00111646    -0.00025578     0.00022481
C        -1.88831284     1.68463398    -0.03166461     0.00055628    -0.00024821    -0.00002964
H        -2.35173267     2.56706292    -0.42109594    -0.00042986     0.00013294    -0.00026380
N        -0.49806113     1.80474215     0.17129114    -0.00004878     0.00015807     0.00007488
H        -0.04735356     2.68812538    -0.09859907     0.00081658     0.00139294    -0.00017433
H         0.04289386     0.93752264     0.32831063     0.00042443    -0.00094377     0.00010097
    14
  Step:    16            Position(A)                                  Velocity(au)
C        -6.05013376    -0.76874385    -0.21499820    -0.00056969    -0.00031381    -0.00019273
C        -4.65741655    -0.72215854     0.16582293     0.00009514    -0.00007483     0.00004763
H        -6.53059328     0.14141104    -0.47529270    -0.00027437     0.00049403     0.00014962
H        -6.73218278    -1.60298064    -0.16895048    -0.00052650    -0.00020586     0.00064669
H        -4.16909063    -1.65878779     0.48044886     0.00109031    -0.00050143    -0.00021339
C        -3.99212151     0.42217218     0.02257113    -0.00061147     0.00012834     0.00016012
C        -2.46206302     0.51816971     0.28868157     0.00032645     0.00018928    -0.00007219
H        -4.40138103     1.37302147    -0.30787581     0.00025486     0.00108283    -0.00054553
H        -1.93825941    -0.39755941     0.54705474     0.00118473    -0.00024537     0.00029710
C        -1.88174459     1.68202400    -0.03193221     0.00064158    -0.00022379    -0.00002148
H        -2.35717918     2.56895283    -0.42398962    -0.00054501     0.00018222    -0.00025160
N        -0.49872845     1.80647404     0.17205002    -0.00006745     0.00015967     0.00006330
H        -0.03831083     2.70259144    -0.10027962     0.00080285     0.00119036    -0.00011493
H         0.04730236     0.92827398     0.32939475     0.00035617    -0.00070263     0.00008990
    14
  Step:    17            Position(A)                                  Velocity(au)
C        -6.05629397    -0.77219341    -0.21703439    -0.00055486    -0.00031482    -0.00017910
C        -4.65664532    -0.72324003     0.16629425     0.00004452    -0.00012429     0.00003813
H        -6.53399143     0.14794294    -0.47412237    -0.00033712     0.00067309     0.00007036
H        -6.73760261    -1.60599032    -0.16175292    -0.00046739    -0.00034330     0.00066714
H        -4.15723150    -1.66375928     0.47809496     0.00106270    -0.00038689    -0.00022282
C        -3.99847734     0.42375702     0.02437122    -0.00054860     0.00016374     0.00016831
C        -2.45884788     0.52006504     0.28783658     0.00026110     0.00015298    -0.00008094
H        -4.39917482     1.38468080    -0.31393889     0.00015347     0.00102098    -0.00055192
H        -1.92504931    -0.40003212     0.55064728     0.00120802    -0.00018063     0.00035020
C        -1.87427697     1.67973822    -0.03213458     0.00071978    -0.00018966    -0.00001761
H        -2.36365580     2.57104930    -0.42660024    -0.00061657     0.00017131    -0.00021230
N        -0.49953665     1.80823529     0.17267590    -0.00007528     0.00016332     0.00005079
H        -0.02978959     2.71416673    -0.10111344     0.00072827     0.00088032    -0.00002444
H         0.05068574     0.92215135     0.33027737     0.00024476    -0.00038586     0.00006674
    14
  Step:    18            Position(A)                                  Velocity(au)
C        -6.06227241    -0.77563109    -0.21891632    -0.00053704    -0.00031142    -0.00016470
C        -4.65644269    -0.72487770     0.16665707    -0.00000828    -0.00017532     0.00002766
H        -6.53796840     0.15613626    -0.47375353    -0.00037752     0.00079121     0.00000469
H        -6.74240772    -1.61049093    -0.15435556    -0.00041235    -0.00047489     0.00068290
H        -4.14584210    -1.66725185     0.47557433     0.00100642    -0.00023684    -0.00024218
C        -4.00412308     0.42575421     0.02625321    -0.00048247     0.00020271     0.00017513
C        -2.45635104     0.52151645     0.28691080     0.00019584     0.00010930    -0.00008715
H        -4.39802358     1.39535733    -0.31995015     0.00006186     0.00090632    -0.00053661
H        -1.91183164    -0.40151094     0.55471592     0.00118727    -0.00006808     0.00038490
C        -1.86599792     1.67787490    -0.03231746     0.00078909    -0.00014763    -0.00001767
H        -2.37066781     2.57270050    -0.42863417    -0.00064294     0.00010438    -0.00014774
N        -0.50037530     1.81004696     0.17316113    -0.00007385     0.00016874     0.00003782
H        -0.02237843     2.72185012    -0.10081439     0.00060786     0.00049611     0.00008695
H         0.05265700     0.91983260     0.33085492     0.00010631    -0.00002171     0.00003685
    14
  Step:    19            Position(A)                                  Velocity(au)
C        -6.06804277    -0.77900642    -0.22063751    -0.00051724    -0.00030352    -0.00014979
C        -4.65682645    -0.72707545     0.16689946    -0.00006218    -0.00022542     0.00001598
H        -6.54225030     0.16525211    -0.47401968    -0.00039214     0.00083913    -0.00004522
H        -6.74662365    -1.61637950    -0.14681314    -0.00035785    -0.00059368     0.00069331
H        -4.13521416    -1.66894060     0.47279673     0.00092588    -0.00006338    -0.00026803
C        -4.00903236     0.42819173     0.02820253    -0.00041473     0.00024304     0.00018072
C        -2.45456345     0.52245624     0.28593000     0.00013206     0.00006082    -0.00009126
H        -4.39782143     1.40450818    -0.32567826    -0.00002065     0.00074689    -0.00050135
H        -1.89907557    -0.40152142     0.55906761     0.00112581     0.00008191     0.00040321
C        -1.85701421     1.67650847    -0.03252121     0.00084783    -0.00010013    -0.00002108
H        -2.37772144     2.57333288    -0.42983226    -0.00062555    -0.00000934    -0.00006198
N        -0.50115225     1.81192687     0.17350326    -0.00006487     0.00017565     0.00002486
H        -0.01649151     2.72502010    -0.09921129     0.00045791     0.00007251     0.00020883
H         0.05301157     0.92167642     0.33108355    -0.00004232     0.00036051     0.00000569
    14
  Step:    20            Position(A)                                  Velocity(au)
C        -6.07358794    -0.78227106    -0.22219324    -0.00049613    -0.00029153    -0.00013446
C        -4.65780298    -0.72980929     0.16700666    -0.00011619    -0.00027207     0.00000282
H        -6.54654730     0.17449379    -0.47474277    -0.00038112     0.00081505    -0.00007919
H        -6.75023643    -1.62347882    -0.13918810    -0.00030048    -0.00069338     0.00069765
H        -4.12558671    -1.66863838     0.46971062     0.00082621     0.00012072    -0.00029682
C        -4.01319601     0.43107121     0.03020684    -0.00034685     0.00028226     0.00018533
C        -2.45346196     0.52284695     0.28491420     0.00007097     0.00001035    -0.00009385
H        -4.39847528     1.41169690    -0.33091811    -0.00009550     0.00055342    -0.00044898
H        -1.88720234    -0.39971896     0.56353691     0.00102868     0.00025679     0.00040797
C        -1.84744999     1.67568427    -0.03277862     0.00089449    -0.00004992    -0.00002710
H        -2.38435282     2.57249625    -0.42999007    -0.00056802    -0.00015750     0.00003949
N        -0.50179437     1.81388960     0.17370490    -0.00005009     0.00018374     0.00001236