 Fermi distribution function

Calculation with static geometry


********************************************************************************
 iSCC Total electronic   Diff electronic      SCC error    
   10   -0.53953032E+01   -0.66702199E-12    0.12139628E-06
********************************************************************************

 Total charge:     1.00000000

 Atomic gross charges (e)
 Atom           Charge
    1       0.16540897
    2      -0.06277173
    3       0.14273700
    4       0.27945564
    5       0.27650554
    6       0.19866459

Nr. of electrons (up):     12.00000000
Atom populations (up)
 Atom       Population
    1       3.83459103
    2       5.06277173
    3       0.85726300
    4       0.72054436
    5       0.72349446
    6       0.80133541

l-shell populations (up)
 Atom Sh.   l       Population
    1   1   0       1.31980587
    1   2   1       2.51478516
    2   1   0       1.42507007
    2   2   1       3.63770166
    3   1   0       0.85726300
    4   1   0       0.72054436
    5   1   0       0.72349446
    6   1   0       0.80133541

Orbital populations (up)
 Atom Sh.   l   m       Population  Label
    1   1   0   0       1.31980587  s
    1   2   1  -1       0.60290720  p_y
    1   2   1   0       0.87508185  p_z
    1   2   1   1       1.03679612  p_x
    2   1   0   0       1.42507007  s
    2   2   1  -1       1.33650936  p_y
    2   2   1   0       1.09780107  p_z
    2   2   1   1       1.20339123  p_x
    3   1   0   0       0.85726300  s
    4   1   0   0       0.72054436  s
    5   1   0   0       0.72349446  s
    6   1   0   0       0.80133541  s

Fermi level:                        -0.4947460105 H          -13.4627 eV
Band energy:                        -8.9057126009 H         -242.3368 eV
TS:                                  0.0000000000 H            0.0000 eV
Band free energy (E-TS):            -8.9057126009 H         -242.3368 eV
Extrapolated E(0K):                 -8.9057126009 H         -242.3368 eV
Input / Output electrons (q):     12.0000000000     12.0000000000

Energy H0:                          -5.5284706900 H         -150.4373 eV
Energy SCC:                          0.1331675045 H            3.6237 eV
Total Electronic energy:            -5.3953031855 H         -146.8137 eV
Repulsive energy:                    0.1840751778 H            5.0089 eV
Total energy:                       -5.2112280077 H         -141.8047 eV
Extrapolated to 0:                  -5.2112280077 H         -141.8047 eV
Total Mermin free energy:           -5.2112280077 H         -141.8047 eV
Force related energy:               -5.2112280077 H         -141.8047 eV

SCC converged

Excitation Energy:                   0.1252832792 H            3.4091 eV

Total Forces
    1     -0.003968954721      0.010502863699      0.038972182965
    2     -0.003296000256     -0.001471924817     -0.046451171589
    3     -0.003797043067     -0.008884528356      0.001837231789
    4     -0.008092012500      0.005103400952      0.001349042960
    5      0.010773749910     -0.006740796384      0.003063067539
    6      0.008380260633      0.001490984906      0.001229646336

Maximal derivative component:        0.464512E-01 au


