 Fermi distribution function

Calculation with static geometry


********************************************************************************
 iSCC Total electronic   Diff electronic      SCC error    
    9   -0.54463701E+01   -0.41744386E-13    0.74585690E-06
********************************************************************************

 Total charge:     1.00000000

 Atomic gross charges (e)
 Atom           Charge
    1       0.13410084
    2      -0.00872616
    3       0.17562877
    4       0.26633692
    5       0.27347635
    6       0.15918328

Nr. of electrons (up):     12.00000000
Atom populations (up)
 Atom       Population
    1       3.86589916
    2       5.00872616
    3       0.82437123
    4       0.73366308
    5       0.72652365
    6       0.84081672

l-shell populations (up)
 Atom Sh.   l       Population
    1   1   0       1.28849881
    1   2   1       2.57740036
    2   1   0       1.40923654
    2   2   1       3.59948961
    3   1   0       0.82437123
    4   1   0       0.73366308
    5   1   0       0.72652365
    6   1   0       0.84081672

Orbital populations (up)
 Atom Sh.   l   m       Population  Label
    1   1   0   0       1.28849881  s
    1   2   1  -1       0.62557008  p_y
    1   2   1   0       0.88803099  p_z
    1   2   1   1       1.06379929  p_x
    2   1   0   0       1.40923654  s
    2   2   1  -1       1.32539974  p_y
    2   2   1   0       1.11276116  p_z
    2   2   1   1       1.16132871  p_x
    3   1   0   0       0.82437123  s
    4   1   0   0       0.73366308  s
    5   1   0   0       0.72652365  s
    6   1   0   0       0.84081672  s

Fermi level:                        -0.4914076975 H          -13.3719 eV
Band energy:                        -9.0147082000 H         -245.3027 eV
TS:                                  0.0000000000 H            0.0000 eV
Band free energy (E-TS):            -9.0147082000 H         -245.3027 eV
Extrapolated E(0K):                 -9.0147082000 H         -245.3027 eV
Input / Output electrons (q):     12.0000000000     12.0000000000

Energy H0:                          -5.5821003166 H         -151.8967 eV
Energy SCC:                          0.1357301744 H            3.6934 eV
Total Electronic energy:            -5.4463701422 H         -148.2033 eV
Repulsive energy:                    0.2136462690 H            5.8136 eV
Total energy:                       -5.2327238732 H         -142.3897 eV
Extrapolated to 0:                  -5.2327238732 H         -142.3897 eV
Total Mermin free energy:           -5.2327238732 H         -142.3897 eV
Force related energy:               -5.2327238732 H         -142.3897 eV

SCC converged

Excitation Energy:                   0.1598158715 H            4.3488 eV

Total Forces
    1      0.003797295046     -0.005721112460     -0.042537106759
    2     -0.002387598957      0.011566994499      0.028319367930
    3     -0.000237308474      0.004958135544      0.002201873585
    4     -0.002132252404     -0.007590702078      0.004636688037
    5      0.002728658039      0.001249965074      0.004158010146
    6     -0.001768793251     -0.004463280580      0.003221167060

Maximal derivative component:        0.425371E-01 au


