 Fermi distribution function

Calculation with static geometry


********************************************************************************
 iSCC Total electronic   Diff electronic      SCC error    
   11   -0.54029694E+01   -0.25845992E-12    0.24992319E-08
********************************************************************************

 Total charge:     1.00000000

 Atomic gross charges (e)
 Atom           Charge
    1       0.22798519
    2      -0.12328837
    3       0.17694097
    4       0.27530507
    5       0.29300803
    6       0.15004911

Nr. of electrons (up):     12.00000000
Atom populations (up)
 Atom       Population
    1       3.77201481
    2       5.12328837
    3       0.82305903
    4       0.72469493
    5       0.70699197
    6       0.84995089

l-shell populations (up)
 Atom Sh.   l       Population
    1   1   0       1.31117835
    1   2   1       2.46083647
    2   1   0       1.41990961
    2   2   1       3.70337876
    3   1   0       0.82305903
    4   1   0       0.72469493
    5   1   0       0.70699197
    6   1   0       0.84995089

Orbital populations (up)
 Atom Sh.   l   m       Population  Label
    1   1   0   0       1.31117835  s
    1   2   1  -1       0.58151960  p_y
    1   2   1   0       0.88771580  p_z
    1   2   1   1       0.99160106  p_x
    2   1   0   0       1.41990961  s
    2   2   1  -1       1.35646347  p_y
    2   2   1   0       1.10176499  p_z
    2   2   1   1       1.24515030  p_x
    3   1   0   0       0.82305903  s
    4   1   0   0       0.72469493  s
    5   1   0   0       0.70699197  s
    6   1   0   0       0.84995089  s

Fermi level:                        -0.4885960311 H          -13.2954 eV
Band energy:                        -8.8854529240 H         -241.7855 eV
TS:                                  0.0000000000 H            0.0000 eV
Band free energy (E-TS):            -8.8854529240 H         -241.7855 eV
Extrapolated E(0K):                 -8.8854529240 H         -241.7855 eV
Input / Output electrons (q):     12.0000000000     12.0000000000

Energy H0:                          -5.5354146936 H         -150.6263 eV
Energy SCC:                          0.1324452678 H            3.6040 eV
Total Electronic energy:            -5.4029694258 H         -147.0223 eV
Repulsive energy:                    0.1866191580 H            5.0782 eV
Total energy:                       -5.2163502678 H         -141.9441 eV
Extrapolated to 0:                  -5.2163502678 H         -141.9441 eV
Total Mermin free energy:           -5.2163502678 H         -141.9441 eV
Force related energy:               -5.2163502678 H         -141.9441 eV

SCC converged

Excitation Energy:                   0.1246545450 H            3.3920 eV

Total Forces
    1      0.005981764718     -0.005710729231      0.034032415418
    2     -0.005854866252     -0.002387575445     -0.043902494831
    3     -0.012223148556     -0.005977825583      0.001589303641
    4     -0.008506510003      0.009970729023      0.005892670630
    5      0.014498211366     -0.005363000488      0.000861442615
    6      0.006104548727      0.009468401725      0.001526662527

Maximal derivative component:        0.439025E-01 au


