|===============================================================================
|
|  DFTB+ release 20.1
|
|  Copyright (C) 2006 - 2020  DFTB+ developers group
|
|===============================================================================
|
|  When publishing results obtained with DFTB+, please cite the following
|  reference:
|
|  * DFTB+, a software package for efficient approximate density functional
|    theory based atomistic simulations, J. Chem. Phys. 152, 124101 (2020).
|    [doi: 10.1063/1.5143190]
|
|  You should also cite additional publications crediting the parametrization
|  data you use. Please consult the documentation of the SK-files for the
|  references.
|
|===============================================================================

Reading input file 'dftb_in.hsd'
Parser version: 8

--------------------------------------------------------------------------------
Reading SK-files:
Done.


Processed input in HSD format written to 'dftb_pin.hsd'

Starting initialization...
--------------------------------------------------------------------------------
WARNING!
-> Excited state forces are not implemented yet for fractional occupations, kT=  0.3158E-02K
OpenMP threads:              1
Chosen random seed:          508848004
Mode:                        Static calculation
Self consistent charges:     Yes
SCC-tolerance:                 0.100000E-05
Max. scc iterations:                    100
Shell resolved Hubbard:      No
Spin polarisation:           No
Nr. of up electrons:             6.000000
Nr. of down electrons:           6.000000
Periodic boundaries:         No
Electronic solver:           Relatively robust
Mixer:                       Broyden mixer
Mixing parameter:                  0.200000
Maximal SCC-cycles:                     100
Nr. of chrg. vec. in memory:              0
Electronic temperature:        0.100000E-07 H      0.272114E-06 eV
Initial charges:             Set automatically (system chrg:   0.100E+01)
Included shells:             C:  s, p
                             N:  s, p
                             H:  s
Extra options:
                             Mulliken analysis
                             Force calculation
Force type                   original
                             Eigenvector printing

--------------------------------------------------------------------------------

***  Geometry step: 0

 iSCC Total electronic   Diff electronic      SCC error    
    1   -0.53930660E+01    0.00000000E+00    0.78318720E+00
    2   -0.53988419E+01   -0.57759328E-02    0.52824738E+00
    3   -0.54025333E+01   -0.36913938E-02    0.10002903E+00
    4   -0.54026706E+01   -0.13728722E-03    0.80234755E-01
    5   -0.54029672E+01   -0.29659567E-03    0.12614945E-01
    6   -0.54029691E+01   -0.18886410E-05    0.40573990E-02
    7   -0.54029694E+01   -0.31925977E-06    0.83499269E-04
    8   -0.54029694E+01    0.25792701E-10    0.85881193E-04
    9   -0.54029694E+01   -0.33190339E-09    0.16761835E-05
   10   -0.54029694E+01    0.17585933E-12    0.23355952E-05
   11   -0.54029694E+01   -0.25845992E-12    0.24992319E-08
>> Charges saved for restart in charges.bin

Total Energy:                       -5.0916957228 H         -138.5521 eV
Extrapolated to 0:                  -5.2163502678 H         -141.9441 eV
Total Mermin free energy:           -5.0916957228 H         -138.5521 eV
Force related energy:               -5.2163502678 H         -141.9441 eV

--------------------------------------------------------------------------------
DFTB+ running times                          cpu [s]             wall clock [s]
--------------------------------------------------------------------------------
SCC                                    +     0.01  ( 62.1%)      0.06  ( 77.0%)
Post-SCC processing                    +     0.00  ( 29.4%)      0.01  ( 17.6%)
--------------------------------------------------------------------------------
Missing                                +     0.00  (  8.5%)      0.00  (  5.4%)
Total                                  =     0.02  (100.0%)      0.07  (100.0%)
--------------------------------------------------------------------------------
