 Fermi distribution function

Calculation with static geometry


********************************************************************************
 iSCC Total electronic   Diff electronic      SCC error    
   12   -0.53644729E+01   -0.92015284E-12    0.22095015E-08
********************************************************************************

 Total charge:     1.00000000

 Atomic gross charges (e)
 Atom           Charge
    1       0.32896225
    2      -0.21988175
    3       0.15767638
    4       0.30876770
    5       0.27133244
    6       0.15314298

Nr. of electrons (up):     12.00000000
Atom populations (up)
 Atom       Population
    1       3.67103775
    2       5.21988175
    3       0.84232362
    4       0.69123230
    5       0.72866756
    6       0.84685702

l-shell populations (up)
 Atom Sh.   l       Population
    1   1   0       1.31633787
    1   2   1       2.35469988
    2   1   0       1.43565210
    2   2   1       3.78422965
    3   1   0       0.84232362
    4   1   0       0.69123230
    5   1   0       0.72866756
    6   1   0       0.84685702

Orbital populations (up)
 Atom Sh.   l   m       Population  Label
    1   1   0   0       1.31633787  s
    1   2   1  -1       0.49910011  p_y
    1   2   1   0       0.89784082  p_z
    1   2   1   1       0.95775895  p_x
    2   1   0   0       1.43565210  s
    2   2   1  -1       1.30123107  p_y
    2   2   1   0       1.11113750  p_z
    2   2   1   1       1.37186108  p_x
    3   1   0   0       0.84232362  s
    4   1   0   0       0.69123230  s
    5   1   0   0       0.72866756  s
    6   1   0   0       0.84685702  s

Fermi level:                        -0.4920780433 H          -13.3901 eV
Band energy:                        -8.8174415588 H         -239.9348 eV
TS:                                  0.0000000000 H            0.0000 eV
Band free energy (E-TS):            -8.8174415588 H         -239.9348 eV
Extrapolated E(0K):                 -8.8174415588 H         -239.9348 eV
Input / Output electrons (q):     12.0000000000     12.0000000000

Energy H0:                          -5.4991517961 H         -149.6395 eV
Energy SCC:                          0.1346788694 H            3.6648 eV
Total Electronic energy:            -5.3644729267 H         -145.9747 eV
Repulsive energy:                    0.1790625993 H            4.8725 eV
Total energy:                       -5.1854103274 H         -141.1022 eV
Extrapolated to 0:                  -5.1854103274 H         -141.1022 eV
Total Mermin free energy:           -5.1854103274 H         -141.1022 eV
Force related energy:               -5.1854103274 H         -141.1022 eV

SCC converged

Excitation Energy:                   0.0875269524 H            2.3817 eV

Total Forces
    1     -0.011909023643     -0.009706248268      0.034741777635
    2      0.009001465249     -0.011125186497     -0.037724880895
    3     -0.002527259592      0.017847401624      0.004358843181
    4     -0.015049751114     -0.003734307146     -0.000332113235
    5      0.010616018893      0.016394568803     -0.001023444506
    6      0.009868550207     -0.009676228516     -0.000020182179

Maximal derivative component:        0.377249E-01 au


