|===============================================================================
|
|  DFTB+ release 20.1
|
|  Copyright (C) 2006 - 2020  DFTB+ developers group
|
|===============================================================================
|
|  When publishing results obtained with DFTB+, please cite the following
|  reference:
|
|  * DFTB+, a software package for efficient approximate density functional
|    theory based atomistic simulations, J. Chem. Phys. 152, 124101 (2020).
|    [doi: 10.1063/1.5143190]
|
|  You should also cite additional publications crediting the parametrization
|  data you use. Please consult the documentation of the SK-files for the
|  references.
|
|===============================================================================

Reading input file 'dftb_in.hsd'
Parser version: 8

--------------------------------------------------------------------------------
Reading SK-files:
Done.


Processed input in HSD format written to 'dftb_pin.hsd'

Starting initialization...
--------------------------------------------------------------------------------
WARNING!
-> Excited state forces are not implemented yet for fractional occupations, kT=  0.3158E-02K
OpenMP threads:              1
Chosen random seed:          505978308
Mode:                        Static calculation
Self consistent charges:     Yes
SCC-tolerance:                 0.100000E-05
Max. scc iterations:                    100
Shell resolved Hubbard:      No
Spin polarisation:           No
Nr. of up electrons:             6.000000
Nr. of down electrons:           6.000000
Periodic boundaries:         No
Electronic solver:           Relatively robust
Mixer:                       Broyden mixer
Mixing parameter:                  0.200000
Maximal SCC-cycles:                     100
Nr. of chrg. vec. in memory:              0
Electronic temperature:        0.100000E-07 H      0.272114E-06 eV
Initial charges:             Set automatically (system chrg:   0.100E+01)
Included shells:             C:  s, p
                             N:  s, p
                             H:  s
Extra options:
                             Mulliken analysis
                             Force calculation
Force type                   original
                             Eigenvector printing

--------------------------------------------------------------------------------

***  Geometry step: 0

 iSCC Total electronic   Diff electronic      SCC error    
    1   -0.53478061E+01    0.00000000E+00    0.95835592E+00
    2   -0.53571427E+01   -0.93366492E-02    0.65289459E+00
    3   -0.53634526E+01   -0.63098649E-02    0.13857910E+00
    4   -0.53570836E+01    0.63690017E-02    0.33135153E+00
    5   -0.53644623E+01   -0.73786896E-02    0.19035227E-01
    6   -0.53644442E+01    0.18075735E-04    0.25122980E-01
    7   -0.53644717E+01   -0.27475524E-04    0.50242383E-02
    8   -0.53644724E+01   -0.76103856E-06    0.32180469E-02
    9   -0.53644729E+01   -0.50974016E-06    0.89768866E-04
   10   -0.53644729E+01   -0.96061825E-10    0.75374590E-04
   11   -0.53644729E+01   -0.30765079E-09    0.41995881E-05
   12   -0.53644729E+01   -0.92015284E-12    0.22095015E-08
>> Charges saved for restart in charges.bin

Total Energy:                       -5.0978833750 H         -138.7205 eV
Extrapolated to 0:                  -5.1854103274 H         -141.1022 eV
Total Mermin free energy:           -5.0978833750 H         -138.7205 eV
Force related energy:               -5.1854103274 H         -141.1022 eV

--------------------------------------------------------------------------------
DFTB+ running times                          cpu [s]             wall clock [s]
--------------------------------------------------------------------------------
SCC                                    +     0.01  ( 51.9%)      0.03  ( 61.1%)
Post-SCC processing                    +     0.01  ( 42.4%)      0.02  ( 29.6%)
--------------------------------------------------------------------------------
Missing                                +     0.00  (  5.7%)      0.01  (  9.3%)
Total                                  =     0.02  (100.0%)      0.05  (100.0%)
--------------------------------------------------------------------------------
