     6
  Step:     0            Position(A)                                  Velocity(au)
C        -0.04026950     0.00006824     0.03647561    -0.00015161     0.00002979     0.00001435
N        -0.03298156    -0.03981895     1.28314455     0.00011160     0.00001956     0.00006907
H         0.88838053     0.07782582    -0.52846397     0.00086439    -0.00003336    -0.00026231
H         0.75347475    -0.14435813     1.84592279     0.00002263    -0.00018183    -0.00054445
H        -0.95400357    -0.17453465     1.82264293    -0.00094251    -0.00013410     0.00012668
H        -0.96261286     0.12381367    -0.51373372     0.00031124    -0.00027744    -0.00045071
     6
  Step:     1            Position(A)                                  Velocity(au)
C        -0.04192962     0.00036932     0.03573479    -0.00014969     0.00002547    -0.00014867
N        -0.03206418    -0.03958454     1.28472345     0.00005449     0.00002332     0.00021751
H         0.89889982     0.07763725    -0.53242033     0.00102589    -0.00000391    -0.00043873
H         0.75663050    -0.14685861     1.84219051     0.00055558    -0.00027785    -0.00013402
H        -0.96289775    -0.17601668     1.82336452    -0.00065785    -0.00013334    -0.00000594
H        -0.96036000     0.12114033    -0.51987962     0.00010288    -0.00021234    -0.00067241
     6
  Step:     2            Position(A)                                  Velocity(au)
C        -0.04354417     0.00062545     0.03322327    -0.00014348     0.00002153    -0.00030586
N        -0.03178957    -0.03930887     1.28790303    -0.00000262     0.00002701     0.00035956
H         0.91082394     0.07774018    -0.53806198     0.00111930     0.00001987    -0.00056989
H         0.76562915    -0.15043672     1.84299093     0.00105507    -0.00037386     0.00025735
H        -0.96839537    -0.17745175     1.82251304    -0.00033484    -0.00012754    -0.00015189
H        -0.96036220     0.11916832    -0.52844387    -0.00009343    -0.00015023    -0.00088755
     6
  Step:     3            Position(A)                                  Velocity(au)
C        -0.04506849     0.00084031     0.02904362    -0.00013353     0.00001787    -0.00045055
N        -0.03212149    -0.03899374     1.29258953    -0.00005360     0.00003045     0.00049099
H         0.92338659     0.07807205    -0.54488785     0.00114347     0.00003806    -0.00065651
H         0.77971217    -0.15503758     1.84782055     0.00145630    -0.00046039     0.00058184
H        -0.97022300    -0.17880681     1.82004172    -0.00000018    -0.00012075    -0.00029350
H        -0.96240399     0.11785369    -0.53929641    -0.00026352    -0.00009296    -0.00108592
     6
  Step:     4            Position(A)                                  Velocity(au)
C        -0.04646543     0.00101648     0.02336658    -0.00012061     0.00001441    -0.00057722
N        -0.03296226    -0.03864276     1.29864428    -0.00009367     0.00003357     0.00060773
H         0.93583947     0.07857292    -0.55242439     0.00110215     0.00005101    -0.00070235
H         0.79748854    -0.16050870     1.85571989     0.00171395    -0.00052997     0.00080775
H        -0.96839933    -0.18009347     1.81609221     0.00031890    -0.00011724    -0.00041378
H        -0.96612725     0.11713455    -0.55220049    -0.00039605    -0.00004191    -0.00125869
     6
  Step:     5            Position(A)                                  Velocity(au)
C        -0.04770709     0.00115553     0.01641585    -0.00010556     0.00001105    -0.00068185
N        -0.03417080    -0.03825939     1.30588484    -0.00011971     0.00003649     0.00070594
H         0.94749826     0.07918800    -0.56025304     0.00100237     0.00005922    -0.00071300
H         0.81720813    -0.16663174     1.86549164     0.00180849    -0.00057836     0.00092331
H        -0.96324654    -0.18137156     1.81098939     0.00059395    -0.00012163    -0.00049623
H        -0.97106840     0.11693689    -0.56683273    -0.00048338     0.00000212    -0.00139914
     6
  Step:     6            Position(A)                                  Velocity(au)
C        -0.04877482     0.00125820     0.00844985    -0.00008921     0.00000773    -0.00076214
N        -0.03558114    -0.03784450     1.31408810    -0.00013012     0.00003954     0.00078229
H         0.95776815     0.07986854    -0.56802265     0.00085305     0.00006327    -0.00069486
H         0.83705272    -0.17316142     1.87591910     0.00174412    -0.00060465     0.00093405
H        -0.95540555    -0.18275443     1.80523632     0.00079595    -0.00013902    -0.00052530
H        -0.97670218     0.11718086    -0.58280944    -0.00052191     0.00003884    -0.00150308
     6
  Step:     7            Position(A)                                  Velocity(au)
C        -0.04965862     0.00132459    -0.00025749    -0.00007228     0.00000440    -0.00081745
N        -0.03701749    -0.03739427     1.32299889    -0.00012452     0.00004321     0.00083444
H         0.96616031     0.08057222    -0.57545453     0.00066424     0.00006378    -0.00065450
H         0.85536409    -0.17985959     1.88592572     0.00154148    -0.00061052     0.00085654
H        -0.94583353    -0.18441283     1.79949748     0.00089788    -0.00017456    -0.00048799
H        -0.98248622     0.11778669    -0.59971548    -0.00051192     0.00006846    -0.00156887
     6
  Step:     8            Position(A)                                  Velocity(au)
C        -0.05035603     0.00135443    -0.00943343    -0.00005543     0.00000103    -0.00084853
N        -0.03830532    -0.03689917     1.33234297    -0.00010354     0.00004800     0.00086140
H         0.97229964     0.08126385    -0.58234114     0.00044647     0.00006133    -0.00059820
H         0.87077545    -0.18651767     1.89465763     0.00122986    -0.00059933     0.00071234
H        -0.93576264    -0.18657319     1.79456061     0.00087976    -0.00023278    -0.00037644
H        -0.98790132     0.11867856    -0.61713143    -0.00045672     0.00009155    -0.00159697
     6
  Step:     9            Position(A)                                  Velocity(au)
C        -0.05087127     0.00134711    -0.01882065    -0.00003376     0.00000612    -0.00097576
N        -0.03928267    -0.03634418     1.34184377    -0.00007200     0.00005155     0.00095673
H         0.97592777     0.08191391    -0.58854139     0.00012329    -0.00002035    -0.00044752
H         0.88226955    -0.19297104     1.90150952     0.00080995    -0.00052735     0.00049601
H        -0.92658711    -0.18950537     1.79126212     0.00079334    -0.00036644    -0.00022968
H        -0.99247792     0.11978956    -0.63465216    -0.00032383     0.00012490    -0.00148661
     6
  Step:    10            Position(A)                                  Velocity(au)
C        -0.05109450     0.00148833    -0.03078008    -0.00000771     0.00001974    -0.00119594
N        -0.03988042    -0.03577140     1.35327326    -0.00003230     0.00005373     0.00111783
H         0.97499676     0.08081871    -0.59213146    -0.00028825    -0.00016107    -0.00021176
H         0.88849459    -0.19805445     1.90550877     0.00031485    -0.00041806     0.00022909
H        -0.91840682    -0.19458981     1.78953582     0.00064129    -0.00055154    -0.00005148
H        -0.99498579     0.12141096    -0.64965397    -0.00012715     0.00014886    -0.00124861
     6
  Step:    11            Position(A)                                  Velocity(au)
C        -0.05103996     0.00177889    -0.04498421     0.00001639     0.00003320    -0.00138312
N        -0.03998931    -0.03516866     1.36629835     0.00001509     0.00005742     0.00124662
H         0.96962172     0.07839012    -0.59317394    -0.00067536    -0.00027494     0.00000841
H         0.88915760    -0.20211695     1.90652122    -0.00018525    -0.00033283    -0.00003447
H        -0.91255774    -0.20157138     1.79013583     0.00037960    -0.00072655     0.00018682
H        -0.99525963     0.12304606    -0.66196780     0.00007590     0.00014076    -0.00100293
     6
  Step:    12            Position(A)                                  Velocity(au)
C        -0.05073588     0.00221468    -0.06103846     0.00003730     0.00004612    -0.00153383
N        -0.03955019    -0.03451514     1.38054553     0.00006469     0.00006308     0.00134214
H         0.96022188     0.07480383    -0.59194745    -0.00100945    -0.00037562     0.00019424
H         0.88444197    -0.20533567     1.90475461    -0.00064653    -0.00026406    -0.00026602
H        -0.91010245    -0.21048452     1.79362278     0.00004461    -0.00090573     0.00046288
H        -0.99332524     0.12449042    -0.67159509     0.00026786     0.00011926    -0.00076471
     6
  Step:    13            Position(A)                                  Velocity(au)
C        -0.05022387     0.00278786    -0.07853964     0.00005368     0.00005817    -0.00164830
N        -0.03857406    -0.03378858     1.39566016     0.00010943     0.00007071     0.00140712
H         0.94753816     0.07017267    -0.58892458    -0.00125924    -0.00046665     0.00032799
H         0.87501350    -0.20789368     1.90070149    -0.00102289    -0.00021538    -0.00043997
H        -0.91158178    -0.22138607     1.80026219    -0.00030943    -0.00108634     0.00074761
H        -0.98939960     0.12565520    -0.67869737     0.00043116     0.00009270    -0.00054829
     6
  Step:    14            Position(A)                                  Velocity(au)
C        -0.04956145     0.00348731    -0.09709816     0.00006397     0.00006906    -0.00172818
N        -0.03715619    -0.03296831     1.41132906     0.00014156     0.00008013     0.00144562
H         0.93267354     0.06459487    -0.58477198    -0.00139031    -0.00054868     0.00039227
H         0.86206436    -0.21004754     1.89512944    -0.00126524    -0.00019519    -0.00053199
H        -0.91687191    -0.23425038     1.80997819    -0.00062226    -0.00125883     0.00101113
H        -0.98389269     0.12651837    -0.68358992     0.00054831     0.00006637    -0.00036717
     6
  Step:    15            Position(A)                                  Velocity(au)
C        -0.04882439     0.00429864    -0.11634691     0.00006657     0.00007851    -0.00177562
N        -0.03547712    -0.03203565     1.42728590     0.00015403     0.00009122     0.00146172
H         0.91712241     0.05816934    -0.58034289    -0.00136816    -0.00062175     0.00037174
H         0.84733407    -0.21216373     1.88906322    -0.00132652    -0.00021392    -0.00052144
H        -0.92519480    -0.24892533     1.82238262    -0.00084157    -0.00141169     0.00122901
H        -0.97740422     0.12710722    -0.68672985     0.00060250     0.00004433    -0.00023350
     6
  Step:    16            Position(A)                                  Velocity(au)
C        -0.04810517     0.00520483    -0.13594321     0.00006037     0.00008635    -0.00179294
N        -0.03378638    -0.03097279     1.44330696     0.00014213     0.00010394     0.00145904
H         0.90274249     0.05099292    -0.57663941    -0.00116621    -0.00068669     0.00025702
H         0.83304420    -0.21472749     1.88372195    -0.00117322    -0.00028121    -0.00039701
H        -0.93528295    -0.26513377     1.83686505    -0.00093415    -0.00153519     0.00138643
H        -0.97071186     0.12748828    -0.68869808     0.00057915     0.00002982    -0.00015700
     6
  Step:    17            Position(A)                                  Velocity(au)
C        -0.04750377     0.00618773    -0.15557081     0.00004556     0.00009258    -0.00178279
N        -0.03236776    -0.02976178     1.45920512     0.00010494     0.00011823     0.00144085
H         0.89160932     0.04314658    -0.57472002    -0.00077818    -0.00074578     0.00004984
H         0.82166774    -0.21831575     1.88037780    -0.00080183    -0.00040170    -0.00016408
H        -0.94563108    -0.28251056     1.85271342    -0.00088972    -0.00162368     0.00147899
H        -0.96473423     0.12775954    -0.69016442     0.00046851     0.00002512    -0.00014341
     6
  Step:    18            Position(A)                                  Velocity(au)
C        -0.04710848     0.00723017    -0.17494516     0.00002438     0.00009739    -0.00174862
N        -0.03149055    -0.02838635     1.47482823     0.00004622     0.00013370     0.00141056
H         0.88571829     0.03467744    -0.57554916    -0.00023030    -0.00080277    -0.00023303
H         0.81550262    -0.22351536     1.88013247    -0.00025313    -0.00057056     0.00015029
H        -0.95474732    -0.30065478     1.86922068    -0.00071840    -0.00167628     0.00151055
H        -0.96046240     0.12803780    -0.69183545     0.00026900     0.00003125    -0.00019277
     6
  Step:    19            Position(A)                                  Velocity(au)
C        -0.04697046     0.00831828    -0.19382513     0.00000119     0.00010114    -0.00169515
N        -0.03135654    -0.02683685     1.49006372    -0.00002599     0.00014945     0.00137217
H         0.88657096     0.02558447    -0.57981807     0.00041429    -0.00086182    -0.00056012
H         0.81612997    -0.23079794     1.88366570     0.00038647    -0.00077126     0.00049932
H        -0.96134742    -0.31918233     1.88575970    -0.00044422    -0.00169635     0.00149017
H        -0.95884930     0.12844320    -0.69438162    -0.00000954     0.00004761    -0.00029807
     6
  Step:    20            Position(A)                                  Velocity(au)
C        -0.04708244     0.00944270    -0.21202970    -0.00001848     0.00010421    -0.00162825
N        -0.03205917    -0.02511695     1.50484707    -0.00010119     0.00016408     0.00133003
H         0.89478177     0.01582353    -0.58780289     0.00106588    -0.00092563    -0.00089176
H         0.82395733    -0.24038814     1.89105613     0.00100334    -0.00097771     0.00082755
H        -0.96446546    -0.33776575     1.90182099    -0.00009837    -0.00169031     0.00142919
H        -0.96067116     0.12907930    -0.69835625    -0.00034442     0.00007174    -0.00044521
     6
  Step:    21            Position(A)                                  Velocity(au)
C        -0.04737482     0.01059812    -0.22944612    -0.00002978     0.00010691    -0.00155394
N        -0.03357030    -0.02324720     1.51916059    -0.00016911     0.00017617     0.00128782
H         0.90988916     0.00533449    -0.59932705     0.00163131    -0.00099391    -0.00119040
H         0.83808001    -0.25218732     1.90176993     0.00148914    -0.00116123     0.00108640
H        -0.96349938    -0.35616100     1.91702595     0.00028598    -0.00166646     0.00133951
H        -0.96638420     0.13001264    -0.70412151    -0.00070154     0.00009954    -0.00061468
     6
  Step:    22            Position(A)                                  Velocity(au)
C        -0.04773402     0.01178153    -0.24602513    -0.00003017     0.00010935    -0.00147737
N        -0.03575873    -0.02126281     1.53302063    -0.00022209     0.00018473     0.00124779
H         0.93046973    -0.00592017    -0.61384512     0.00203896    -0.00106342    -0.00142957
H         0.85653521    -0.26579221     1.91482323     0.00177053    -0.00129836     0.00124639
H        -0.95820907    -0.37422270     1.93112543     0.00067667    -0.00163433     0.00123273
H        -0.97601875     0.13125699    -0.71180358    -0.00104048     0.00012603    -0.00078474
     6
  Step:    23            Position(A)                                  Velocity(au)
C        -0.04803483     0.01299046    -0.26176649    -0.00001995     0.00011154    -0.00140217
N        -0.03842884    -0.01920590     1.54645830    -0.00025607     0.00018955     0.00121048
H         0.95449530    -0.01792993    -0.63060161     0.00225281    -0.00112931    -0.00159749
H         0.87681368    -0.28059133     1.92903712     0.00182143    -0.00137591     0.00130016
H        -0.94869587    -0.39191520     1.94399418     0.00104393    -0.00160429     0.00111985
H        -0.98914661     0.13276980    -0.72128920    -0.00132199     0.00014636    -0.00093547
     6
  Step:    24            Position(A)                                  Velocity(au)
C        -0.04817056     0.01422172    -0.27670026    -0.00000160     0.00011339    -0.00133033
N        -0.04136068    -0.01711602     1.55950224    -0.00027018     0.00019123     0.00117519
H         0.97975424    -0.03062609    -0.64879329     0.00227136    -0.00118673    -0.00169503
H         0.89638237    -0.29589280     1.94326673     0.00165646    -0.00139132     0.00125741
H        -0.93537110    -0.40931967     1.95562437     0.00136120    -0.00158720     0.00101124
H        -1.00493979     0.13445900    -0.73226879    -0.00151540     0.00015681    -0.00105217
     6
  Step:    25            Position(A)                                  Velocity(au)
C        -0.04806993     0.01547097    -0.29087004     0.00002154     0.00011478    -0.00126255
N        -0.04433951    -0.01502240     1.57216785    -0.00026565     0.00019089     0.00114053
H         1.00418559    -0.04389182    -0.66768372     0.00211676    -0.00123211    -0.00173081
H         0.91305181    -0.31102922     1.95654547     0.00131497    -0.00134968     0.00113698
H        -0.91891707    -0.42663820     1.96611694     0.00160607    -0.00159392     0.00091617
H        -1.02229880     0.13620030    -0.74430752    -0.00160286     0.00015535    -0.00112685
     6
  Step:    26            Position(A)                                  Velocity(au)
C        -0.04769933     0.01673266    -0.30432103     0.00004638     0.00011561    -0.00119864
N        -0.04717237    -0.01293983     1.58445347    -0.00024485     0.00018987     0.00110500
H         1.02606249    -0.05758094    -0.68665806     0.00182216    -0.00126355    -0.00171645
H         0.92514995    -0.32541958     1.96814041     0.00084553    -0.00125994     0.00096001
H        -0.90023521    -0.44418982     1.97566724     0.00176233    -0.00163426     0.00084196
H        -1.04000545     0.13785755    -0.75692076    -0.00158012     0.00014175    -0.00115794
     6
  Step:    27            Position(A)                                  Velocity(au)
C        -0.04705527     0.01800013    -0.31709265     0.00007063     0.00011579    -0.00113793
N        -0.04969615    -0.01086870     1.59634193    -0.00021076     0.00018932     0.00106741
H         1.04404873    -0.07153449    -0.70523430     0.00142234    -0.00128053    -0.00166351
H         0.93154940    -0.33859282     1.97754747     0.00029625    -0.00113227     0.00074616
H        -0.88036278    -0.46239077     1.98453652     0.00182256    -0.00171502     0.00079265
H        -1.05686686     0.13930142    -0.76963960    -0.00145405     0.00011722    -0.00114873
     6
  Step:    28            Position(A)                                  Velocity(au)
C        -0.04615410     0.01926586    -0.32921545     0.00009288     0.00011527    -0.00107957
N        -0.05178311    -0.00879810     1.60780508    -0.00016690     0.00019003     0.00102699
H         1.05717896    -0.08559502    -0.72305047     0.00094918    -0.00128361    -0.00158212
H         0.93163095    -0.35019009     1.98446417    -0.00028845    -0.00097685     0.00051264
H        -0.86036312    -0.48170917     1.99300788     0.00179052    -0.00183759     0.00076751
H        -1.07181548     0.14042188    -0.78205143    -0.00123874     0.00008380    -0.00110529
     6
  Step:    29            Position(A)                                  Velocity(au)
C        -0.04502330     0.02052179    -0.34071027     0.00011239     0.00011400    -0.00102268
N        -0.05334741    -0.00671133     1.61880938    -0.00011748     0.00019224     0.00098350
H         1.06481380    -0.09961590    -0.73984618     0.00043035    -0.00127407    -0.00148080
H         0.92523909    -0.35996334     1.98876246    -0.00086716    -0.00080407     0.00027466
H        -0.84119163    -0.50259154     2.00132733     0.00168224    -0.00199559     0.00076024
H        -1.08396674     0.14113475    -0.79382000    -0.00095209     0.00004397    -0.00103488
     6
  Step:    30            Position(A)                                  Velocity(au)
C        -0.04369534     0.02175979    -0.35158852     0.00012882     0.00011201    -0.00096642
N        -0.05435329    -0.00459254     1.62932107    -0.00006745     0.00019560     0.00093706
H         1.06659368    -0.11346766    -0.75544574    -0.00010987    -0.00125374    -0.00136685
H         0.91266019    -0.36778072     1.99047286    -0.00139892    -0.00062542     0.00004668
H        -0.82356101    -0.52536653     2.00963961     0.00152428    -0.00217385     0.00075927
H        -1.09264436     0.14138384    -0.80469135    -0.00061326     0.00000025    -0.00094486
     6
  Step:    31            Position(A)                                  Velocity(au)
C        -0.04220515     0.02297227    -0.36185264     0.00014198     0.00010939    -0.00090999
N        -0.05482291    -0.00243231     1.63930938    -0.00002228     0.00019940     0.00088795
H         1.06241022    -0.12704386    -0.76974859    -0.00064921    -0.00122503    -0.00124695
H         0.89463502    -0.37364552     1.98978361    -0.00184054    -0.00045468    -0.00015646
H        -0.80784503    -0.55014867     2.01793782     0.00134889    -0.00234972     0.00074987
H        -1.09738306     0.14114032    -0.81449060    -0.00024135    -0.00004492    -0.00084223
     6
  Step:    32            Position(A)                                  Velocity(au)
C        -0.04058920     0.02415290    -0.37149634     0.00015171     0.00010629    -0.00085257
N        -0.05484080    -0.00023033     1.64874675     0.00001236     0.00020289     0.00083635
H         1.05239087    -0.14026747    -0.78272523    -0.00116609    -0.00119100    -0.00112773
H         0.87239491    -0.37772775     1.98704991    -0.00214559    -0.00030879    -0.00031906
H        -0.79405151    -0.57677112     2.02604451     0.00118717    -0.00249684     0.00071741
H        -1.09792439     0.14040123    -0.82311682     0.00014492    -0.00008924    -0.00073357
     6
  Step:    33            Position(A)                                  Velocity(au)
C        -0.03888611     0.02529748    -0.38050426     0.00015775     0.00010294    -0.00079329
N        -0.05455253     0.00200628     1.65760618     0.00003136     0.00020560     0.00078215
H         1.03689985    -0.15309936    -0.79441984    -0.00163823    -0.00115566    -0.00101629
H         0.84769607    -0.38040093     1.98280367    -0.00226716    -0.00020724    -0.00042540
H        -0.78187347    -0.60477190     2.03363258     0.00106286    -0.00259034     0.00065068
H        -1.09421273     0.13918803    -0.83053887     0.00052701    -0.00013053    -0.00062516
     6
  Step:    34            Position(A)                                  Velocity(au)
C        -0.03713808     0.02640500    -0.38885101     0.00015969     0.00009971    -0.00073116
N        -0.05415485     0.00426763     1.66585778     0.00003095     0.00020748     0.00072501
H         1.01655147    -0.16554982    -0.80495863    -0.00204173    -0.00112424    -0.00092078
H         0.82279646    -0.38226144     1.97774351    -0.00216607    -0.00016891    -0.00046264
H        -0.77079934    -0.63343973     2.04027949     0.00098862    -0.00261159     0.00054418
H        -1.08639494     0.13754567    -0.83679346     0.00088620    -0.00016664    -0.00052326
     6
  Step:    35            Position(A)                                  Velocity(au)
C        -0.03539263     0.02747893    -0.39649969     0.00015696     0.00009708    -0.00066504
N        -0.05387542     0.00654532     1.67346719     0.00000978     0.00020862     0.00066467
H         0.99223320    -0.17769420    -0.81456376    -0.00235051    -0.00110355    -0.00085076
H         0.80030913    -0.38409625     1.97268262    -0.00182463    -0.00020577    -0.00042534
H        -0.76024560    -0.66190535     2.04553748     0.00096565    -0.00255110     0.00039859
H        -1.07482531     0.13554237    -0.84198618     0.00120315    -0.00019544    -0.00043429
     6
  Step:    36            Position(A)                                  Velocity(au)
C        -0.03370426     0.02852888    -0.40340010     0.00014896     0.00009567    -0.00059366
N        -0.05394079     0.00883160     1.68039875    -0.00003020     0.00020870     0.00060136
H         0.96512947    -0.18969212    -0.82357054    -0.00253746    -0.00110215    -0.00081706
H         0.78287914    -0.38676308     1.96843829    -0.00126183    -0.00031448    -0.00032033
H        -0.74967392    -0.68924991     2.04899931     0.00098620    -0.00240887     0.00021979
H        -1.06007362     0.13327008    -0.84629440     0.00145772    -0.00021470    -0.00036503
     6
  Step:    37            Position(A)                                  Velocity(au)
C        -0.03213392     0.02957199    -0.40948720     0.00013529     0.00009621    -0.00051569
N        -0.05453602     0.01111105     1.68662319    -0.00008342     0.00020645     0.00053608
H         0.93672139    -0.20180575    -0.83243842    -0.00257804    -0.00112976    -0.00083059
H         0.77270421    -0.39097613     1.96567475    -0.00054124    -0.00047042    -0.00016854
H        -0.73867062    -0.71460389     2.05034571     0.00103698    -0.00219293     0.00001706
H        -1.04293480     0.13084536    -0.84997194     0.00162947    -0.00022219    -0.00032248
     6
  Step:    38            Position(A)                                  Velocity(au)
C        -0.03074464     0.03063367    -0.41468189     0.00011622     0.00009939    -0.00043005
N        -0.05576578     0.01334808     1.69212660    -0.00014151     0.00019960     0.00047044
H         0.90872991    -0.21440773    -0.84174122    -0.00245705    -0.00119570    -0.00089954
H         0.77103846    -0.39705452     1.96475120     0.00023697    -0.00062938    -0.00000135
H        -0.72698794    -0.73722452     2.04937250     0.00110248    -0.00191710    -0.00019871
H        -1.02442586     0.12840930    -0.85334925     0.00169918    -0.00021574    -0.00031331
     6
  Step:    39            Position(A)                                  Velocity(au)
C        -0.02959128     0.03174627    -0.41889541     0.00009321     0.00010564    -0.00033634
N        -0.05763191     0.01547763     1.69691503    -0.00019526     0.00018554     0.00040613
H         0.88296871    -0.22796403    -0.85211749    -0.00217731    -0.00130593    -0.00102510
H         0.77788842    -0.40474503     1.96564530     0.00096080    -0.00073896     0.00014828
H        -0.71455186    -0.75654423     2.04599866     0.00116724    -0.00159866    -0.00041638
H        -1.00576192     0.12612563    -0.85682619     0.00165193    -0.00019357    -0.00034269
     6
  Step:    40            Position(A)                                  Velocity(au)
C        -0.02870548     0.03294481    -0.42203993     0.00006906     0.00011489    -0.00023536
N        -0.06003740     0.01740713     1.70101148    -0.00023687     0.00016240     0.00034426
H         0.86109706    -0.24297742    -0.86416732    -0.00176656    -0.00145939    -0.00119712
H         0.79205772    -0.41322062     1.96799513     0.00153683    -0.00075486     0.00025549
H        -0.70145240    -0.77219834     2.04026334     0.00121705    -0.00125676    -0.00062539
H        -0.98828674     0.12417449    -0.86084618     0.00148144    -0.00015470    -0.00041243
     6
  Step:    41            Position(A)                                  Velocity(au)
C        -0.02808046     0.03425972    -0.42404426     0.00004758     0.00012633    -0.00012943
N        -0.06281397     0.01903037     1.70444640    -0.00026153     0.00012983     0.00028501
H         0.84432173    -0.25989099    -0.87830674    -0.00127745    -0.00164540    -0.00139214
H         0.81150959    -0.42125902     1.97123470     0.00191073    -0.00065300     0.00030882
H        -0.68792662    -0.78403835     2.03231698     0.00123927    -0.00091154    -0.00081613
H        -0.97335260     0.12274131    -0.86584879     0.00119488    -0.00009941    -0.00051887
     6
  Step:    42            Position(A)                                  Velocity(au)
C        -0.02766463     0.03570844    -0.42487148     0.00003248     0.00013847    -0.00002233
N        -0.06575894     0.02024730     1.70724671    -0.00026755     0.00008915     0.00022770
H         0.83315033    -0.27897371    -0.89462307    -0.00077792    -0.00184409    -0.00157628
H         0.83385866    -0.42750632     1.97475124     0.00206991    -0.00043190     0.00030952
H        -0.67434108    -0.79213997     2.02240884     0.00122283    -0.00058343    -0.00098017
H        -0.96214650     0.12199969    -0.87219751     0.00081609    -0.00002947    -0.00065119
     6
  Step:    43            Position(A)                                  Velocity(au)
C        -0.02736995     0.03728907    -0.42453270     0.00002606     0.00014950     0.00008140
N        -0.06866705     0.02098075     1.70942777    -0.00025561     0.00004296     0.00017112
H         0.82730327    -0.30023391    -0.91279098    -0.00033455    -0.00203056    -0.00171290
H         0.85679291    -0.43070766     1.97800595     0.00203292    -0.00010721     0.00026693
H        -0.66117498    -0.79680191     2.01087387     0.00115836    -0.00029268    -0.00111056
H        -0.95549901     0.12209668    -0.88009484     0.00038476     0.00005205    -0.00079134
     6
  Step:    44            Position(A)                                  Velocity(au)
C        -0.02709459     0.03897906    -0.42309070     0.00002836     0.00015770     0.00017737
N        -0.07135079     0.02118716     1.71099025    -0.00022776    -0.00000553     0.00011398
H         0.82583141    -0.32339618    -0.93209600     0.00000334    -0.00218118    -0.00177188
H         0.87833267    -0.42985179     1.98059075     0.00183463     0.00029636     0.00019336
H        -0.64899977    -0.79854294     1.99811331     0.00103876    -0.00005861    -0.00120236
H        -0.95372913     0.12313827    -0.88950965    -0.00004968     0.00014114    -0.00091651
     6