|===============================================================================
|
|  DFTB+ release 20.1
|
|  Copyright (C) 2006 - 2020  DFTB+ developers group
|
|===============================================================================
|
|  When publishing results obtained with DFTB+, please cite the following
|  reference:
|
|  * DFTB+, a software package for efficient approximate density functional
|    theory based atomistic simulations, J. Chem. Phys. 152, 124101 (2020).
|    [doi: 10.1063/1.5143190]
|
|  You should also cite additional publications crediting the parametrization
|  data you use. Please consult the documentation of the SK-files for the
|  references.
|
|===============================================================================

Reading input file 'dftb_in.hsd'
Parser version: 8

--------------------------------------------------------------------------------
Reading SK-files:
Done.


Processed input in HSD format written to 'dftb_pin.hsd'

Starting initialization...
--------------------------------------------------------------------------------
OpenMP threads:              1
Chosen random seed:          509432509
Mode:                        Static calculation
Self consistent charges:     Yes
SCC-tolerance:                 0.100000E-05
Max. scc iterations:                   1000
Shell resolved Hubbard:      No
Spin polarisation:           No
Nr. of up electrons:             6.000000
Nr. of down electrons:           6.000000
Periodic boundaries:         No
Electronic solver:           Relatively robust
Maximal SCC-cycles:                    1000
Initial charges:             Set automatically (system chrg:   0.100E+01)
Included shells:             C:  s, p
                             N:  s, p
                             H:  s
Spin coupling constants:     C   1(s)-1(s):  -0.455900E-01
                             C   1(s)-2(p):  -0.293000E-01
                             C   2(p)-1(s):  -0.293000E-01
                             C   2(p)-2(p):  -0.275500E-01
                             N   1(s)-1(s):  -0.468700E-01
                             N   1(s)-2(p):  -0.317000E-01
                             N   2(p)-1(s):  -0.317000E-01
                             N   2(p)-2(p):  -0.307200E-01
                             H   1(s)-1(s):  -0.792500E-01
Range separated hybrid:      Yes
  Screening parameter omega:   0.300000E+00
  Range separated algorithm:   MatrixBased
Extra options:
                             Mulliken analysis
                             Force calculation
Force type                   original
                             Eigenvector printing


REKS Calcuation:             Yes
SSR(2,2) Calcuation:         Yes
Energy Functional:           (PPS+OSS)/2
Number of Core Orbitals:                  5
Number of Active Orbitals:                2
Number of Basis:                         12
Number of States:                         2
State-Averaging Weight:          0.500000
                                 0.500000
State of Interest:                        1
Initial Guess:               Diagonalize H0 matrix
Newton-Raphson for FON opt:  Yes
NR max. Iterations:                      50
Level Shifting:              Yes
Shift Value:                     0.300000
W Scale Factor:              C  =    3.000000
                             N  =    3.000000
                             H  =    3.000000
Transition Dipole:           No
Gradient of Microstate:      No
CP-REKS Solver:              Preconditioned Conjugate-Gradient
CG max. Iterations:                     100
CG Tolerance:                  0.100000E-07
Memory for A and Hxc:        Direct Updating Without Saving
Non-Adiabatic Coupling:      Yes

--------------------------------------------------------------------------------

***  Geometry step: 0

  iSCC       reks energy        Diff energy         x_a       SCC error   
    1       -6.2643625388       0.0000000000     0.999596    1.19677275
    2       -6.2763760220      -0.0120134832     0.999822    0.08768948
    3       -6.2804494619      -0.0040734399     0.999899    0.03564549
    4       -6.2825969421      -0.0021474802     0.999933    0.01630878
    5       -6.2838253153      -0.0012283732     0.999950    0.00906399
    6       -6.2845386416      -0.0007133263     0.999958    0.00791236
    7       -6.2849506013      -0.0004119597     0.999963    0.00654025
    8       -6.2851861123      -0.0002355110     0.999966    0.00521275
    9       -6.2853196239      -0.0001335116     0.999968    0.00405131
   10       -6.2853949615      -0.0000753376     0.999969    0.00309366
   11       -6.2854374431      -0.0000424816     0.999969    0.00233353
   12       -6.2854614637      -0.0000240205     0.999970    0.00174531
   13       -6.2854751205      -0.0000136568     0.999970    0.00137087
   14       -6.2854829434      -0.0000078229     0.999970    0.00109884
   15       -6.2854874641      -0.0000045207     0.999970    0.00087996
   16       -6.2854901014      -0.0000026373     0.999970    0.00070409
   17       -6.2854916547      -0.0000015533     0.999970    0.00056292
   18       -6.2854925780      -0.0000009234     0.999970    0.00044973
   19       -6.2854931317      -0.0000005537     0.999970    0.00035905
   20       -6.2854934663      -0.0000003346     0.999970    0.00028646
   21       -6.2854936699      -0.0000002036     0.999970    0.00022842
   22       -6.2854937945      -0.0000001246     0.999970    0.00018204
   23       -6.2854938712      -0.0000000767     0.999970    0.00014500
   24       -6.2854939186      -0.0000000474     0.999970    0.00011545
   25       -6.2854939480      -0.0000000294     0.999970    0.00009263
   26       -6.2854939663      -0.0000000183     0.999970    0.00007426
   27       -6.2854939777      -0.0000000114     0.999970    0.00005946
   28       -6.2854939848      -0.0000000071     0.999970    0.00004755
   29       -6.2854939892      -0.0000000045     0.999970    0.00003799
   30       -6.2854939920      -0.0000000028     0.999970    0.00003033
   31       -6.2854939938      -0.0000000017     0.999970    0.00002420
   32       -6.2854939949      -0.0000000011     0.999970    0.00001929
   33       -6.2854939955      -0.0000000007     0.999970    0.00001537
   34       -6.2854939960      -0.0000000004     0.999970    0.00001224
   35       -6.2854939963      -0.0000000003     0.999970    0.00000974
   36       -6.2854939964      -0.0000000002     0.999970    0.00000775
   37       -6.2854939965      -0.0000000001     0.999970    0.00000617
   38       -6.2854939966      -0.0000000001     0.999970    0.00000490
   39       -6.2854939966      -0.0000000000     0.999970    0.00000390
   40       -6.2854939967      -0.0000000000     0.999970    0.00000310
   41       -6.2854939967      -0.0000000000     0.999970    0.00000246
   42       -6.2854939967      -0.0000000000     0.999970    0.00000196
   43       -6.2854939967      -0.0000000000     0.999970    0.00000155
   44       -6.2854939967      -0.0000000000     0.999970    0.00000123
   45       -6.2854939967      -0.0000000000     0.999970    0.00000098
  
--------------------------------------------------
 Final SA-REKS(2,2) energy:      -6.28549400
  
 State     Energy      FON(1)    FON(2)   Spin
  PPS   -6.41596302   1.999941  0.000059  0.00
  OSS   -6.15502497   1.000000  1.000000  0.00
 Trip   -6.23394538   1.000000  1.000000  1.00
--------------------------------------------------

 Lagrangian Wab:  -0.00287404 -0.00287394

--------------------------------------------------
 SSR: 2SI-2SA-REKS(2,2) Hamiltonian matrix
               PPS           OSS
   PPS    -6.41596302   -0.00404232
   OSS    -0.00404232   -6.15502497
--------------------------------------------------

----------------------------------------------------------------
 SSR: 2SI-2SA-REKS(2,2) states
                    E_n       C_{PPS}    C_{OSS}
 SSR state  1   -6.41602563  -0.999880  -0.015486
 SSR state  2   -6.15496236   0.015486  -0.999880
----------------------------------------------------------------

 unrelaxed SSR FONs for S0:  1.999701  0.000299

Total Energy:                       -6.4160256299 H         -174.5889 eV
Extrapolated to 0:                  -6.4160256299 H         -174.5889 eV

----------------------------------------------------------------------------------
 Solving CP-REKS equation for  1 state vector...
----------------------------------------------------------------------------------
  CG solver: Constructing Y initial guess
  CG solver: Iteration    1    eps =    0.000060074777
  CG solver: Iteration    2    eps =    0.000008524474
  CG solver: Iteration    3    eps =    0.000000332234
  CG solver: Iteration    4    eps =    0.000000048972
  CG solver: Iteration    5    eps =    0.000000005858
  Convergence reached in CG solver after    5 iterations
  CG solver: Calculating converged R, Z, Q2 matrix
----------------------------------------------------------------------------------

----------------------------------------------------------------------------------
 Solving CP-REKS equation for SI between  1 and  2 state vectors...
----------------------------------------------------------------------------------
  CG solver: Constructing Y initial guess
  CG solver: Iteration    1    eps =    0.000740545172
  CG solver: Iteration    2    eps =    0.000448987454
  CG solver: Iteration    3    eps =    0.000153683582
  CG solver: Iteration    4    eps =    0.000001930665
  CG solver: Iteration    5    eps =    0.000000239640
  CG solver: Iteration    6    eps =    0.000000005178
  Convergence reached in CG solver after    6 iterations
  CG solver: Calculating converged R, Z, Q2 matrix
----------------------------------------------------------------------------------

--------------------------------------------------
 Gradient Information
--------------------------------------------------
           1 st state (SSR)
     0.00035293     0.00064881     0.03279894
     0.00239212    -0.00620860    -0.02788719
    -0.00237203     0.00702532    -0.00424728
    -0.00148076    -0.00503140     0.00150024
    -0.00054860     0.01026470     0.00506059
     0.00165635    -0.00669883    -0.00722530

           2 st state (SSR)
     0.00207173    -0.00991524     0.13658001
     0.00484554     0.01272200    -0.15452804
    -0.01556011    -0.00667044     0.01567718
    -0.00816070     0.00515575    -0.00735789
     0.00343552    -0.00737826    -0.00453535
     0.01336801     0.00608620     0.01416409
--------------------------------------------------
 Coupling Information
--------------------------------------------------
 between  1 and  2 states
--------------------------------------------------
 g vector - difference gradient
    -0.00082531     0.00528533    -0.05196719
    -0.00129461    -0.00949782     0.06337276
     0.00660817     0.00707921    -0.00995692
     0.00332666    -0.00532191     0.00444497
    -0.00192853     0.00906729     0.00481552
    -0.00588638    -0.00661211    -0.01070914

 h vector - derivative coupling
    -0.00111378    -0.00002493     0.00167047
     0.00217256     0.00090290    -0.00070824
    -0.00035402    -0.00736038    -0.00032576
     0.00048128     0.00729090    -0.00044489
    -0.00208137    -0.00779690    -0.00049223
     0.00089534     0.00698841     0.00030065

 G vector - GDV
    -0.00085940     0.00528203    -0.05189053
    -0.00122671    -0.00946530     0.06332043
     0.00659404     0.00684788    -0.00996223
     0.00333997    -0.00509357     0.00442906
    -0.00199206     0.00882148     0.00479797
    -0.00585583    -0.00639252    -0.01069470

 H vector - DCV - non-adiabatic coupling
    -0.00416639    -0.00072240     0.01256016
     0.00847155     0.00458355    -0.01022908
    -0.00213930    -0.02902009    -0.00006609
     0.00144802     0.02854562    -0.00223062
    -0.00774008    -0.03092721    -0.00245581
     0.00412619     0.02754053     0.00242144
--------------------------------------------------


--------------------------------------------------------------------------------
DFTB+ running times                          cpu [s]             wall clock [s]
--------------------------------------------------------------------------------
SCC                                    +     0.03  ( 74.5%)      0.04  ( 70.0%)
Post-SCC processing                    +     0.01  ( 21.2%)      0.01  ( 20.0%)
--------------------------------------------------------------------------------
Missing                                +     0.00  (  4.3%)      0.01  ( 10.0%)
Total                                  =     0.04  (100.0%)      0.05  (100.0%)
--------------------------------------------------------------------------------
