    14
  Step:     0            Position(A)                                  Velocity(au)
C        -6.03860975    -0.74395870    -0.14528750    -0.00050161    -0.00027604     0.00014227
C        -4.67626280    -0.76876954     0.12972928     0.00031300     0.00009485    -0.00007972
H        -6.45539232     0.23035978    -0.48361807     0.00016004    -0.00037825    -0.00007571
H        -6.71553103    -1.67867016    -0.11127562    -0.00039499     0.00026253    -0.00079229
H        -4.17468345    -1.72254581     0.42980149     0.00013030     0.00096094     0.00042283
C        -3.89888976     0.41497984     0.02074937     0.00004592     0.00013805    -0.00010519
C        -2.52669324     0.52137986     0.21397686    -0.00016802    -0.00007918    -0.00013021
H        -4.40862958     1.34295183    -0.23067516     0.00032078    -0.00068102     0.00074220
H        -2.08130441    -0.29254261     0.65206724    -0.00062021     0.00024569    -0.00006263
C        -1.81293624     1.73691601    -0.05394049     0.00045905     0.00008170     0.00033476
H        -2.41441361     2.62568010    -0.45125545    -0.00012154    -0.00073276    -0.00050825
N        -0.56303922     1.77662219     0.18895107    -0.00007153    -0.00001201    -0.00022616
H         0.00227684     2.63950214     0.00373142     0.00042392    -0.00048285     0.00076412
H        -0.05180046     0.97843030     0.61040801    -0.00067196     0.00145672     0.00072315
    14
  Step:     1            Position(A)                                  Velocity(au)
C        -6.04425752    -0.74704022    -0.14377321    -0.00052643    -0.00028629     0.00013480
C        -4.67269594    -0.76774826     0.12888022     0.00033542     0.00009384    -0.00007615
H        -6.45375733     0.22527023    -0.48422041     0.00013162    -0.00054168    -0.00003735
H        -6.71855146    -1.67392688    -0.11986168    -0.00016577     0.00058685    -0.00077256
H        -4.17369084    -1.71119648     0.43405946     0.00006274     0.00108988     0.00035944
C        -3.89890106     0.41641141     0.01953392    -0.00004858     0.00012025    -0.00011649
C        -2.52821793     0.52084976     0.21249913    -0.00010792    -0.00001638    -0.00013973
H        -4.40554567     1.33558332    -0.22258373     0.00022347    -0.00062957     0.00072583
H        -2.08603552    -0.29208166     0.65272984    -0.00024237    -0.00016750     0.00018748
C        -1.80864296     1.73764120    -0.05038242     0.00032070     0.00004925     0.00031475
H        -2.41422066     2.61640350    -0.45623047     0.00015776    -0.00095206    -0.00040131
N        -0.56318722     1.77663971     0.18656418     0.00004536     0.00001697    -0.00021058
H         0.00610877     2.63281351     0.01248928     0.00028230    -0.00071769     0.00082873
H        -0.05978878     0.99522411     0.61773700    -0.00076077     0.00156462     0.00063962
    14
  Step:     2            Position(A)                                  Velocity(au)
C        -6.05012634    -0.75022186    -0.14233856    -0.00054168    -0.00029389     0.00012780
C        -4.66892487    -0.76671653     0.12806331     0.00035047     0.00009742    -0.00007402
H        -6.45251289     0.21850950    -0.48443524     0.00008743    -0.00067905    -0.00000635
H        -6.71915755    -1.66583159    -0.12817683     0.00003890     0.00086485    -0.00074307
H        -4.17331082    -1.69870259     0.43766500     0.00002148     0.00116493     0.00030576
C        -3.89995248     0.41761063     0.01820102    -0.00014390     0.00009543    -0.00012661
C        -2.52905417     0.52102142     0.21092006    -0.00004146     0.00004642    -0.00014744
H        -4.40374071     1.32917876    -0.21479617     0.00008780    -0.00050658     0.00068791
H        -2.08660673    -0.29620701     0.65616871     0.00012328    -0.00056301     0.00042908
C        -1.80592021     1.73799352    -0.04705471     0.00017543     0.00001335     0.00029340
H        -2.41096233     2.60485204    -0.46003477     0.00043132    -0.00114079    -0.00029854
N        -0.56204692     1.77699340     0.18434423     0.00016069     0.00004885    -0.00019630
H         0.00845278     2.62380141     0.02186145     0.00016167    -0.00089372     0.00087384
H        -0.06844385     1.01265941     0.62440096    -0.00078815     0.00156647     0.00060777
    14
  Step:     3            Position(A)                                  Velocity(au)
C        -6.05610779    -0.75346970    -0.14097729    -0.00054681    -0.00029784     0.00012146
C        -4.66502877    -0.76561704     0.12726095     0.00035858     0.00010670    -0.00007360
H        -6.45184463     0.21041464    -0.48435940     0.00002551    -0.00078163     0.00001453
H        -6.71770037    -1.65500668    -0.13611781     0.00020350     0.00107483    -0.00070471
H        -4.17322086    -1.68571150     0.44074853     0.00001204     0.00117710     0.00026577
C        -3.90204911     0.41849914     0.01676399    -0.00023928     0.00006377    -0.00013554
C        -2.52912500     0.52186533     0.20927355     0.00003216     0.00010425    -0.00015102
H        -4.40362485     1.32450102    -0.20753442    -0.00008199    -0.00032014     0.00063189
H        -2.08333856    -0.30439852     0.66211687     0.00044597    -0.00088698     0.00063308
C        -1.80480498     1.73793316    -0.04396382     0.00003043    -0.00002635     0.00027222
H        -2.40478462     2.59144652    -0.46276156     0.00068354    -0.00128307    -0.00020898
N        -0.55967187     1.77770838     0.18226984     0.00026808     0.00008210    -0.00018445
H         0.00964561     2.61326160     0.03160619     0.00008101    -0.00098452     0.00089499
H        -0.07703107     1.02949360     0.63103314    -0.00074654     0.00145309     0.00063720
    14
  Step:     4            Position(A)                                  Velocity(au)
C        -6.06208884    -0.75673768    -0.13968144    -0.00054149    -0.00029696     0.00011591
C        -4.66108019    -0.76438218     0.12645315     0.00036041     0.00012227    -0.00007501
H        -6.45195491     0.20140983    -0.48411735    -0.00005515    -0.00084259     0.00002323
H        -6.71470556    -1.64231756    -0.14359364     0.00031220     0.00119484    -0.00065893
H        -4.17304742    -1.67295117     0.44347932     0.00003767     0.00112162     0.00024215
C        -3.90518713     0.41900562     0.01523588    -0.00033365     0.00002648    -0.00014333
C        -2.52835065     0.52330200     0.20761613     0.00011227     0.00015323    -0.00014887
H        -4.40553437     1.32217510    -0.20097228    -0.00027664    -0.00008717     0.00056278
H        -2.07685024    -0.31561140     0.67001864     0.00070431    -0.00110173     0.00077831
C        -1.80525458     1.73741703    -0.04109948    -0.00010726    -0.00007002     0.00025266
H        -2.39600865     2.57678247    -0.46460664     0.00089829    -0.00136303    -0.00014226
N        -0.55618216     1.77878959     0.18030907     0.00036223     0.00011454    -0.00017567
H         0.01022509     2.60226311     0.04144110     0.00005683    -0.00096828     0.00088953
H        -0.08477590     1.04444851     0.63834088    -0.00063754     0.00122926     0.00073003
    14
  Step:     5            Position(A)                                  Velocity(au)
C        -6.06795386    -0.75996628    -0.13844158    -0.00052548    -0.00029005     0.00011129
C        -4.65714407    -0.76294218     0.12561998     0.00035648     0.00014374    -0.00007812
H        -6.45305111     0.19198137    -0.48385114    -0.00015435    -0.00085781     0.00001874
H        -6.71087042    -1.62886732    -0.15053314     0.00035045     0.00120480    -0.00060784
H        -4.17239671    -1.66117384     0.44604596     0.00009842     0.00099954     0.00023548
C        -3.90934823     0.41907852     0.01362844    -0.00042522    -0.00001397    -0.00015012
C        -2.52666878     0.52521746     0.20601670     0.00019627     0.00019090    -0.00014035
H        -4.40967684     1.32259411    -0.19522246    -0.00048259     0.00016806     0.00048627
H        -2.06793045    -0.32850088     0.67914387     0.00088885    -0.00119062     0.00085429
C        -1.80715154     1.73640138    -0.03843635    -0.00023131    -0.00011750     0.00023598
H        -2.38513278     2.56162761    -0.46587371     0.00105991    -0.00136564    -0.00010819
N        -0.55174737     1.78021415     0.17842677     0.00043978     0.00014338    -0.00016982
H         0.01088888     2.59207861     0.05106640     0.00009992    -0.00083215     0.00085730
H        -0.09097856     1.05638594     0.64700393    -0.00047368     0.00091674     0.00087780
    14
  Step:     6            Position(A)                                  Velocity(au)
C        -6.07358483    -0.76308305    -0.13724679    -0.00049862    -0.00027614     0.00010774
C        -4.65328144    -0.76123757     0.12474424     0.00034686     0.00016952    -0.00008255
H        -6.45533156     0.18264355    -0.48370740    -0.00027057    -0.00082660     0.00000130
H        -6.70703877    -1.61596034    -0.15689132     0.00030792     0.00109060    -0.00055396
H        -4.17089427    -1.65108436     0.44863085     0.00019033     0.00081910     0.00024375
C        -3.91448967     0.41869991     0.01195180    -0.00051139    -0.00005407    -0.00015606
C        -2.52405683     0.52747820     0.20454563     0.00027983     0.00021597    -0.00012570
H        -4.41609198     1.32585166    -0.19033422    -0.00068393     0.00041720     0.00040788
H        -2.05740488    -0.34165840     0.68870780     0.00100079    -0.00115603     0.00086037
C        -1.81031482     1.73484650    -0.03593690    -0.00033659    -0.00016813     0.00022310
H        -2.37282120     2.54690656    -0.46697343     0.00115498    -0.00127865    -0.00011573
N        -0.54656119     1.78192636     0.17659387     0.00049976     0.00016572    -0.00016598
H         0.01241095     2.58405815     0.06019618     0.00021157    -0.00057730     0.00080117
H        -0.09513858     1.06450399     0.65754438    -0.00027745     0.00055344     0.00106053
    14
  Step:     7            Position(A)                                  Velocity(au)
C        -6.07886207    -0.76600731    -0.13608458    -0.00046104    -0.00025492     0.00010537
C        -4.64955589    -0.75923369     0.12381411     0.00033117     0.00019684    -0.00008772
H        -6.45897036     0.17389801    -0.48382277    -0.00040085    -0.00075222    -0.00002752
H        -6.70413407    -1.60500828    -0.16265202     0.00018273     0.00084995    -0.00049972
H        -4.16823290    -1.64325439     0.45137836     0.00030519     0.00059613     0.00026207
C        -3.92053586     0.41789572     0.01021432    -0.00058915    -0.00008973    -0.00016132
C        -2.52054707     0.52994230     0.20326666     0.00035790     0.00022804    -0.00010573
H        -4.42463910     1.33172126    -0.18629936    -0.00086507     0.00063263     0.00033243
H        -2.04603624    -0.35379118     0.69796606     0.00104831    -0.00101303     0.00080298
C        -1.81451502     1.73272325    -0.03355567    -0.00041950    -0.00022060     0.00021448
H        -2.35986542     2.53365459    -0.46840544     0.00117517    -0.00109596    -0.00017104
N        -0.54081422     1.78383964     0.17479574     0.00054350     0.00017926    -0.00016260
H         0.01551744     2.57944896     0.06859353     0.00038061    -0.00022288     0.00072707
H        -0.09704822     1.06849347     0.67020495    -0.00007690     0.00018722     0.00124937
    14
  Step:     8            Position(A)                                  Velocity(au)
C        -6.08367094    -0.76865996    -0.13494166    -0.00041380    -0.00022718     0.00010415
C        -4.64603653    -0.75693141     0.12282512     0.00030899     0.00022225    -0.00009292
H        -6.46410083     0.16618720    -0.48430940    -0.00054074    -0.00064218    -0.00006472
H        -6.70304110    -1.59736610    -0.16782373    -0.00001453     0.00049763    -0.00044690
H        -4.16421758    -1.63804295     0.45436403     0.00043133     0.00035246     0.00028320
C        -3.92737853     0.41673689     0.00842262    -0.00065588    -0.00011718    -0.00016605
C        -2.51622715     0.53246699     0.20223257     0.00042594     0.00022726    -0.00008148
H        -4.43501705     1.33969171    -0.18306174    -0.00101337     0.00079184     0.00026366
H        -2.03447115    -0.36382047     0.70627444     0.00104274    -0.00078273     0.00069252
C        -1.81949210     1.73002044    -0.03124477    -0.00047815    -0.00027288     0.00021000
H        -2.34711216     2.52293026    -0.47071517     0.00112034    -0.00082175    -0.00027480
N        -0.53467100     1.78584792     0.17303677     0.00057404     0.00018305    -0.00015798
H         0.02073745     2.57918220     0.07610230     0.00058299     0.00019367     0.00064316
H        -0.09682081     1.06859972     0.68487667     0.00010081    -0.00013391     0.00141250
    14
  Step:     9            Position(A)                                  Velocity(au)
C        -6.08791485    -0.77097729    -0.13380600    -0.00035926    -0.00019497     0.00010387
C        -4.64279611    -0.75437162     0.12178128     0.00028017     0.00024217    -0.00009736
H        -6.47080015     0.15984908    -0.48523873    -0.00068451    -0.00050774    -0.00010617
H        -6.70445186    -1.59412163    -0.17242888    -0.00025926     0.00006761    -0.00039594
H        -4.15879670    -1.63554374     0.45757389     0.00055525     0.00011282     0.00029859
C        -3.93488459     0.41533227     0.00658165    -0.00070973    -0.00013348    -0.00017038
C        -2.51122877     0.53491399     0.20148413     0.00048058     0.00021419    -0.00005402
H        -4.44680847     1.34904433    -0.18053135    -0.00112072     0.00088045     0.00020399
H        -2.02322427    -0.37091484     0.71311618     0.00099602    -0.00048766     0.00054104
C        -1.82497552     1.72675355    -0.02896145    -0.00051244    -0.00032206     0.00020880
H        -2.33535588     2.51567726    -0.47441725     0.00100058    -0.00047391    -0.00041979
N        -0.52825601     1.78784414     0.17133965     0.00059519     0.00017788    -0.00015067
H         0.02827137     2.58368586     0.08266395     0.00078546     0.00062179     0.00055819
H        -0.09484287     1.06556403     0.70110603     0.00023531    -0.00037163     0.00152216
    14
  Step:    10            Position(A)                                  Velocity(au)
C        -6.09153033    -0.77292540    -0.13266936    -0.00030088    -0.00016143     0.00010405
C        -4.63990730    -0.75163339     0.12069520     0.00024483     0.00025339    -0.00010030
H        -6.47907570     0.15507933    -0.48663204    -0.00082541    -0.00036289    -0.00014690
H        -6.70871283    -1.59588700    -0.17648572    -0.00051569    -0.00039092    -0.00034571
H        -4.15207033    -1.63557471     0.46089634     0.00066380    -0.00009911     0.00029986
C        -3.94290519     0.41381677     0.00469522    -0.00074957    -0.00013679    -0.00017439
C        -2.50571352     0.53715270     0.20105071     0.00051967     0.00018961    -0.00002434
H        -4.45953494     1.35895315    -0.17859908    -0.00118397     0.00089306     0.00015437
H        -2.01268133    -0.37448892     0.71811068     0.00091938    -0.00014962     0.00036069
C        -1.83070264     1.72297484    -0.02667678    -0.00052382    -0.00036437     0.00020924
H        -2.32522254     2.51256256    -0.47989882     0.00083562    -0.00008447    -0.00059000
N        -0.52165009     1.78973934     0.16974054     0.00061070     0.00016599    -0.00013977
H         0.03792083     2.59278498     0.08831372     0.00095260     0.00100767     0.00047970
H        -0.09167289     1.06046966     0.71817692     0.00031633    -0.00050363     0.00156018
    14
  Step:    11            Position(A)                                  Velocity(au)
C        -6.09449720    -0.77450887    -0.13152965    -0.00024269    -0.00013003     0.00010409
C        -4.63743993    -0.74882818     0.11958702     0.00020333     0.00025340    -0.00010116
H        -6.48885764     0.15191006    -0.48845241    -0.00095639    -0.00022265    -0.00018148
H        -6.71573348    -1.60267372    -0.17999189    -0.00074424    -0.00082338    -0.00029388
H        -4.14427470    -1.63771207     0.46413383     0.00074611    -0.00026440     0.00028033
C        -3.95128297     0.41233975     0.00276658    -0.00077495    -0.00012629    -0.00017809
C        -2.49985989     0.53906199     0.20095171     0.00054215     0.00015450     0.00000671
H        -4.47271005     1.36858175    -0.17715429    -0.00120417     0.00083218     0.00011432
H        -2.00311115    -0.37418805     0.72100706     0.00082307     0.00021084     0.00016303
C        -1.83643509     1.71878224    -0.02438385    -0.00051493    -0.00039554     0.00020911
H        -2.31707508     2.51382933    -0.48732466     0.00065109     0.00030456    -0.00076259
N        -0.51489570     1.79147547     0.16828194     0.00062355     0.00015034    -0.00012500
H         0.04911131     2.60573058     0.09315820     0.00105488     0.00130550     0.00041276
H        -0.08792262     1.05454607     0.73523789     0.00034351    -0.00052465     0.00151999
    14
  Step:    12            Position(A)                                  Velocity(au)
C        -6.09683967    -0.77577005    -0.13039223    -0.00018838    -0.00010377     0.00010331
C        -4.63545900    -0.74608985     0.11848215     0.00015615     0.00024069    -0.00009959
H        -6.49999861     0.15020850    -0.49060234    -0.00107062    -0.00010124    -0.00020471
H        -6.72499452    -1.61390000    -0.18291485    -0.00091049    -0.00118175    -0.00023773
H        -4.13574767    -1.64135895     0.46702907     0.00079495    -0.00037113     0.00023606
C        -3.95985860     0.41105392     0.00079909    -0.00078590    -0.00010214    -0.00018146
C        -2.49385299     0.54053261     0.20119753     0.00054776     0.00011010     0.00003831
H        -4.48587846     1.37715873    -0.17609800    -0.00118546     0.00070632     0.00008246
H        -1.99467518    -0.36987631     0.72167728     0.00071657     0.00057403    -0.00004086
C        -1.84196762     1.71432168    -0.02210207    -0.00048884    -0.00041149     0.00020605
H        -2.31097879     2.51922532    -0.49658192     0.00047253     0.00064941    -0.00091247
N        -0.50800884     1.79302830     0.16700596     0.00063548     0.00013378    -0.00010663
H         0.06099833     2.62134526     0.09734356     0.00107449     0.00148576     0.00035957
H        -0.08415793     1.04899188     0.75142954     0.00032404    -0.00044344     0.00140553
    14
  Step:    13            Position(A)                                  Velocity(au)
C        -6.09861839    -0.77677906    -0.12926946    -0.00014066    -0.00008452     0.00010117
C        -4.63402392    -0.74356255     0.11740822     0.00010384     0.00021490    -0.00009554
H        -6.51227942     0.14969518    -0.49293079    -0.00116215    -0.00001047    -0.00021227
H        -6.73565222    -1.62852666    -0.18519275    -0.00099209    -0.00143380    -0.00017509
H        -4.12688368    -1.64583119     0.46929816     0.00080707    -0.00041507     0.00016612
C        -3.96847608     0.41010526    -0.00120319    -0.00078298    -0.00006533    -0.00018440
C        -2.48787661     0.54147069     0.20178981     0.00053689     0.00005807     0.00006963
H        -4.49864432     1.38403378    -0.17535023    -0.00113392     0.00052791     0.00005690
H        -1.98743480    -0.36163003     0.72011311     0.00060905     0.00092037    -0.00023996
C        -1.84712949     1.70978006    -0.01987604    -0.00044858    -0.00040923     0.00019807
H        -2.30673752     2.52803632    -0.50728659     0.00031993     0.00091376    -0.00101788
N        -0.50099334     1.79440211     0.16594913     0.00064707     0.00011849    -0.00008534
H         0.07261786     2.63823432     0.10102457     0.00100717     0.00153803     0.00031992
H        -0.08083360     1.04484500     0.76598662     0.00026950    -0.00027801     0.00122838
    14
  Step:    14            Position(A)                                  Velocity(au)
C        -6.09991681    -0.77761905    -0.12817893    -0.00010097    -0.00007285     0.00009729
C        -4.63318740    -0.74138848     0.11639202     0.00004708     0.00017671    -0.00008919
H        -6.52542281     0.14997941    -0.49524610    -0.00122651     0.00004159    -0.00020123
H        -6.74669843    -1.64526709    -0.18674521    -0.00098103    -0.00156622    -0.00010490
H        -4.11809147    -1.65043930     0.47066318     0.00078273    -0.00039864     0.00007221
C        -3.97698774     0.40962461    -0.00323498    -0.00076714    -0.00001762    -0.00018678
C        -2.48210742     0.54180311     0.20272080     0.00051040     0.00000063     0.00009974
H        -4.51068509     1.38870773    -0.17485325    -0.00105655     0.00031156     0.00003554
H        -1.98135099    -0.34974150     0.71642777     0.00050999     0.00122952    -0.00042283
C        -1.85178124     1.70536900    -0.01776892    -0.00039673    -0.00038742     0.00018390
H        -2.30397980     2.53921556    -0.51885004     0.00020467     0.00107516    -0.00106464
N        -0.49385303     1.79562057     0.16513904     0.00065788     0.00010585    -0.00006201
H         0.08303207     2.65499270     0.10434249     0.00086029     0.00146874     0.00029201
H        -0.07826207     1.04290985     0.77830274     0.00019326    -0.00005120     0.00100466
    14
  Step:    15            Position(A)                                  Velocity(au)
C        -6.10082731    -0.77837279    -0.12714094    -0.00006963    -0.00006832     0.00009155
C        -4.63299399    -0.73969660     0.11545701    -0.00001331     0.00012778    -0.00008094
H        -6.53911163     0.15060511    -0.49733307    -0.00126098     0.00005113    -0.00017027
H        -6.75711419    -1.66279064    -0.18748761    -0.00088154    -0.00158195    -0.00002736
H        -4.10975989    -1.65455220     0.47087794     0.00072492    -0.00032933    -0.00004190
C        -3.98525877     0.40971986    -0.00528926    -0.00073972     0.00003861    -0.00018840
C        -2.47671069     0.54148436     0.20397192     0.00046941    -0.00005940     0.00012759
H        -4.52175827     1.39084978    -0.17457273    -0.00096078     0.00007305     0.00001627
H        -1.97627774    -0.33473187     0.71086293     0.00042967     0.00147989    -0.00057733
C        -1.85580877     1.70130446    -0.01585284    -0.00033540    -0.00034658     0.00016317
H        -2.30225997     2.55155758    -0.53057768     0.00012976     0.00112664    -0.00104753
N        -0.48660096     1.79671778     0.16459244     0.00066686     0.00009652    -0.00003771
H         0.09143834     2.67036581     0.10741276     0.00064904     0.00129609     0.00027328
H        -0.07660569     1.04372494     0.78796541     0.00010882     0.00021236     0.00075278
    14
  Step:    16            Position(A)                                  Velocity(au)
C        -6.10144011    -0.77911358    -0.12617604    -0.00004612    -0.00006987     0.00008402
C        -4.63347855    -0.73859310     0.11462124    -0.00007637     0.00007050    -0.00007135
H        -6.55300922     0.15109789    -0.49897099    -0.00126470     0.00001838    -0.00011965
H        -6.76598374    -1.67987534    -0.18734378    -0.00070588    -0.00149485     0.00005638
H        -4.10223251    -1.65764402     0.46974656     0.00063844    -0.00021793    -0.00017117
C        -3.99317042     0.41046920    -0.00735669    -0.00070226     0.00010037    -0.00018905
C        -2.47183808     0.54050361     0.20551201     0.00041524    -0.00011853     0.00015193
H        -4.53170396     1.39030594    -0.17449743    -0.00085422    -0.00017128    -0.00000300
H        -1.97195112    -0.31736607     0.70379762     0.00037946     0.00164867    -0.00069054
C        -1.85911868     1.69778699    -0.01419936    -0.00026634    -0.00028882     0.00013626
H        -2.30114106     2.56386301    -0.54176681     0.00009211     0.00107418    -0.00096915
N        -0.47926427     1.79773207     0.16431409     0.00067259     0.00009071    -0.00001356
H         0.09723097     2.68334704     0.11032098     0.00039259     0.00104500     0.00026104
H        -0.07588140     1.04755558     0.79477133     0.00002906     0.00048782     0.00049216
    14
  Step:    17            Position(A)                                  Velocity(au)
C        -6.10183633    -0.77990144    -0.12530287    -0.00002945    -0.00007633     0.00007493
C        -4.63466468    -0.73815434     0.11389610    -0.00014103     0.00000781    -0.00006105
H        -6.56677944     0.15100717    -0.49995057    -0.00123858    -0.00005287    -0.00005107
H        -6.77255666    -1.69549325    -0.18625414    -0.00047009    -0.00132403     0.00014465
H        -4.09579287    -1.65931978     0.46713325     0.00052918    -0.00007702    -0.00030990
C        -4.00062215     0.41191571    -0.00942507    -0.00065647     0.00016430    -0.00018843
C        -2.46762643     0.53889132     0.20729557     0.00034927    -0.00017284     0.00017143
H        -4.54044597     1.38710268    -0.17463843    -0.00074459    -0.00040484    -0.00002427
H        -1.96797624    -0.29866414     0.69575614     0.00037145     0.00171324    -0.00074949
C        -1.86163536     1.69498603    -0.01287197    -0.00019114    -0.00021747     0.00010414
H        -2.30024490     2.57505734    -0.55177972     0.00008533     0.00093239    -0.00083749
N        -0.47188683     1.79870228     0.16429589     0.00067352     0.00008841     0.00000924
H         0.10002698     2.69322718     0.11312352     0.00011141     0.00074348     0.00025275
H        -0.07596993     1.05439703     0.79873246    -0.00003400     0.00075077     0.00024263
    14
  Step:    18            Position(A)                                  Velocity(au)
C        -6.10208438    -0.78078336    -0.12453673    -0.00001838    -0.00008656     0.00006465
C        -4.63656381    -0.73842223     0.11328559    -0.00020618    -0.00005702    -0.00005075
H        -6.58010547     0.14994135    -0.50008829    -0.00118508    -0.00015607     0.00003261
H        -6.77626789    -1.70884100    -0.18417922    -0.00019107    -0.00109015     0.00023559
H        -4.09065558    -1.65932898     0.46296686     0.00040373     0.00007990    -0.00045213
C        -4.00753196     0.41406353    -0.01147889    -0.00060400     0.00022674    -0.00018622
C        -2.46419724     0.53672246     0.20926227     0.00027296    -0.00021839     0.00018484
H        -4.54799339     1.38144918    -0.17502842    -0.00063979    -0.00061094    -0.00004949
H        -1.96382502    -0.27988558     0.68740111     0.00041671     0.00165477    -0.00074317
C        -1.86330015     1.69302943    -0.01192114    -0.00011132    -0.00013657     0.00006812
H        -2.29927422     2.58426091    -0.56008845     0.00010199     0.00072028    -0.00066341
N        -0.46452967     1.79966612     0.16451625     0.00066809     0.00008945     0.00002942
H         0.09966831     2.69961213     0.11585031    -0.00017427     0.00042058     0.00024613
H        -0.07662520     1.06398018     0.80007932    -0.00006923     0.00097745     0.00002414
    14
  Step:    19            Position(A)                                  Velocity(au)
C        -6.10223834    -0.78179503    -0.12388859    -0.00001157    -0.00009963     0.00005358
C        -4.63917535    -0.73940185     0.11278595    -0.00027078    -0.00012064    -0.00004113
H        -6.59270533     0.14759294    -0.49923715    -0.00110794    -0.00028284     0.00012777
H        -6.77673662    -1.71934241    -0.18110016     0.00011489    -0.00081346     0.00032736
H        -4.08696044    -1.65757171     0.45724195     0.00026910     0.00023903    -0.00059192
C        -4.01383578     0.41687603    -0.01349897    -0.00054640     0.00028400    -0.00018209
C        -2.46165483     0.53411370     0.21133925     0.00018810    -0.00025186     0.00019129
H        -4.55444267     1.37373727    -0.17572111    -0.00054781    -0.00077316    -0.00008053
H        -1.95885990    -0.26246286     0.67949782     0.00052218     0.00146375    -0.00066575
C        -1.86407077     1.69199836    -0.01138180    -0.00002837    -0.00005045     0.00002966
H        -2.29801372     2.59081491    -0.56629307     0.00013482     0.00045835    -0.00045891
N        -0.45727110     1.80065910     0.16493947     0.00065475     0.00009354     0.00004571
H         0.09621440     2.70242824     0.11850802    -0.00044503     0.00010579     0.00023918
H        -0.07748451     1.07578069     0.79926065    -0.00006670     0.00114555    -0.00014390
    14
  Step:    20            Position(A)                                  Velocity(au)
C        -6.10233739    -0.78296286    -0.12336456    -0.00000763    -0.00011475     0.00004218
C        -4.64248774    -0.74106147     0.11238574    -0.00033392    -0.00017977    -0.00003290
H        -6.60434370     0.14375360    -0.49729317    -0.00101183    -0.00042374     0.00023030
H        -6.77375453    -1.72663701    -0.17701751     0.00043246    -0.00051326     0.00041828
H        -4.08476854    -1.65409983     0.45001758     0.00013262     0.00038656    -0.00072347
C        -4.01948560     0.42027668    -0.01546252    -0.00048506     0.00033262    -0.00017573
C        -2.46008223     0.53121257     0.21344718     0.00009697    -0.00027130     0.00019066
H        -4.55997781     1.36453475    -0.17679012    -0.00047649    -0.00087621    -0.00011913
H        -1.95240130    -0.24786327     0.67283659     0.00068629     0.00114652    -0.00052040
C        -1.86392081     1.69192571    -0.01127223     0.00005632     0.00003653    -0.00000970
H        -2.29632482     2.59428823    -0.57012789     0.00017716     0.00016718    -0.00023619
N        -0.45020581     1.80171255     0.16551625     0.00063210     0.00010014     0.00005697