|===============================================================================
|
|  DFTB+ release 20.1
|
|  Copyright (C) 2006 - 2020  DFTB+ developers group
|
|===============================================================================
|
|  When publishing results obtained with DFTB+, please cite the following
|  reference:
|
|  * DFTB+, a software package for efficient approximate density functional
|    theory based atomistic simulations, J. Chem. Phys. 152, 124101 (2020).
|    [doi: 10.1063/1.5143190]
|
|  You should also cite additional publications crediting the parametrization
|  data you use. Please consult the documentation of the SK-files for the
|  references.
|
|===============================================================================

Reading input file 'dftb_in.hsd'
Parser version: 8

--------------------------------------------------------------------------------
Reading SK-files:
Done.


Processed input in HSD format written to 'dftb_pin.hsd'

Starting initialization...
--------------------------------------------------------------------------------
OpenMP threads:              1
Chosen random seed:          510726434
Mode:                        Static calculation
Self consistent charges:     Yes
SCC-tolerance:                 0.100000E-05
Max. scc iterations:                   1000
Shell resolved Hubbard:      No
Spin polarisation:           No
Nr. of up electrons:             6.000000
Nr. of down electrons:           6.000000
Periodic boundaries:         No
Electronic solver:           Relatively robust
Maximal SCC-cycles:                    1000
Initial charges:             Set automatically (system chrg:   0.100E+01)
Included shells:             C:  s, p
                             N:  s, p
                             H:  s
Spin coupling constants:     C   1(s)-1(s):  -0.455900E-01
                             C   1(s)-2(p):  -0.293000E-01
                             C   2(p)-1(s):  -0.293000E-01
                             C   2(p)-2(p):  -0.275500E-01
                             N   1(s)-1(s):  -0.468700E-01
                             N   1(s)-2(p):  -0.317000E-01
                             N   2(p)-1(s):  -0.317000E-01
                             N   2(p)-2(p):  -0.307200E-01
                             H   1(s)-1(s):  -0.792500E-01
Range separated hybrid:      Yes
  Screening parameter omega:   0.300000E+00
  Range separated algorithm:   MatrixBased
Extra options:
                             Mulliken analysis
                             Force calculation
Force type                   original
                             Eigenvector printing


REKS Calcuation:             Yes
SSR(2,2) Calcuation:         Yes
Energy Functional:           (PPS+OSS)/2
Number of Core Orbitals:                  5
Number of Active Orbitals:                2
Number of Basis:                         12
Number of States:                         2
State-Averaging Weight:          0.500000
                                 0.500000
State of Interest:                        1
Initial Guess:               Diagonalize H0 matrix
Newton-Raphson for FON opt:  Yes
NR max. Iterations:                      50
Level Shifting:              Yes
Shift Value:                     0.300000
W Scale Factor:              C  =    3.000000
                             N  =    3.000000
                             H  =    3.000000
Transition Dipole:           No
Gradient of Microstate:      No
CP-REKS Solver:              Preconditioned Conjugate-Gradient
CG max. Iterations:                     100
CG Tolerance:                  0.100000E-07
Memory for A and Hxc:        Direct Updating Without Saving
Non-Adiabatic Coupling:      Yes

--------------------------------------------------------------------------------

***  Geometry step: 0

  iSCC       reks energy        Diff energy         x_a       SCC error   
    1       -6.2652626877       0.0000000000     0.999778    1.19956589
    2       -6.2756065655      -0.0103438778     0.999895    0.06720046
    3       -6.2790535100      -0.0034469444     0.999937    0.02409631
    4       -6.2807565438      -0.0017030338     0.999955    0.00951751
    5       -6.2816566991      -0.0009001553     0.999964    0.00824703
    6       -6.2821391036      -0.0004824045     0.999969    0.00669885
    7       -6.2823973153      -0.0002582117     0.999971    0.00521933
    8       -6.2825349375      -0.0001376222     0.999973    0.00395407
    9       -6.2826080673      -0.0000731297     0.999974    0.00293854
   10       -6.2826469093      -0.0000388420     0.999974    0.00215515
   11       -6.2826675871      -0.0000206778     0.999975    0.00160319
   12       -6.2826786487      -0.0000110615     0.999975    0.00124322
   13       -6.2826846080      -0.0000059594     0.999975    0.00096472
   14       -6.2826878474      -0.0000032394     0.999975    0.00074937
   15       -6.2826896266      -0.0000017792     0.999975    0.00058277
   16       -6.2826906150      -0.0000009883     0.999975    0.00045375
   17       -6.2826911705      -0.0000005556     0.999975    0.00035371
   18       -6.2826914866      -0.0000003160     0.999975    0.00027602
   19       -6.2826916684      -0.0000001819     0.999975    0.00021562
   20       -6.2826917742      -0.0000001058     0.999975    0.00016859
   21       -6.2826918364      -0.0000000622     0.999975    0.00013193
   22       -6.2826918732      -0.0000000369     0.999975    0.00010333
   23       -6.2826918953      -0.0000000220     0.999975    0.00008098
   24       -6.2826919085      -0.0000000133     0.999975    0.00006350
   25       -6.2826919165      -0.0000000080     0.999975    0.00004983
   26       -6.2826919214      -0.0000000049     0.999975    0.00003912
   27       -6.2826919244      -0.0000000030     0.999975    0.00003072
   28       -6.2826919262      -0.0000000018     0.999975    0.00002414
   29       -6.2826919273      -0.0000000011     0.999975    0.00001897
   30       -6.2826919280      -0.0000000007     0.999975    0.00001492
   31       -6.2826919285      -0.0000000004     0.999975    0.00001173
   32       -6.2826919287      -0.0000000003     0.999975    0.00000924
   33       -6.2826919289      -0.0000000002     0.999975    0.00000730
   34       -6.2826919290      -0.0000000001     0.999975    0.00000577
   35       -6.2826919290      -0.0000000001     0.999975    0.00000456
   36       -6.2826919291      -0.0000000000     0.999975    0.00000360
   37       -6.2826919291      -0.0000000000     0.999975    0.00000284
   38       -6.2826919291      -0.0000000000     0.999975    0.00000225
   39       -6.2826919291      -0.0000000000     0.999975    0.00000177
   40       -6.2826919291      -0.0000000000     0.999975    0.00000140
   41       -6.2826919291      -0.0000000000     0.999975    0.00000110
   42       -6.2826919291      -0.0000000000     0.999975    0.00000087
  
--------------------------------------------------
 Final SA-REKS(2,2) energy:      -6.28269193
  
 State     Energy      FON(1)    FON(2)   Spin
  PPS   -6.41343973   1.999950  0.000050  0.00
  OSS   -6.15194412   1.000000  1.000000  0.00
 Trip   -6.22941538   1.000000  1.000000  1.00
--------------------------------------------------

 Lagrangian Wab:  -0.00246948 -0.00246940

--------------------------------------------------
 SSR: 2SI-2SA-REKS(2,2) Hamiltonian matrix
               PPS           OSS
   PPS    -6.41343973   -0.00347488
   OSS    -0.00347488   -6.15194412
--------------------------------------------------

----------------------------------------------------------------
 SSR: 2SI-2SA-REKS(2,2) states
                    E_n       C_{PPS}    C_{OSS}
 SSR state  1   -6.41348590  -0.999912  -0.013285
 SSR state  2   -6.15189796   0.013285  -0.999912
----------------------------------------------------------------

 unrelaxed SSR FONs for S0:  1.999774  0.000226

Total Energy:                       -6.4134859016 H         -174.5198 eV
Extrapolated to 0:                  -6.4134859016 H         -174.5198 eV

----------------------------------------------------------------------------------
 Solving CP-REKS equation for  1 state vector...
----------------------------------------------------------------------------------
  CG solver: Constructing Y initial guess
  CG solver: Iteration    1    eps =    0.000041608061
  CG solver: Iteration    2    eps =    0.000007134741
  CG solver: Iteration    3    eps =    0.000000332447
  CG solver: Iteration    4    eps =    0.000000033328
  CG solver: Iteration    5    eps =    0.000000005543
  Convergence reached in CG solver after    5 iterations
  CG solver: Calculating converged R, Z, Q2 matrix
----------------------------------------------------------------------------------

----------------------------------------------------------------------------------
 Solving CP-REKS equation for SI between  1 and  2 state vectors...
----------------------------------------------------------------------------------
  CG solver: Constructing Y initial guess
  CG solver: Iteration    1    eps =    0.000642103507
  CG solver: Iteration    2    eps =    0.000327343099
  CG solver: Iteration    3    eps =    0.000109120528
  CG solver: Iteration    4    eps =    0.000001630597
  CG solver: Iteration    5    eps =    0.000000234026
  CG solver: Iteration    6    eps =    0.000000008881
  Convergence reached in CG solver after    6 iterations
  CG solver: Calculating converged R, Z, Q2 matrix
----------------------------------------------------------------------------------

--------------------------------------------------
 Gradient Information
--------------------------------------------------
           1 st state (SSR)
    -0.00771973     0.00520202     0.04251485
     0.02416124    -0.00063172    -0.05563508
    -0.00509239    -0.00237994    -0.00617976
    -0.01559635     0.00033367     0.00599772
    -0.00245192    -0.00116978     0.01150749
     0.00669915    -0.00135425     0.00179478

           2 st state (SSR)
     0.00710312    -0.01302527     0.15148963
    -0.00999005     0.01597695    -0.18317038
     0.00084501    -0.01448594     0.01389378
     0.00871933     0.00100652    -0.00176912
    -0.00223477    -0.00574882    -0.00064778
    -0.00444262     0.01627655     0.02020388
--------------------------------------------------
 Coupling Information
--------------------------------------------------
 between  1 and  2 states
--------------------------------------------------
 g vector - difference gradient
    -0.00742273     0.00922217    -0.05454564
     0.01708667    -0.00847903     0.06380063
    -0.00314335     0.00606956    -0.01003934
    -0.01234963    -0.00020662     0.00387355
     0.00006730     0.00228765     0.00612060
     0.00576174    -0.00889375    -0.00920980

 h vector - derivative coupling
     0.00032697    -0.00396247     0.00146796
    -0.00018774     0.00646263    -0.00039374
     0.00653217    -0.00054286    -0.00003673
     0.00705473    -0.00488866     0.00042291
    -0.00661882     0.00010052    -0.00153583
    -0.00710731     0.00283084     0.00007543

 G vector - GDV
    -0.00741142     0.00911365    -0.05448739
     0.01707565    -0.00830434     0.06376765
    -0.00296870     0.00605300    -0.01003677
    -0.01215784    -0.00033642     0.00388342
    -0.00010857     0.00228952     0.00607764
     0.00557088    -0.00881540    -0.00920455

 H vector - DCV - non-adiabatic coupling
     0.00200336    -0.01607903     0.01114955
    -0.00245280     0.02555782    -0.00798445
     0.02528164    -0.00269097     0.00087925
     0.02821362    -0.01866080     0.00122273
    -0.02530038     0.00015178    -0.00649073
    -0.02774545     0.01172119     0.00122364
--------------------------------------------------


--------------------------------------------------------------------------------
DFTB+ running times                          cpu [s]             wall clock [s]
--------------------------------------------------------------------------------
SCC                                    +     0.02  ( 60.5%)      0.02  ( 57.1%)
Post-SCC processing                    +     0.01  ( 35.2%)      0.01  ( 26.2%)
  Force calculation                          0.01  ( 34.5%)      0.01  ( 23.8%)
--------------------------------------------------------------------------------
Missing                                +     0.00  (  4.4%)      0.01  ( 16.7%)
Total                                  =     0.03  (100.0%)      0.04  (100.0%)
--------------------------------------------------------------------------------
