 Fermi distribution function

Calculation with static geometry


********************************************************************************
 iSCC Total electronic   Diff electronic      SCC error    
   10   -0.53361471E+01   -0.13013413E-08    0.79064218E-06
********************************************************************************

 Total charge:     1.00000000

 Atomic gross charges (e)
 Atom           Charge
    1       0.26658783
    2      -0.14518863
    3       0.17590349
    4       0.26291392
    5       0.26128418
    6       0.17849921

Nr. of electrons (up):     12.00000000
Atom populations (up)
 Atom       Population
    1       3.73341217
    2       5.14518863
    3       0.82409651
    4       0.73708608
    5       0.73871582
    6       0.82150079

l-shell populations (up)
 Atom Sh.   l       Population
    1   1   0       1.36404445
    1   2   1       2.36936772
    2   1   0       1.49585951
    2   2   1       3.64932913
    3   1   0       0.82409651
    4   1   0       0.73708608
    5   1   0       0.73871582
    6   1   0       0.82150079

Orbital populations (up)
 Atom Sh.   l   m       Population  Label
    1   1   0   0       1.36404445  s
    1   2   1  -1       0.47044913  p_y
    1   2   1   0       0.88663933  p_z
    1   2   1   1       1.01227926  p_x
    2   1   0   0       1.49585951  s
    2   2   1  -1       1.35008623  p_y
    2   2   1   0       1.12865136  p_z
    2   2   1   1       1.17059154  p_x
    3   1   0   0       0.82409651  s
    4   1   0   0       0.73708608  s
    5   1   0   0       0.73871582  s
    6   1   0   0       0.82150079  s

Fermi level:                        -0.5257868841 H          -14.3074 eV
Band energy:                        -8.8374764444 H         -240.4800 eV
TS:                                  0.0000000000 H            0.0000 eV
Band free energy (E-TS):            -8.8374764444 H         -240.4800 eV
Extrapolated E(0K):                 -8.8374764444 H         -240.4800 eV
Input / Output electrons (q):     12.0000000000     12.0000000000

Energy H0:                          -5.4740282673 H         -148.9559 eV
Energy SCC:                          0.1378812097 H            3.7519 eV
Total Electronic energy:            -5.3361470576 H         -145.2039 eV
Repulsive energy:                    0.1608587539 H            4.3772 eV
Total energy:                       -5.1752883037 H         -140.8268 eV
Extrapolated to 0:                  -5.1752883037 H         -140.8268 eV
Total Mermin free energy:           -5.1752883037 H         -140.8268 eV
Force related energy:               -5.1752883037 H         -140.8268 eV

SCC converged

Excitation Energy:                   0.1479677111 H            4.0264 eV

Total Forces
    1     -0.014703654213     -0.023692485814      0.095964416525
    2      0.018746741791      0.016829741754     -0.082698790758
    3      0.006444364153      0.014859847532     -0.001983416726
    4      0.005512047260     -0.015459242864      0.014950951652
    5     -0.003584444865      0.006303767272     -0.000556733586
    6     -0.012415054125      0.001158372120     -0.025676427106

Maximal derivative component:        0.959644E-01 au


