 Fermi distribution function

Calculation with static geometry


********************************************************************************
 iSCC Total electronic   Diff electronic      SCC error    
   13   -0.53210316E+01   -0.56504135E-10    0.75918456E-06
********************************************************************************

 Total charge:     1.00000000

 Atomic gross charges (e)
 Atom           Charge
    1       0.30913062
    2      -0.21674301
    3       0.17256299
    4       0.27585304
    5       0.28726320
    6       0.17193317

Nr. of electrons (up):     12.00000000
Atom populations (up)
 Atom       Population
    1       3.69086938
    2       5.21674301
    3       0.82743701
    4       0.72414696
    5       0.71273680
    6       0.82806683

l-shell populations (up)
 Atom Sh.   l       Population
    1   1   0       1.37168929
    1   2   1       2.31918009
    2   1   0       1.46389389
    2   2   1       3.75284912
    3   1   0       0.82743701
    4   1   0       0.72414696
    5   1   0       0.71273680
    6   1   0       0.82806683

Orbital populations (up)
 Atom Sh.   l   m       Population  Label
    1   1   0   0       1.37168929  s
    1   2   1  -1       0.50511524  p_y
    1   2   1   0       0.86204250  p_z
    1   2   1   1       0.95202234  p_x
    2   1   0   0       1.46389389  s
    2   2   1  -1       1.39679166  p_y
    2   2   1   0       1.04516862  p_z
    2   2   1   1       1.31088884  p_x
    3   1   0   0       0.82743701  s
    4   1   0   0       0.72414696  s
    5   1   0   0       0.71273680  s
    6   1   0   0       0.82806683  s

Fermi level:                        -0.4944734625 H          -13.4553 eV
Band energy:                        -8.6879206331 H         -236.4103 eV
TS:                                  0.0000000000 H            0.0000 eV
Band free energy (E-TS):            -8.6879206331 H         -236.4103 eV
Extrapolated E(0K):                 -8.6879206331 H         -236.4103 eV
Input / Output electrons (q):     12.0000000000     12.0000000000

Energy H0:                          -5.4525335800 H         -148.3710 eV
Energy SCC:                          0.1315019579 H            3.5784 eV
Total Electronic energy:            -5.3210316221 H         -144.7926 eV
Repulsive energy:                    0.1498708018 H            4.0782 eV
Total energy:                       -5.1711608203 H         -140.7144 eV
Extrapolated to 0:                  -5.1711608203 H         -140.7144 eV
Total Mermin free energy:           -5.1711608203 H         -140.7144 eV
Force related energy:               -5.1711608203 H         -140.7144 eV

SCC converged

Excitation Energy:                   0.1019220603 H            2.7734 eV

Total Forces
    1     -0.003457648715     -0.008699327590      0.086108391291
    2      0.004413703785     -0.000674777122     -0.089883450389
    3     -0.007844506000      0.013919077735      0.003011583869
    4     -0.015341005949     -0.008813871746     -0.005817446484
    5      0.010998423623      0.015984102608      0.002417573546
    6      0.011231033257     -0.011715203884      0.004163348166

Maximal derivative component:        0.898835E-01 au


