    14
  Step:   600            Position(A)                                  Velocity(au)
C        -4.72388116    -1.02353473    -0.69167935     0.00012903     0.00038058    -0.00015789
C        -5.03142378    -0.13772272     0.22341337     0.00033095    -0.00015156     0.00038232
H        -4.09344733    -0.77230895    -1.50297253    -0.00085970     0.00006811    -0.00142553
H        -5.29032228    -1.99168061    -0.71402349     0.00292414    -0.00130285     0.00055732
H        -5.78877787    -0.31793297     0.99652997    -0.00106478    -0.00033706     0.00029083
C        -4.33359251     1.06642271     0.53885481    -0.00073427     0.00078217    -0.00030789
C        -2.99067307     1.31717634     0.36335806     0.00007076    -0.00076719     0.00061372
H        -4.81943829     1.54994379     1.49125738     0.00202995     0.00022009     0.00333158
H        -2.80396939     2.24573301     1.12325805    -0.00019300     0.00146878    -0.00218655
C        -1.88656969     0.83547899    -0.30535655     0.00030741    -0.00038850    -0.00135617
H        -1.64751430     0.74098920    -1.34081751    -0.00213474    -0.00077385     0.00041736
N        -0.65044776     1.06544888     0.19397890    -0.00024283     0.00019668     0.00044206
H         0.08990527     0.78944905    -0.44623892     0.00149869     0.00016885     0.00179772
H        -0.57850330     1.06971501     1.17883554    -0.00006383    -0.00052341     0.00091578
