|===============================================================================
|
|  DFTB+ release 20.1
|
|  Copyright (C) 2006 - 2020  DFTB+ developers group
|
|===============================================================================
|
|  When publishing results obtained with DFTB+, please cite the following
|  reference:
|
|  * DFTB+, a software package for efficient approximate density functional
|    theory based atomistic simulations, J. Chem. Phys. 152, 124101 (2020).
|    [doi: 10.1063/1.5143190]
|
|  You should also cite additional publications crediting the parametrization
|  data you use. Please consult the documentation of the SK-files for the
|  references.
|
|===============================================================================

Reading input file 'dftb_in.hsd'
Parser version: 8

--------------------------------------------------------------------------------
Reading SK-files:
Done.


Processed input in HSD format written to 'dftb_pin.hsd'

Starting initialization...
--------------------------------------------------------------------------------
OpenMP threads:              1
Chosen random seed:          510962087
Mode:                        Static calculation
Self consistent charges:     Yes
SCC-tolerance:                 0.100000E-05
Max. scc iterations:                   1000
Shell resolved Hubbard:      No
Spin polarisation:           No
Nr. of up electrons:             6.000000
Nr. of down electrons:           6.000000
Periodic boundaries:         No
Electronic solver:           Relatively robust
Maximal SCC-cycles:                    1000
Initial charges:             Set automatically (system chrg:   0.100E+01)
Included shells:             C:  s, p
                             N:  s, p
                             H:  s
Spin coupling constants:     C   1(s)-1(s):  -0.455900E-01
                             C   1(s)-2(p):  -0.293000E-01
                             C   2(p)-1(s):  -0.293000E-01
                             C   2(p)-2(p):  -0.275500E-01
                             N   1(s)-1(s):  -0.468700E-01
                             N   1(s)-2(p):  -0.317000E-01
                             N   2(p)-1(s):  -0.317000E-01
                             N   2(p)-2(p):  -0.307200E-01
                             H   1(s)-1(s):  -0.792500E-01
Range separated hybrid:      Yes
  Screening parameter omega:   0.300000E+00
  Range separated algorithm:   MatrixBased
Extra options:
                             Mulliken analysis
                             Force calculation
Force type                   original
                             Eigenvector printing


REKS Calcuation:             Yes
SSR(2,2) Calcuation:         Yes
Energy Functional:           (PPS+OSS)/2
Number of Core Orbitals:                  5
Number of Active Orbitals:                2
Number of Basis:                         12
Number of States:                         2
State-Averaging Weight:          0.500000
                                 0.500000
State of Interest:                        1
Initial Guess:               Diagonalize H0 matrix
Newton-Raphson for FON opt:  Yes
NR max. Iterations:                      50
Level Shifting:              Yes
Shift Value:                     0.300000
W Scale Factor:              C  =    3.000000
                             N  =    3.000000
                             H  =    3.000000
Transition Dipole:           No
Gradient of Microstate:      No
CP-REKS Solver:              Preconditioned Conjugate-Gradient
CG max. Iterations:                     100
CG Tolerance:                  0.100000E-07
Memory for A and Hxc:        Direct Updating Without Saving
Non-Adiabatic Coupling:      Yes

--------------------------------------------------------------------------------

***  Geometry step: 0

  iSCC       reks energy        Diff energy         x_a       SCC error   
    1       -6.2622721322       0.0000000000     0.999219    1.19600042
    2       -6.2754000577      -0.0131279254     0.999683    0.10172789
    3       -6.2793125876      -0.0039125300     0.999824    0.04534314
    4       -6.2811755744      -0.0018629867     0.999884    0.02241353
    5       -6.2822272693      -0.0010516950     0.999913    0.01152760
    6       -6.2828831530      -0.0006558837     0.999928    0.00666196
    7       -6.2833130532      -0.0004299002     0.999938    0.00573444
    8       -6.2836001232      -0.0002870700     0.999943    0.00492318
    9       -6.2837925466      -0.0001924235     0.999947    0.00424997
   10       -6.2839213020      -0.0001287554     0.999950    0.00376890
   11       -6.2840071948      -0.0000858929     0.999951    0.00329114
   12       -6.2840643459      -0.0000571511     0.999952    0.00284018
   13       -6.2841023109      -0.0000379650     0.999953    0.00242858
   14       -6.2841275137      -0.0000252028     0.999954    0.00206164
   15       -6.2841442460      -0.0000167323     0.999954    0.00174003
   16       -6.2841553614      -0.0000111154     0.999954    0.00146169
   17       -6.2841627522      -0.0000073909     0.999955    0.00122314
   18       -6.2841676717      -0.0000049195     0.999955    0.00102025
   19       -6.2841709497      -0.0000032780     0.999955    0.00084873
   20       -6.2841731361      -0.0000021864     0.999955    0.00070445
   21       -6.2841745958      -0.0000014596     0.999955    0.00058357
   22       -6.2841755710      -0.0000009752     0.999955    0.00048264
   23       -6.2841762230      -0.0000006520     0.999955    0.00039860
   24       -6.2841766591      -0.0000004361     0.999955    0.00032880
   25       -6.2841769509      -0.0000002918     0.999955    0.00027094
   26       -6.2841771462      -0.0000001954     0.999955    0.00022307
   27       -6.2841772770      -0.0000001308     0.999955    0.00018351
   28       -6.2841773646      -0.0000000876     0.999955    0.00015086
   29       -6.2841774233      -0.0000000587     0.999955    0.00012395
   30       -6.2841774626      -0.0000000393     0.999955    0.00010180
   31       -6.2841774890      -0.0000000263     0.999955    0.00008356
   32       -6.2841775066      -0.0000000176     0.999955    0.00006857
   33       -6.2841775184      -0.0000000118     0.999955    0.00005625
   34       -6.2841775263      -0.0000000079     0.999955    0.00004612
   35       -6.2841775316      -0.0000000053     0.999955    0.00003782
   36       -6.2841775352      -0.0000000036     0.999955    0.00003100
   37       -6.2841775376      -0.0000000024     0.999955    0.00002540
   38       -6.2841775392      -0.0000000016     0.999955    0.00002082
   39       -6.2841775402      -0.0000000011     0.999955    0.00001705
   40       -6.2841775410      -0.0000000007     0.999955    0.00001397
   41       -6.2841775414      -0.0000000005     0.999955    0.00001144
   42       -6.2841775418      -0.0000000003     0.999955    0.00000937
   43       -6.2841775420      -0.0000000002     0.999955    0.00000768
   44       -6.2841775421      -0.0000000001     0.999955    0.00000629
   45       -6.2841775422      -0.0000000001     0.999955    0.00000515
   46       -6.2841775423      -0.0000000001     0.999955    0.00000421
   47       -6.2841775423      -0.0000000000     0.999955    0.00000345
   48       -6.2841775424      -0.0000000000     0.999955    0.00000283
   49       -6.2841775424      -0.0000000000     0.999955    0.00000231
   50       -6.2841775424      -0.0000000000     0.999955    0.00000189
   51       -6.2841775424      -0.0000000000     0.999955    0.00000155
   52       -6.2841775424      -0.0000000000     0.999955    0.00000127
   53       -6.2841775424      -0.0000000000     0.999955    0.00000104
   54       -6.2841775424      -0.0000000000     0.999955    0.00000085
  
--------------------------------------------------
 Final SA-REKS(2,2) energy:      -6.28417754
  
 State     Energy      FON(1)    FON(2)   Spin
  PPS   -6.41212446   1.999909  0.000091  0.00
  OSS   -6.15623062   1.000000  1.000000  0.00
 Trip   -6.23730909   1.000000  1.000000  1.00
--------------------------------------------------

 Lagrangian Wab:   0.00563414  0.00563395

--------------------------------------------------
 SSR: 2SI-2SA-REKS(2,2) Hamiltonian matrix
               PPS           OSS
   PPS    -6.41212446    0.00791407
   OSS     0.00791407   -6.15623062
--------------------------------------------------

----------------------------------------------------------------
 SSR: 2SI-2SA-REKS(2,2) states
                    E_n       C_{PPS}    C_{OSS}
 SSR state  1   -6.41236899  -0.999523   0.030883
 SSR state  2   -6.15598610  -0.030883  -0.999523
----------------------------------------------------------------

 unrelaxed SSR FONs for S0:  1.998956  0.001044

Total Energy:                       -6.4123689877 H         -174.4894 eV
Extrapolated to 0:                  -6.4123689877 H         -174.4894 eV

----------------------------------------------------------------------------------
 Solving CP-REKS equation for  1 state vector...
----------------------------------------------------------------------------------
  CG solver: Constructing Y initial guess
  CG solver: Iteration    1    eps =    0.000105537350
  CG solver: Iteration    2    eps =    0.000048185062
  CG solver: Iteration    3    eps =    0.000002439016
  CG solver: Iteration    4    eps =    0.000000581668
  CG solver: Iteration    5    eps =    0.000000008028
  Convergence reached in CG solver after    5 iterations
  CG solver: Calculating converged R, Z, Q2 matrix
----------------------------------------------------------------------------------

----------------------------------------------------------------------------------
 Solving CP-REKS equation for SI between  1 and  2 state vectors...
----------------------------------------------------------------------------------
  CG solver: Constructing Y initial guess
  CG solver: Iteration    1    eps =    0.001983625102
  CG solver: Iteration    2    eps =    0.002320832922
  CG solver: Iteration    3    eps =    0.000415253014
  CG solver: Iteration    4    eps =    0.000004519382
  CG solver: Iteration    5    eps =    0.000000601360
  CG solver: Iteration    6    eps =    0.000000009736
  Convergence reached in CG solver after    6 iterations
  CG solver: Calculating converged R, Z, Q2 matrix
----------------------------------------------------------------------------------

--------------------------------------------------
 Gradient Information
--------------------------------------------------
           1 st state (SSR)
     0.00359582    -0.00090650     0.01678855
    -0.00132067    -0.00048959    -0.01775464
    -0.00619995    -0.01099919     0.00296399
    -0.00048392     0.01392899    -0.00552369
    -0.00169856    -0.01215532    -0.00015959
     0.00610728     0.01062161     0.00368537

           2 st state (SSR)
     0.00286982    -0.00969684     0.12337809
     0.00207078     0.01265500    -0.14310659
    -0.01684899     0.01073987     0.02247522
    -0.00682380    -0.00996662    -0.01490459
     0.00237130     0.00996901    -0.00775567
     0.01636090    -0.01370043     0.01991353
--------------------------------------------------
 Coupling Information
--------------------------------------------------
 between  1 and  2 states
--------------------------------------------------
 g vector - difference gradient
     0.00037395     0.00443250    -0.05420024
    -0.00168057    -0.00664402     0.06340666
     0.00526208    -0.01159165    -0.00977507
     0.00302889     0.01272944     0.00478567
    -0.00192079    -0.01180827     0.00380000
    -0.00506356     0.01288200    -0.00801703

 h vector - derivative coupling
     0.00016586     0.00046766    -0.01299209
     0.00029737    -0.00095643     0.00987649
    -0.00117399    -0.01133870    -0.00001307
    -0.00237831     0.01226758     0.00139455
     0.00190808    -0.01172047    -0.00008558
     0.00118098     0.01128037     0.00181970

 G vector - GDV
     0.00036300     0.00439517    -0.05329477
    -0.00169573    -0.00657230     0.06267598
     0.00532452    -0.01086953    -0.00975561
     0.00316994     0.01194780     0.00469045
    -0.00203493    -0.01106217     0.00379804
    -0.00512681     0.01216102    -0.00811408

 H vector - DCV - non-adiabatic coupling
     0.00073573     0.00288793    -0.06362918
     0.00075299    -0.00532323     0.05371710
    -0.00330321    -0.04693255    -0.00240471
    -0.00852937     0.05082260     0.00658131
     0.00696561    -0.04847092     0.00058189
     0.00337825     0.04701616     0.00515358
--------------------------------------------------


--------------------------------------------------------------------------------
DFTB+ running times                          cpu [s]             wall clock [s]
--------------------------------------------------------------------------------
SCC                                    +     0.02  ( 69.2%)      0.03  ( 66.7%)
Post-SCC processing                    +     0.01  ( 27.1%)      0.01  ( 25.6%)
--------------------------------------------------------------------------------
Missing                                +     0.00  (  3.7%)      0.00  (  7.7%)
Total                                  =     0.03  (100.0%)      0.04  (100.0%)
--------------------------------------------------------------------------------
