 Fermi distribution function

Calculation with static geometry


********************************************************************************
 iSCC Total electronic   Diff electronic      SCC error    
   10   -0.54015982E+01   -0.62172489E-13    0.22286272E-07
********************************************************************************

 Total charge:     1.00000000

 Atomic gross charges (e)
 Atom           Charge
    1       0.13856240
    2      -0.02437106
    3       0.17264220
    4       0.27000547
    5       0.27147232
    6       0.17168866

Nr. of electrons (up):     12.00000000
Atom populations (up)
 Atom       Population
    1       3.86143760
    2       5.02437106
    3       0.82735780
    4       0.72999453
    5       0.72852768
    6       0.82831134

l-shell populations (up)
 Atom Sh.   l       Population
    1   1   0       1.33033013
    1   2   1       2.53110746
    2   1   0       1.42929848
    2   2   1       3.59507258
    3   1   0       0.82735780
    4   1   0       0.72999453
    5   1   0       0.72852768
    6   1   0       0.82831134

Orbital populations (up)
 Atom Sh.   l   m       Population  Label
    1   1   0   0       1.33033013  s
    1   2   1  -1       0.61282431  p_y
    1   2   1   0       0.86816833  p_z
    1   2   1   1       1.05011482  p_x
    2   1   0   0       1.42929848  s
    2   2   1  -1       1.32015241  p_y
    2   2   1   0       1.12499414  p_z
    2   2   1   1       1.14992603  p_x
    3   1   0   0       0.82735780  s
    4   1   0   0       0.72999453  s
    5   1   0   0       0.72852768  s
    6   1   0   0       0.82831134  s

Fermi level:                        -0.5051974864 H          -13.7471 eV
Band energy:                        -8.9339096139 H         -243.1040 eV
TS:                                  0.0000000000 H            0.0000 eV
Band free energy (E-TS):            -8.9339096139 H         -243.1040 eV
Extrapolated E(0K):                 -8.9339096139 H         -243.1040 eV
Input / Output electrons (q):     12.0000000000     12.0000000000

Energy H0:                          -5.5357405725 H         -150.6352 eV
Energy SCC:                          0.1341424199 H            3.6502 eV
Total Electronic energy:            -5.4015981526 H         -146.9850 eV
Repulsive energy:                    0.1808671624 H            4.9216 eV
Total energy:                       -5.2207309902 H         -142.0633 eV
Extrapolated to 0:                  -5.2207309902 H         -142.0633 eV
Total Mermin free energy:           -5.2207309902 H         -142.0633 eV
Force related energy:               -5.2207309902 H         -142.0633 eV

SCC converged

Excitation Energy:                   0.1491461626 H            4.0585 eV

Total Forces
    1      0.002290752893     -0.008901042592      0.049124279594
    2     -0.018037210867      0.000218134424     -0.058739640335
    3     -0.007940568678      0.002457956532      0.001277661896
    4      0.008111084060      0.002632009020      0.010362944978
    5      0.010890408772      0.002716155580     -0.001259511339
    6      0.004685533819      0.000876787037     -0.000765734794

Maximal derivative component:        0.587396E-01 au


