     6
  Step:     0            Position(A)                                  Velocity(au)
C        -0.03080934     0.00892299     0.03577962     0.00005265    -0.00012510     0.00016791
N        -0.05066641    -0.04163763     1.28475335    -0.00001572     0.00008633    -0.00015629
H         0.88168302     0.00968969    -0.54738108    -0.00005793     0.00042233     0.00032360
H         0.84964524    -0.19185378     1.85551226    -0.00040434    -0.00024597     0.00002314
H        -0.88651521    -0.07308102     1.79128759     0.00068466    -0.00030183     0.00030470
H        -0.98654644     0.05775084    -0.48711385    -0.00063134     0.00041654    -0.00048044
     6
  Step:     1            Position(A)                                  Velocity(au)
C        -0.03020994     0.00757682     0.03674920     0.00005431    -0.00012131     0.00000571
N        -0.05054842    -0.04071749     1.28386064     0.00003617     0.00008236    -0.00000542
H         0.88202010     0.01441220    -0.54495856     0.00012009     0.00044289     0.00011655
H         0.84367611    -0.19445686     1.85504917    -0.00067097    -0.00023249    -0.00010233
H        -0.88168123    -0.07656113     1.79671265     0.00019555    -0.00033605     0.00068610
H        -0.99453065     0.06236646    -0.49364696    -0.00079443     0.00042666    -0.00069311
     6
  Step:     2            Position(A)                                  Velocity(au)
C        -0.02962131     0.00626921     0.03590455     0.00005074    -0.00011817    -0.00015996
N        -0.04987510    -0.03983582     1.28463482     0.00008277     0.00007949     0.00014568
H         0.88431014     0.01937865    -0.54483143     0.00029293     0.00046688    -0.00009157
H         0.83496638    -0.19693993     1.85327351    -0.00089292    -0.00022644    -0.00020762
H        -0.88223720    -0.08043287     1.80629737    -0.00026790    -0.00037174     0.00104292
H        -1.00392607     0.06708481    -0.50227689    -0.00088692     0.00043477    -0.00086219
     6
  Step:     3            Position(A)                                  Velocity(au)
C        -0.02909995     0.00499171     0.03324984     0.00004230    -0.00011588    -0.00032137
N        -0.04873769    -0.03897846     1.28704775     0.00011853     0.00007809     0.00029123
H         0.88842853     0.02462619    -0.54696188     0.00044869     0.00049407    -0.00029188
H         0.82414172    -0.19941072     1.85050705    -0.00104557    -0.00023285    -0.00027442
H        -0.88754207    -0.08469368     1.81952863    -0.00064730    -0.00040538     0.00133507
H        -1.01393377     0.07187791    -0.51250902    -0.00090711     0.00043993    -0.00098636
     6
  Step:     4            Position(A)                                  Velocity(au)
C        -0.02869588     0.00373404     0.02887394     0.00002976    -0.00011459    -0.00047119
N        -0.04728194    -0.03812748     1.29100603     0.00013938     0.00007849     0.00042524
H         0.89412617     0.03018737    -0.55121689     0.00057699     0.00052389    -0.00047620
H         0.81209257    -0.20203406     1.84726994    -0.00110613    -0.00025701    -0.00028563
H        -0.89639820    -0.08930126     1.83550449    -0.00090350    -0.00043364     0.00153489
H        -1.02377092     0.07670913    -0.52385542    -0.00085884     0.00044150    -0.00106766
     6
  Step:     5            Position(A)                                  Velocity(au)
C        -0.02844894     0.00248494     0.02294171     0.00001412    -0.00011431    -0.00060321
N        -0.04568850    -0.03726138     1.29635064     0.00014315     0.00008099     0.00054208
H         0.90105130     0.03608739    -0.55737963     0.00066977     0.00055561    -0.00063764
H         0.79994304    -0.20503322     1.84425839    -0.00105701    -0.00030387    -0.00022788
H        -0.90730792    -0.09418040     1.85310719    -0.00102070    -0.00045411     0.00163087
H        -1.03272263     0.08153658    -0.53586616    -0.00074963     0.00043911    -0.00111034
     6
  Step:     6            Position(A)                                  Velocity(au)
C        -0.02838703     0.00123322     0.01567748    -0.00000351    -0.00011503    -0.00071293
N        -0.04415018    -0.03635568     1.30286497     0.00012978     0.00008580     0.00063724
H         0.90877865     0.04234240    -0.56516655     0.00072184     0.00058831    -0.00077109
H         0.78896851    -0.20868171     1.84228466    -0.00089101    -0.00037698    -0.00009533
H        -0.91872795    -0.09923576     1.87118283    -0.00100349    -0.00046556     0.00162611
H        -1.04017053     0.08631558    -0.54814613    -0.00058910     0.00043266    -0.00111980
     6
  Step:     7            Position(A)                                  Velocity(au)
C        -0.02852567    -0.00003150     0.00734501    -0.00002201    -0.00011662    -0.00079775
N        -0.04284924    -0.03538438     1.31029158     0.00010123     0.00009293     0.00070815
H         0.91684296     0.04895776    -0.57424880     0.00073098     0.00062113    -0.00087332
H         0.78045051    -0.21328045     1.84217284    -0.00061692    -0.00047703     0.00010651
H        -0.92926108    -0.10436538     1.88868150    -0.00087049    -0.00046798     0.00153403
H        -1.04561026     0.09100189    -0.56036386    -0.00038804     0.00042216    -0.00110196
     6
  Step:     8            Position(A)                                  Velocity(au)
C        -0.02886854    -0.00131810    -0.00177482    -0.00004036    -0.00011895    -0.00085696
N        -0.04193558    -0.03432258     1.31835714     0.00006127     0.00010213     0.00075451
H         0.92477028     0.05593074    -0.58427212     0.00069767     0.00065333    -0.00094286
H         0.77547211    -0.21911772     1.84461484    -0.00026285    -0.00060049     0.00035877
H        -0.93777166    -0.10947380     1.90474264    -0.00064762    -0.00046235     0.00137347
H        -1.04865962     0.09555122    -0.57225370    -0.00015777     0.00040771    -0.00106278
     6
  Step:     9            Position(A)                                  Velocity(au)
C        -0.02940853    -0.00263370    -0.01140257    -0.00005760    -0.00012184    -0.00089136
N        -0.04150883    -0.03315010     1.32679787     0.00001504     0.00011281     0.00077814
H         0.93210575     0.06325068    -0.59487571     0.00062462     0.00068428    -0.00097979
H         0.77470019    -0.22641742     1.85002173     0.00012577    -0.00073924     0.00063092
H        -0.94342900    -0.11448025     1.91872871    -0.00036305    -0.00045027     0.00116505
H        -1.04906178     0.09992141    -0.58361412     0.00009007     0.00038956    -0.00100802
     6
  Step:    10            Position(A)                                  Velocity(au)
C        -0.03012871    -0.00398364    -0.02127505    -0.00007290    -0.00012515    -0.00090287
N        -0.04160662    -0.03185472     1.33538044    -0.00003171     0.00012415     0.00078232
H         0.93843515     0.07090058    -0.60570697     0.00051638     0.00071346    -0.00098542
H         0.77822358    -0.23529006     1.85841735     0.00049433    -0.00088165     0.00088660
H        -0.94571411    -0.11932443     1.93023042    -0.00004487    -0.00043382     0.00092933
H        -1.04668910     0.10407369    -0.59430608     0.00034351     0.00036808    -0.00094333
     6
  Step:    11            Position(A)                                  Velocity(au)
C        -0.03100336    -0.00537165    -0.03115459    -0.00008602    -0.00012198    -0.00099936
N        -0.04220260    -0.03043398     1.34391266    -0.00007329     0.00013338     0.00085570
H         0.94340252     0.07885895    -0.61643371     0.00032936     0.00078725    -0.00087282
H         0.78551466    -0.24570523     1.86941776     0.00074443    -0.00109458     0.00103374
H        -0.94441066    -0.12397080     1.93905964     0.00031573    -0.00033400     0.00065683
H        -1.04154674     0.10797382    -0.60425122     0.00065396     0.00024136    -0.00080046
     6
  Step:    12            Position(A)                                  Velocity(au)
C        -0.03201058    -0.00665221    -0.04313788    -0.00009624    -0.00011166    -0.00118129
N        -0.04320998    -0.02893670     1.35410042    -0.00010545     0.00013889     0.00100053
H         0.94564046     0.08812326    -0.62480167     0.00007434     0.00088008    -0.00065254
H         0.79450952    -0.25923599     1.88103234     0.00084688    -0.00133586     0.00105268
H        -0.93880692    -0.12663138     1.94459977     0.00068853    -0.00017414     0.00036019
H        -1.03238237     0.10935382    -0.61181758     0.00100248     0.00003039    -0.00058776
     6
  Step:    13            Position(A)                                  Velocity(au)
C        -0.03310884    -0.00781434    -0.05699752    -0.00010213    -0.00010065    -0.00133762
N        -0.04450960    -0.02739548     1.36580108    -0.00012526     0.00014185     0.00112790
H         0.94502877     0.09811246    -0.63070921    -0.00018143     0.00093238    -0.00043087
H         0.80404180    -0.27492976     1.89244720     0.00084327    -0.00150400     0.00100117
H        -0.92934765    -0.12778047     1.94693960     0.00099886    -0.00004945     0.00009096
H        -1.01961559     0.10863864    -0.61710954     0.00129691    -0.00015074    -0.00039591
     6
  Step:    14            Position(A)                                  Velocity(au)
C        -0.03424480    -0.00885407    -0.07240085    -0.00010258    -0.00008949    -0.00146222
N        -0.04595031    -0.02583350     1.37877546    -0.00013017     0.00014294     0.00123192
H         0.94167127     0.10852095    -0.63422786    -0.00041810     0.00096236    -0.00022254
H         0.81295777    -0.29213882     1.90293476     0.00074004    -0.00161867     0.00088924
H        -0.91695495    -0.12771327     1.94658966     0.00120359     0.00004974    -0.00011558
H        -1.00400996     0.10605605    -0.62047880     0.00150576    -0.00031339    -0.00024646
     6
  Step:    15            Position(A)                                  Velocity(au)
C        -0.03535300    -0.00977209    -0.08898643    -0.00009646    -0.00007860    -0.00155370
N        -0.04735740    -0.02426839     1.39275170    -0.00011839     0.00014271     0.00131066
H         0.93588207     0.11916602    -0.63557778    -0.00061634     0.00097940    -0.00004071
H         0.82023161    -0.31034121     1.91190110     0.00055230    -0.00168992     0.00073074
H        -0.90301679    -0.12669230     1.94441104     0.00126178     0.00012420    -0.00022987
H        -0.98667423     0.10178263    -0.62250136     0.00159686    -0.00046021    -0.00015969
     6
  Step:    16            Position(A)                                  Velocity(au)
C        -0.03635501    -0.01057369    -0.10639099    -0.00008271    -0.00006843    -0.00161251
N        -0.04854036    -0.02271134     1.40744870    -0.00008908     0.00014180     0.00136400
H         0.92818774     0.12994731    -0.63511840    -0.00075693     0.00099049     0.00010252
H         0.82504045    -0.32910908     1.91892119     0.00030060    -0.00172634     0.00054175
H        -0.88935113    -0.12499614     1.94156090     0.00114052     0.00017214    -0.00023010
H        -0.96907560     0.09598809    -0.62397236     0.00153923    -0.00059134    -0.00015409
     6
  Step:    17            Position(A)                                  Velocity(au)
C        -0.03716239    -0.01126908    -0.12426308    -0.00006090    -0.00005938    -0.00164017
N        -0.04930618    -0.02116626     1.42259172    -0.00004304     0.00014083     0.00139320
H         0.91932283     0.14083481    -0.63333490    -0.00082165     0.00100197     0.00019665
H         0.82680786    -0.34810821     1.92375297     0.00000838    -0.00173693     0.00033887
H        -0.87806578    -0.12292650     1.93937706     0.00082668     0.00019255    -0.00010914
H        -0.95300072     0.08884593    -0.62587241     0.00131029    -0.00070702    -0.00024243
     6
  Step:    18            Position(A)                                  Velocity(au)
C        -0.03768731    -0.01187273    -0.14227287    -0.00003197    -0.00005172    -0.00163917
N        -0.04948184    -0.01963039     1.43792757     0.00001649     0.00014034     0.00140094
H         0.91021264     0.15186733    -0.63081635    -0.00079531     0.00101996     0.00023388
H         0.82522381    -0.36710781     1.92633457    -0.00029944    -0.00173192     0.00013813
H        -0.87126592    -0.12078379     1.93917321     0.00033966     0.00018778     0.00011849
H        -0.94041054     0.08052072    -0.62927598     0.00090687    -0.00080962    -0.00042602
     6
  Step:    19            Position(A)                                  Velocity(au)
C        -0.03786185    -0.01240059    -0.16012308     0.00000115    -0.00004544    -0.00161306
N        -0.04894536    -0.01809616     1.45323989     0.00008342     0.00014065     0.00139110
H         0.90192383     0.16314840    -0.62821834    -0.00066913     0.00104989     0.00021072
H         0.82025699    -0.38599718     1.92677482    -0.00059730    -0.00172307    -0.00004554
H        -0.87063512    -0.11881855     1.94196931    -0.00026232     0.00016471     0.00041457
H        -0.93316126     0.07113403    -0.63519236     0.00035586    -0.00090463    -0.00068965
     6
  Step:    20            Position(A)                                  Velocity(au)
C        -0.03766224    -0.01286678    -0.17756170     0.00003360    -0.00004021    -0.00156659
N        -0.04765690    -0.01655329     1.46836050     0.00014943     0.00014200     0.00136824
H         0.89557410     0.17483565    -0.62620648    -0.00044487     0.00109551     0.00012967
H         0.81215677    -0.40480329     1.92533829    -0.00086000    -0.00172371    -0.00019884
H        -0.87700470    -0.11718051     1.94824280    -0.00088957     0.00013391     0.00072414
H        -0.93262551     0.06073024    -0.64436340    -0.00028240    -0.00099989    -0.00100091
     6
  Step:    21            Position(A)                                  Velocity(au)
C        -0.03712685    -0.01328017    -0.19439530     0.00005968    -0.00003546    -0.00150557
N        -0.04567638    -0.01498958     1.48317270     0.00020569     0.00014461     0.00133683
H         0.89219138     0.18711489    -0.62538165    -0.00013830     0.00115758     0.00000016
H         0.80144292    -0.42370665     1.92242474    -0.00106450    -0.00174812    -0.00031086
H        -0.89009623    -0.11588908     1.95781125    -0.00144291     0.00010682     0.00099032
H        -0.93933937     0.04925943    -0.65708925    -0.00092382    -0.00110322    -0.00131639
     6
  Step:    22            Position(A)                                  Velocity(au)
C        -0.03635651    -0.01364255    -0.21049884     0.00007470    -0.00003055    -0.00143614
N        -0.04315711    -0.01338970     1.49760631     0.00024502     0.00014885     0.00130051
H         0.89254850     0.20015994    -0.62620300     0.00022008     0.00123273    -0.00016198
H         0.78886881    -0.44304686     1.91853752    -0.00119300    -0.00181010    -0.00037436
H        -0.90857113    -0.11484366     1.96990793    -0.00184060     0.00009238     0.00117004
H        -0.95283595     0.03659516    -0.67316195    -0.00148163    -0.00121941    -0.00159300
     6
  Step:    23            Position(A)                                  Velocity(au)
C        -0.03549257    -0.01394851    -0.22581355     0.00007654    -0.00002486    -0.00136373
N        -0.04031601    -0.01173320     1.51162383     0.00026352     0.00015521     0.00126154
H         0.89700610     0.21408326    -0.62892527     0.00058840     0.00131336    -0.00033689
H         0.77534378    -0.46330605     1.91423481    -0.00123683    -0.00192043    -0.00038735
H        -0.93036291    -0.11386818     1.98340813    -0.00203676     0.00009496     0.00124271
H        -0.97175289     0.02258243    -0.69193928    -0.00188886    -0.00134855    -0.00179900
     6
  Step:    24            Position(A)                                  Velocity(au)
C        -0.03468211    -0.01418630    -0.24033313     0.00006610    -0.00001785    -0.00129229
N        -0.03739207    -0.00999416     1.52520489     0.00026102     0.00016403     0.00122102
H         0.90542094     0.22889210    -0.63357305     0.00092103     0.00138883    -0.00050444
H         0.76181086    -0.48505987     1.91006360    -0.00120033    -0.00208357    -0.00035445
H        -0.95312920    -0.11276614     1.99709467    -0.00202439     0.00011445     0.00120940
H        -0.99415844     0.00709304    -0.71251857    -0.00211119    -0.00148648    -0.00191930
     6
  Step:    25            Position(A)                                  Velocity(au)
C        -0.03404645    -0.01433896    -0.25408481     0.00004652    -0.00000912    -0.00122404
N        -0.03460580    -0.00814463     1.53833594     0.00024058     0.00017517     0.00117940
H         0.91715539     0.24446666    -0.63996091     0.00117779     0.00144789    -0.00064811
H         0.74908420    -0.50888817     1.90648058    -0.00110289    -0.00229438    -0.00028729
H        -0.97465023    -0.11136434     2.00986599    -0.00182617     0.00014771     0.00108580
H        -1.01793912    -0.00993716    -0.73392764    -0.00214620    -0.00162680    -0.00195412
     6
  Step:    26            Position(A)                                  Velocity(au)
C        -0.03366446    -0.01438581    -0.26711129     0.00002169     0.00000158    -0.00115978
N        -0.03212900    -0.00616188     1.55100653     0.00020740     0.00018775     0.00113697
H         0.93118742     0.26056748    -0.64775177     0.00133120     0.00148107    -0.00075742
H         0.73768298    -0.53525378     1.90377853    -0.00097701    -0.00253644    -0.00020294
H        -0.99308016    -0.10953481     2.02084871    -0.00148114     0.00019042     0.00089426
H        -1.04111064    -0.02849627    -0.75526878    -0.00201373    -0.00176294    -0.00191372
     6
  Step:    27            Position(A)                                  Velocity(au)
C        -0.03357189    -0.01430433    -0.27945726    -0.00000488     0.00001433    -0.00109933
N        -0.03006845    -0.00403720     1.56320943     0.00016758     0.00020016     0.00109405
H         0.94627801     0.27686791    -0.65653097     0.00136936     0.00148246    -0.00082841
H         0.72771030    -0.56437766     1.90204078    -0.00086218    -0.00278350    -0.00012059
H        -1.00705294    -0.10719856     2.02942959    -0.00103364     0.00023842     0.00065792
H        -1.06199331    -0.04850492    -0.77579382    -0.00174420    -0.00188955    -0.00181260
     6
  Step:    28            Position(A)                                  Velocity(au)
C        -0.03377119    -0.01407240    -0.29116113    -0.00003071     0.00002898    -0.00104191
N        -0.02846283    -0.00178300     1.57494087     0.00012700     0.00021036     0.00105084
H         0.96114475     0.29299917    -0.66587488     0.00129444     0.00145016    -0.00086245
H         0.71882110    -0.59614820     1.90114046    -0.00079609    -0.00300411    -0.00005737
H        -1.01569305    -0.10431902     2.03524187    -0.00052723     0.00028825     0.00039802
H        -1.07926831    -0.06983370    -0.79492286    -0.00136994    -0.00200286    -0.00166559
     6
  Step:    29            Position(A)                                  Velocity(au)
C        -0.03424380    -0.01367026    -0.30225109    -0.00005436     0.00004527    -0.00098655
N        -0.02729017     0.00056481     1.58619851     0.00009061     0.00021635     0.00100728
H         0.97459630     0.30859291    -0.67539872     0.00111868     0.00138571    -0.00086430
H         0.71029424    -0.63009841     1.90078579    -0.00080638    -0.00316812    -0.00002500
H        -1.01858709    -0.10089253     2.03813713    -0.00000295     0.00033727     0.00013350
H        -1.09196337    -0.09232123    -0.81223189    -0.00092080    -0.00210065    -0.00148593
     6
  Step:    30            Position(A)                                  Velocity(au)
C        -0.03496048    -0.01308208    -0.31274382    -0.00007515     0.00006279    -0.00093220
N        -0.02648048     0.00294996     1.59697695     0.00006222     0.00021659     0.00096283
H         0.98561809     0.32331428    -0.68478305     0.00085992     0.00129309    -0.00084028
H         0.70118005    -0.66545694     1.90059350    -0.00090597    -0.00325257    -0.00002832
H        -1.01575753    -0.09694069     2.03816252     0.00049963     0.00038335    -0.00011829
H        -1.09941249    -0.11578935    -0.82743039    -0.00042280    -0.00218194    -0.00128480
     6
  Step:    31            Position(A)                                  Velocity(au)
C        -0.03588775    -0.01229659    -0.32264484    -0.00009281     0.00008113    -0.00087788
N        -0.02592899     0.00530324     1.60726225     0.00004454     0.00021033     0.00091650
H         0.99340860     0.33688180    -0.69378156     0.00053802     0.00117769    -0.00079703
H         0.69047452    -0.70125452     1.90016635    -0.00109304    -0.00324499    -0.00006584
H        -1.00765668    -0.09250605     2.03554941     0.00094057     0.00042466    -0.00034059
H        -1.10121282    -0.14005543    -0.84033929     0.00010131    -0.00224685    -0.00107175
     6
  Step:    32            Position(A)                                  Velocity(au)
C        -0.03699079    -0.01130723    -0.33194906    -0.00010725     0.00009987    -0.00082263
N        -0.02550599     0.00755127     1.61702709     0.00003958     0.00019753     0.00086692
H         0.99738827     0.34907858    -0.70221960     0.00017296     0.00104565    -0.00074081
H         0.67726776    -0.73644738     1.89915320    -0.00135441    -0.00314373    -0.00013172
H        -0.99518067    -0.08765042     2.03071156     0.00127850     0.00045951    -0.00051678
H        -1.09719614    -0.16494348    -0.85087696     0.00063089    -0.00229648    -0.00085533
     6
  Step:    33            Position(A)                                  Velocity(au)
C        -0.03823412    -0.01011168    -0.34064135    -0.00011841     0.00011866    -0.00076554
N        -0.02506300     0.00962464     1.62622780     0.00004883     0.00017883     0.00081260
H         0.99719234     0.35975733    -0.70998825    -0.00021602     0.00090349    -0.00067741
H         0.66084422    -0.77002952     1.89728461    -0.00167013    -0.00295601    -0.00021794
H        -0.97968706    -0.08245338     2.02424392     0.00147207     0.00048654    -0.00063111
H        -1.08741088    -0.19029526    -0.85905120     0.00114637    -0.00233305    -0.00064366
     6
  Step:    34            Position(A)                                  Velocity(au)
C        -0.03958114    -0.00871126    -0.34869665    -0.00012611     0.00013721    -0.00070568
N        -0.02443765     0.01146351     1.63480438     0.00007317     0.00015524     0.00075222
H         0.99266249     0.36884417    -0.71703921    -0.00061032     0.00075812    -0.00061221
H         0.64073053    -0.80111584     1.89438528    -0.00201751    -0.00269552    -0.00031597
H        -0.96297642    -0.07700652     2.01690493     0.00148557     0.00050533    -0.00067103
H        -1.07211716    -0.21598347    -0.86495823     0.00162814    -0.00236018    -0.00044506
     6
  Step:    35            Position(A)                                  Velocity(au)
C        -0.04099302    -0.00710989    -0.35607951    -0.00013012     0.00015534    -0.00064207
N        -0.02346220     0.01302076     1.64268414     0.00011234     0.00012795     0.00068498
H         0.98384045     0.37634269    -0.72338148    -0.00099166     0.00061690    -0.00055046
H         0.61670726    -0.82899917     1.89037212    -0.00237378    -0.00238025    -0.00041780
H        -0.94718744    -0.07139828     2.00956381     0.00129890     0.00051746    -0.00063107
H        -1.05179215    -0.24192866    -0.86878774     0.00205600    -0.00238319    -0.00026843
     6
  Step:    36            Position(A)                                  Velocity(au)
C        -0.04242786    -0.00531295    -0.36274320    -0.00013015     0.00017297    -0.00057361
N        -0.02198004     0.01426277     1.64978953     0.00016416     0.00009819     0.00061091
H         0.97096805     0.38234000    -0.72908149    -0.00134147     0.00048785    -0.00049755
H         0.58879944    -0.85318839     1.88524518    -0.00271747    -0.00203127    -0.00051632
H        -0.93456044    -0.06568609     2.00309917     0.00091970     0.00052749    -0.00051690
H        -1.02713828    -0.26812032    -0.87083067     0.00240883    -0.00240962    -0.00012353
     6
  Step:    37            Position(A)                                  Velocity(au)
C        -0.04384019    -0.00332582    -0.36862839    -0.00012592     0.00019018    -0.00049912
N        -0.01987094     0.01516883     1.65604903     0.00022398     0.00006709     0.00053110
H         0.95449331     0.38701527    -0.73426640    -0.00164056     0.00037981    -0.00045928
H         0.55725749    -0.87343716     1.87907657    -0.00302897    -0.00167217    -0.00060541
H        -0.92706730    -0.05985851     1.99825568     0.00039190     0.00054332    -0.00034757
H        -0.99909429    -0.29464369    -0.87149025     0.00266559    -0.00244944    -0.00002069
     6
  Step:    38            Position(A)                                  Velocity(au)
C        -0.04518252    -0.00115240    -0.37366233    -0.00011748     0.00020713    -0.00041739
N        -0.01708013     0.01573050     1.66140843     0.00028485     0.00003581     0.00044745
H         0.93507765     0.39064917    -0.73912916    -0.00186914     0.00030252    -0.00044194
H         0.52253482    -0.88977039     1.87200076    -0.00329100    -0.00132881    -0.00067974
H        -0.92598690    -0.05379983     1.99549539    -0.00020656     0.00057518    -0.00015319
H        -0.96882345    -0.32170648    -0.87128330     0.00280816    -0.00251462     0.00003058
     6
  Step:    39            Position(A)                                  Velocity(au)
C        -0.04641033     0.00120549    -0.37775970    -0.00010550     0.00022397    -0.00032750
N        -0.01363923     0.01595223     1.66583791     0.00033878     0.00000560     0.00036220
H         0.91360239     0.39363356    -0.74393477    -0.00200778     0.00026619    -0.00045212
H         0.48526066    -0.90250748     1.86420589    -0.00348918    -0.00102852    -0.00073483
H        -0.93158612    -0.04727532     1.99490428    -0.00077992     0.00063315     0.00003211
H        -0.93766040    -0.34965592    -0.87082136     0.00282620    -0.00261750     0.00002406
     6
  Step:    40            Position(A)                                  Velocity(au)
C        -0.04749064     0.00374738    -0.38082697    -0.00009157     0.00024068    -0.00022907
N        -0.00966860     0.01585310     1.66933220     0.00037854    -0.00002213     0.00027727
H         0.89115353     0.39647263    -0.74902022    -0.00203993     0.00028052    -0.00049591
H         0.44620243    -0.91227127     1.85592488    -0.00361332    -0.00079798    -0.00076712
H        -0.94304913    -0.03994850     1.99619776    -0.00123898     0.00072455     0.00017917
H        -0.90699497    -0.37896928    -0.87075699     0.00272300    -0.00276742    -0.00003959
     6
  Step:    41            Position(A)                                  Velocity(au)
C        -0.04841357     0.00647081    -0.38277115    -0.00007823     0.00025682    -0.00012280
N        -0.00535794     0.01546802     1.67190377     0.00039929    -0.00004604     0.00019385
H         0.86897506     0.39977055    -0.75478369    -0.00195573     0.00035293    -0.00057741
H         0.40621228    -0.91996491     1.84742376    -0.00365877    -0.00065954    -0.00077425
H        -0.95869108    -0.03142451     1.99882387    -0.00152215     0.00085248     0.00027052
H        -0.87808961    -0.41019855    -0.87168755     0.00252015    -0.00296622    -0.00014943
     6
  Step:    42            Position(A)                                  Velocity(au)
C        -0.04920217     0.00936573    -0.38351338    -0.00006856     0.00027145    -0.00001067
N        -0.00093331     0.01484579     1.67357298     0.00039929    -0.00006524     0.00011224
H         0.84836820     0.40419360    -0.76165216    -0.00175731     0.00048589    -0.00069644
H         0.36615985    -0.92670003     1.83898661    -0.00362731    -0.00062590    -0.00075545
H        -0.97634917    -0.02129891     2.00211593    -0.00160421     0.00101629     0.00030223
H        -0.85186183    -0.44386096    -0.87402597     0.00225714    -0.00320425    -0.00028294
     6
  Step:    43            Position(A)                                  Velocity(au)
C        -0.04991350     0.01240919    -0.38300456    -0.00006514     0.00028330     0.00010395
N         0.00337724     0.01404086     1.67435916     0.00037949    -0.00007983     0.00003209
H         0.83053050     0.41040039    -0.77001955    -0.00146292     0.00067444    -0.00084598
H         0.32685794    -0.93365777     1.83089688    -0.00352678    -0.00069464    -0.00071153
H        -0.99378621    -0.00919123     2.00543583    -0.00149183     0.00121338     0.00028145
H        -0.82871029    -0.48029759    -0.87787741     0.00198413    -0.00345958    -0.00040860
     6
  Step:    44            Position(A)                                  Velocity(au)
C        -0.05062722     0.01556339    -0.38123916    -0.00006899     0.00029121     0.00021674
N         0.00736883     0.01309937     1.67427493     0.00034257    -0.00009135    -0.00004734
H         0.81636401     0.41894820    -0.78015958    -0.00110756     0.00090466    -0.00101055
H         0.28900488    -0.94189662     1.82342052    -0.00336855    -0.00084493    -0.00064451
H        -1.00898589     0.00524620     2.00827309    -0.00121211     0.00144133     0.00022203
H        -0.80845516    -0.51954598    -0.88296486     0.00174982    -0.00370167    -0.00049180
     6