|===============================================================================
|
|  DFTB+ release 20.1
|
|  Copyright (C) 2006 - 2020  DFTB+ developers group
|
|===============================================================================
|
|  When publishing results obtained with DFTB+, please cite the following
|  reference:
|
|  * DFTB+, a software package for efficient approximate density functional
|    theory based atomistic simulations, J. Chem. Phys. 152, 124101 (2020).
|    [doi: 10.1063/1.5143190]
|
|  You should also cite additional publications crediting the parametrization
|  data you use. Please consult the documentation of the SK-files for the
|  references.
|
|===============================================================================

Reading input file 'dftb_in.hsd'
Parser version: 8

--------------------------------------------------------------------------------
Reading SK-files:
Done.


Processed input in HSD format written to 'dftb_pin.hsd'

Starting initialization...
--------------------------------------------------------------------------------
OpenMP threads:              1
Chosen random seed:          452098499
Mode:                        Static calculation
Self consistent charges:     Yes
SCC-tolerance:                 0.100000E-05
Max. scc iterations:                   1000
Shell resolved Hubbard:      No
Spin polarisation:           No
Nr. of up electrons:             6.000000
Nr. of down electrons:           6.000000
Periodic boundaries:         No
Electronic solver:           Relatively robust
Maximal SCC-cycles:                    1000
Initial charges:             Set automatically (system chrg:   0.100E+01)
Included shells:             C:  s, p
                             N:  s, p
                             H:  s
Spin coupling constants:     C   1(s)-1(s):  -0.455900E-01
                             C   1(s)-2(p):  -0.293000E-01
                             C   2(p)-1(s):  -0.293000E-01
                             C   2(p)-2(p):  -0.275500E-01
                             N   1(s)-1(s):  -0.468700E-01
                             N   1(s)-2(p):  -0.317000E-01
                             N   2(p)-1(s):  -0.317000E-01
                             N   2(p)-2(p):  -0.307200E-01
                             H   1(s)-1(s):  -0.792500E-01
Range separated hybrid:      Yes
  Screening parameter omega:   0.300000E+00
  Range separated algorithm:   MatrixBased
Extra options:
                             Mulliken analysis
                             Force calculation
Force type                   original
                             Eigenvector printing


REKS Calcuation:             Yes
SSR(2,2) Calcuation:         Yes
Energy Functional:           (PPS+OSS)/2
Number of Core Orbitals:                  5
Number of Active Orbitals:                2
Number of Basis:                         12
Number of States:                         2
State-Averaging Weight:          0.500000
                                 0.500000
State of Interest:                        1
Initial Guess:               Diagonalize H0 matrix
Newton-Raphson for FON opt:  Yes
NR max. Iterations:                      50
Level Shifting:              Yes
Shift Value:                     0.300000
W Scale Factor:              C  =    3.200000
                             N  =    3.200000
                             H  =    3.200000
Transition Dipole:           No
Gradient of Microstate:      No
CP-REKS Solver:              Preconditioned Conjugate-Gradient
CG max. Iterations:                     100
CG Tolerance:                  0.100000E-07
Memory for A and Hxc:        Direct Updating Without Saving
Non-Adiabatic Coupling:      Yes

--------------------------------------------------------------------------------

***  Geometry step: 0

  iSCC       reks energy        Diff energy         x_a       SCC error   
    1       -6.1436486626       0.0000000000     0.998451    1.23323506
    2       -6.1485636700      -0.0049150074     0.999148    0.02741610
    3       -6.1499607469      -0.0013970769     0.999410    0.01340003
    4       -6.1504120817      -0.0004513348     0.999525    0.00660981
    5       -6.1505702408      -0.0001581591     0.999582    0.00359764
    6       -6.1506305640      -0.0000603232     0.999613    0.00242077
    7       -6.1506554491      -0.0000248851     0.999631    0.00164674
    8       -6.1506664207      -0.0000109716     0.999641    0.00112888
    9       -6.1506715300      -0.0000051093     0.999648    0.00077884
   10       -6.1506740204      -0.0000024904     0.999652    0.00054073
   11       -6.1506752830      -0.0000012626     0.999655    0.00037795
   12       -6.1506759461      -0.0000006631     0.999656    0.00026610
   13       -6.1506763057      -0.0000003596     0.999657    0.00020451
   14       -6.1506765065      -0.0000002009     0.999658    0.00015895
   15       -6.1506766218      -0.0000001153     0.999659    0.00012394
   16       -6.1506766897      -0.0000000679     0.999659    0.00009702
   17       -6.1506767306      -0.0000000409     0.999659    0.00007625
   18       -6.1506767557      -0.0000000251     0.999659    0.00006198
   19       -6.1506767713      -0.0000000157     0.999659    0.00005137
   20       -6.1506767813      -0.0000000099     0.999659    0.00004248
   21       -6.1506767877      -0.0000000064     0.999659    0.00003506
   22       -6.1506767918      -0.0000000041     0.999659    0.00002891
   23       -6.1506767945      -0.0000000027     0.999659    0.00002382
   24       -6.1506767963      -0.0000000018     0.999659    0.00001961
   25       -6.1506767975      -0.0000000012     0.999659    0.00001613
   26       -6.1506767982      -0.0000000008     0.999659    0.00001327
   27       -6.1506767988      -0.0000000005     0.999659    0.00001091
   28       -6.1506767991      -0.0000000004     0.999659    0.00000897
   29       -6.1506767994      -0.0000000002     0.999659    0.00000738
   30       -6.1506767995      -0.0000000002     0.999659    0.00000606
   31       -6.1506767996      -0.0000000001     0.999659    0.00000498
   32       -6.1506767997      -0.0000000001     0.999659    0.00000410
   33       -6.1506767997      -0.0000000000     0.999659    0.00000337
   34       -6.1506767998      -0.0000000000     0.999659    0.00000277
   35       -6.1506767998      -0.0000000000     0.999659    0.00000228
   36       -6.1506767998      -0.0000000000     0.999659    0.00000187
   37       -6.1506767998      -0.0000000000     0.999659    0.00000154
   38       -6.1506767998      -0.0000000000     0.999659    0.00000126
   39       -6.1506767998      -0.0000000000     0.999659    0.00000104
   40       -6.1506767998      -0.0000000000     0.999659    0.00000086
  
--------------------------------------------------
 Final SA-REKS(2,2) energy:      -6.15067680
  
 State     Energy      FON(1)    FON(2)   Spin
  PPS   -6.25368679   1.999318  0.000682  0.00
  OSS   -6.04766681   1.000000  1.000000  0.00
 Trip   -6.13355098   1.000000  1.000000  1.00
--------------------------------------------------

 Lagrangian Wab:  -0.00928746 -0.00928719

--------------------------------------------------
 SSR: 2SI-2SA-REKS(2,2) Hamiltonian matrix
               PPS           OSS
   PPS    -6.25368679   -0.01288974
   OSS    -0.01288974   -6.04766681
--------------------------------------------------

----------------------------------------------------------------
 SSR: 2SI-2SA-REKS(2,2) states
                    E_n       C_{PPS}    C_{OSS}
 SSR state  1   -6.25449011  -0.998064  -0.062202
 SSR state  2   -6.04686349   0.062202  -0.998064
----------------------------------------------------------------

 unrelaxed SSR FONs for S0:  1.995452  0.004548

Total Energy:                       -6.2544901147 H         -170.1933 eV
Extrapolated to 0:                  -6.2544901147 H         -170.1933 eV

----------------------------------------------------------------------------------
 Solving CP-REKS equation for  1 state vector...
----------------------------------------------------------------------------------
  CG solver: Constructing Y initial guess
  CG solver: Iteration    1    eps =    0.000218248580
  CG solver: Iteration    2    eps =    0.000054532512
  CG solver: Iteration    3    eps =    0.000012115305
  CG solver: Iteration    4    eps =    0.000001103955
  CG solver: Iteration    5    eps =    0.000000122528
  CG solver: Iteration    6    eps =    0.000000023969
  CG solver: Iteration    7    eps =    0.000000000674
  Convergence reached in CG solver after    7 iterations
  CG solver: Calculating converged R, Z, Q2 matrix
----------------------------------------------------------------------------------

----------------------------------------------------------------------------------
 Solving CP-REKS equation for SI between  1 and  2 state vectors...
----------------------------------------------------------------------------------
  CG solver: Constructing Y initial guess
  CG solver: Iteration    1    eps =    0.006791653180
  CG solver: Iteration    2    eps =    0.005286121296
  CG solver: Iteration    3    eps =    0.000281272412
  CG solver: Iteration    4    eps =    0.000020281369
  CG solver: Iteration    5    eps =    0.000002635486
  CG solver: Iteration    6    eps =    0.000000102987
  CG solver: Iteration    7    eps =    0.000000011465
  CG solver: Iteration    8    eps =    0.000000000247
  Convergence reached in CG solver after    8 iterations
  CG solver: Calculating converged R, Z, Q2 matrix
----------------------------------------------------------------------------------

--------------------------------------------------
 Gradient Information
--------------------------------------------------
           1 st state (SSR)
    -0.00047523     0.11591767    -0.02020760
    -0.02238962    -0.01818766    -0.11052556
    -0.03079701     0.00494031     0.00351412
    -0.05632817     0.05968960     0.04837243
     0.08689871    -0.05032373    -0.03781453
     0.02309134    -0.11203619     0.11666115

           2 st state (SSR)
    -0.04992764     0.02860239     0.04945492
     0.05089094     0.00677103    -0.20560336
    -0.00631028     0.05630770     0.01852614
    -0.05254832     0.06051322     0.04051587
     0.05182978    -0.05778238    -0.03506400
     0.00606552    -0.09441196     0.13217042
--------------------------------------------------
 Coupling Information
--------------------------------------------------
 between  1 and  2 states
--------------------------------------------------
 g vector - difference gradient
     0.02481602     0.04375722    -0.03648928
    -0.03766405    -0.01265908     0.04863986
    -0.01438002    -0.02716851    -0.00798923
    -0.00239945    -0.00079961     0.00375805
     0.01949841     0.00480122    -0.00101433
     0.01012909    -0.00793124    -0.00690508

 h vector - derivative coupling
     0.00082321     0.00192505     0.01107944
     0.00589805     0.00065862    -0.00583577
     0.01631236     0.01026539     0.00339386
     0.00395414     0.00307349     0.00160522
    -0.01460234    -0.00833376    -0.00297015
    -0.01238542    -0.00758879    -0.00727260

 G vector - GDV
     0.02472620     0.04365764    -0.03483126
    -0.03664028    -0.01247934     0.04753890
    -0.01224336    -0.02568370    -0.00750601
    -0.00188993    -0.00041181     0.00392828
     0.01753446     0.00372933    -0.00137526
     0.00851291    -0.00881211    -0.00775463

 H vector - DCV - non-adiabatic coupling
    -0.01090603    -0.01696732     0.07477035
     0.05071064     0.01071785    -0.05697667
     0.08655727     0.06530601     0.02099711
     0.02033201     0.01516662     0.00542411
    -0.08144581    -0.04269878    -0.01358797
    -0.06524807    -0.03152438    -0.03062693
--------------------------------------------------


--------------------------------------------------------------------------------
DFTB+ running times                          cpu [s]             wall clock [s]
--------------------------------------------------------------------------------
SCC                                    +     0.02  ( 59.4%)      0.02  ( 54.3%)
Post-SCC processing                    +     0.01  ( 36.5%)      0.01  ( 31.4%)
  Force calculation                          0.01  ( 35.9%)      0.01  ( 28.6%)
--------------------------------------------------------------------------------
Missing                                +     0.00  (  4.1%)      0.01  ( 14.3%)
Total                                  =     0.03  (100.0%)      0.04  (100.0%)
--------------------------------------------------------------------------------
