     6
  Step:   120            Position(A)                                  Velocity(au)
C        -0.03741130     0.04659230    -0.12707298    -0.00003376     0.00000057     0.00056126
N        -0.02842105    -0.01403592     1.43898797     0.00006375     0.00006862    -0.00046076
H         0.88390646     0.23840245    -0.70737897    -0.00038126     0.00129658     0.00028104
H         0.55260821    -0.82455107     1.75053698    -0.00155121    -0.00159741    -0.00083092
H        -0.93435740     0.08882438     1.96301488     0.00057969     0.00111687    -0.00016511
H        -0.87433450    -0.53262511    -0.59659999     0.00086919    -0.00177634     0.00042985
