     6
  Step:     0            Position(A)                                  Velocity(au)
C        -0.03502839     0.01742496     0.02954629    -0.00009585    -0.00001291    -0.00018366
N        -0.04086227    -0.03953507     1.28473207    -0.00015305    -0.00003321     0.00007298
H         0.88857684    -0.01273741    -0.52926943     0.00048772     0.00013332    -0.00043464
H         0.79005012    -0.21529481     1.88025339     0.00119004     0.00001214     0.00142714
H        -0.91762408    -0.11999385     1.84437400     0.00091162     0.00025567    -0.00067146
H        -0.98870401     0.02000364    -0.50848050     0.00067968     0.00021420     0.00085332
     6
  Step:     1            Position(A)                                  Velocity(au)
C        -0.03556664     0.01740024     0.02812806    -0.00009949     0.00000374    -0.00033369
N        -0.04170477    -0.03971343     1.28551510    -0.00015270    -0.00003213     0.00021281
H         0.89159797    -0.01218150    -0.53175039     0.00060881     0.00007090    -0.00046834
H         0.79667608    -0.21537391     1.88794386     0.00121487    -0.00003758     0.00137212
H        -0.91268145    -0.11871795     1.84057197     0.00088198     0.00020981    -0.00070957
H        -0.98517190     0.02102409    -0.50386943     0.00060195     0.00015871     0.00082480
     6
  Step:     2            Position(A)                                  Velocity(au)
C        -0.03611689     0.01746591     0.02589563    -0.00010010     0.00002007    -0.00048013
N        -0.04253287    -0.03988655     1.28706025    -0.00014768    -0.00003121     0.00035046
H         0.89523743    -0.01196176    -0.53439325     0.00071209     0.00001050    -0.00049325
H         0.80334135    -0.21570592     1.89526495     0.00120463    -0.00008052     0.00129232
H        -0.90797485    -0.11769847     1.83661101     0.00082369     0.00016172    -0.00072786
H        -0.98211843     0.02173996    -0.49945686     0.00050469     0.00010290     0.00077993
     6
  Step:     3            Position(A)                                  Velocity(au)
C        -0.03666233     0.01761991     0.02287261    -0.00009757     0.00003590    -0.00062084
N        -0.04332129    -0.04005509     1.28935120    -0.00013806    -0.00003037     0.00048375
H         0.89939248    -0.01206655    -0.53714951     0.00079527    -0.00004748    -0.00050909
H         0.80986195    -0.21625525     1.90208956     0.00116168    -0.00011700     0.00119036
H        -0.90366541    -0.11694775     1.83260487     0.00073511     0.00011143    -0.00072416
H        -0.97964754     0.02215044    -0.49533237     0.00038916     0.00004727     0.00071858
     6
  Step:     4            Position(A)                                  Velocity(au)
C        -0.03718584     0.01785917     0.01909408    -0.00009191     0.00005101    -0.00075339
N        -0.04404532    -0.04021921     1.29235986    -0.00012400    -0.00002950     0.00061023
H         0.90394993    -0.01248192    -0.53997048     0.00085664    -0.00010248    -0.00051595
H         0.81606797    -0.21698774     1.90830578     0.00108877    -0.00014716     0.00106919
H        -0.89992143    -0.11647770     1.82867759     0.00061563     0.00005920    -0.00069699
H        -0.97785504     0.02225776    -0.49158456     0.00025731    -0.00000748     0.00064132
     6
  Step:     5            Position(A)                                  Velocity(au)
C        -0.03767052     0.01817948     0.01460816    -0.00008322     0.00006515    -0.00087506
N        -0.04468149    -0.04037869     1.29604516    -0.00010583    -0.00002855     0.00072723
H         0.90878956    -0.01319074    -0.54280926     0.00089521    -0.00015380    -0.00051429
H         0.82180536    -0.21786953     1.91381814     0.00098912    -0.00017095     0.00093208
H        -0.89691215    -0.11629837     1.82495911     0.00046608     0.00000556    -0.00064591
H        -0.97682494     0.02206835    -0.48829737     0.00011194    -0.00006042     0.00054953
     6
  Step:     6            Position(A)                                  Velocity(au)
C        -0.03810037     0.01857517     0.00947746    -0.00007176     0.00007803    -0.00098297
N        -0.04520835    -0.04053298     1.30035188    -0.00008406    -0.00002747     0.00083198
H         0.91378797    -0.01417207    -0.54562232     0.00091078    -0.00020064    -0.00050481
H         0.82693797    -0.21886638     1.91854903     0.00086648    -0.00018828     0.00078271
H        -0.89479942    -0.11641661     1.82157927     0.00028920    -0.00004869    -0.00057183
H        -0.97662482     0.02159378    -0.48554540    -0.00004317    -0.00011048     0.00044559
     6
  Step:     7            Position(A)                                  Velocity(au)
C        -0.03846102     0.01903907     0.00377986    -0.00005795     0.00008937    -0.00107431
N        -0.04560749    -0.04068131     1.30521014    -0.00005941    -0.00002622     0.00092176
H         0.91882261    -0.01540098    -0.54837016     0.00090395    -0.00024228    -0.00048826
H         0.83135038    -0.21994357     1.92244038     0.00072533    -0.00019916     0.00062516
H        -0.89372637    -0.11683471     1.81865986     0.00009005    -0.00010252    -0.00047731
H        -0.97730048     0.02085127    -0.48338880    -0.00020325    -0.00015662     0.00033281
     6
  Step:     8            Position(A)                                  Velocity(au)
C        -0.03874061     0.01956259    -0.00239210    -0.00004235     0.00009893    -0.00114668
N        -0.04586470    -0.04082268     1.31053602    -0.00003280    -0.00002477     0.00099425
H         0.92377536    -0.01684892    -0.55101693     0.00087608    -0.00027811    -0.00046534
H         0.83495181    -0.22106679     1.92545615     0.00057098    -0.00020386     0.00046404
H        -0.89380444    -0.11754936     1.81630569    -0.00012394    -0.00015479    -0.00036655
H        -0.97887044     0.01986334    -0.48186837    -0.00036265    -0.00019790     0.00021529
     6
  Step:     9            Position(A)                                  Velocity(au)
C        -0.03893054     0.02013591    -0.00893363    -0.00002565     0.00010654    -0.00119853
N        -0.04597114    -0.04095591     1.31623362    -0.00000536    -0.00002309     0.00104789
H         0.92853587    -0.01848447    -0.55352950     0.00082943    -0.00030779    -0.00043694
H         0.83768099    -0.22220377     1.92758534     0.00040957    -0.00020300     0.00030441
H        -0.89510057    -0.11855087     1.81459579    -0.00034345    -0.00020427    -0.00024521
H        -0.98132127     0.01865707    -0.48100181    -0.00051526    -0.00023365     0.00009760
     6
  Step:    10            Position(A)                                  Velocity(au)
C        -0.03902616     0.02074842    -0.01573217    -0.00000864     0.00011217    -0.00122960
N        -0.04592440    -0.04107967     1.32219943     0.00002168    -0.00002118     0.00108235
H         0.93300724    -0.02027468    -0.55588020     0.00076739    -0.00033130    -0.00040447
H         0.83951049    -0.22332623     1.92884430     0.00024771    -0.00019759     0.00015139
H        -0.89762720    -0.11982294     1.81357641    -0.00055816    -0.00024988    -0.00011980
H        -0.98460546     0.01726278    -0.48078200    -0.00065524    -0.00026352    -0.00001580
     6
  Step:    11            Position(A)                                  Velocity(au)
C        -0.03902706     0.02138938    -0.02267445     0.00000795     0.00011592    -0.00124131
N        -0.04572887    -0.04119260     1.32832886     0.00004716    -0.00001906     0.00109882
H         0.93711148    -0.02218673    -0.55804947     0.00069416    -0.00034908    -0.00036974
H         0.84044912    -0.22441181     1.92927714     0.00009188    -0.00018895     0.00000973
H        -0.90133805    -0.12134325     1.81325708    -0.00075821    -0.00029083     0.00000312
H        -0.98864355     0.01571226    -0.48117837    -0.00077790    -0.00028762    -0.00012121
     6
  Step:    12            Position(A)                                  Velocity(au)
C        -0.03893697     0.02204871    -0.02965580     0.00002347     0.00011808    -0.00123681
N        -0.04539540    -0.04129346     1.33452479     0.00007012    -0.00001677     0.00110013
H         0.94079352    -0.02419032    -0.56002753     0.00061435    -0.00036207    -0.00033471
H         0.84054115    -0.22544571     1.92895347    -0.00005222    -0.00017865    -0.00011682
H        -0.90613200    -0.12308510     1.81361136    -0.00093573    -0.00032682     0.00011781
H        -0.99333104     0.01403662    -0.48214162    -0.00088052    -0.00030652    -0.00021626
     6
  Step:    13            Position(A)                                  Velocity(au)
C        -0.03876299     0.02271790    -0.03658924     0.00003748     0.00011906    -0.00122049
N        -0.04493993    -0.04138127     1.34070599     0.00008995    -0.00001436     0.00109026
H         0.94402325    -0.02626018    -0.56181513     0.00053244    -0.00037156    -0.00030126
H         0.83986156    -0.22642177     1.92796280    -0.00018039    -0.00016829    -0.00022596
H        -0.91186558    -0.12502019     1.81458255    -0.00108586    -0.00035815     0.00022020
H        -0.99854986     0.01226377    -0.48361137    -0.00096266    -0.00032120    -0.00030017
     6
  Step:    14            Position(A)                                  Velocity(au)
C        -0.03851455     0.02339063    -0.04341200     0.00007725     0.00018530    -0.00185941
N        -0.04438161    -0.04145529     1.34681314     0.00016517    -0.00001842     0.00166746
H         0.94679466    -0.02837817    -0.56342308     0.00070231    -0.00058876    -0.00042088
H         0.83850796    -0.22734250     1.92640670    -0.00045044    -0.00024751    -0.00049202
H        -0.91837080    -0.12712178     1.81609321    -0.00187439    -0.00059881     0.00047846
H        -1.00418120     0.01041631    -0.48552490    -0.00159320    -0.00051704    -0.00058035
     6
  Step:    15            Position(A)                                  Velocity(au)
C        -0.03805005     0.02440422    -0.05345301     0.00008488     0.00017159    -0.00167530
N        -0.04341825    -0.04155438     1.35587495     0.00017115    -0.00001624     0.00152153
H         0.95074027    -0.03160240    -0.56601312     0.00068601    -0.00054722    -0.00048839
H         0.83574249    -0.22864553     1.92349519    -0.00050787    -0.00021488    -0.00052015
H        -0.92916309    -0.13043554     1.81906625    -0.00190069    -0.00056651     0.00055440
H        -1.01349102     0.00755632    -0.48927324    -0.00166722    -0.00049041    -0.00072663
     6
  Step:    16            Position(A)                                  Velocity(au)
C        -0.03754926     0.02534214    -0.06246513     0.00009003     0.00015866    -0.00149808
N        -0.04243509    -0.04164001     1.36411745     0.00017215    -0.00001373     0.00137973
H         0.95459658    -0.03460164    -0.56897748     0.00067000    -0.00050932    -0.00055200
H         0.83273204    -0.22978631     1.92049105    -0.00053666    -0.00019042    -0.00052530
H        -0.93998720    -0.13356463     1.82239838    -0.00188590    -0.00053355     0.00060547
H        -1.02314241     0.00483893    -0.49378884    -0.00171239    -0.00046659    -0.00085022
     6
  Step:    17            Position(A)                                  Velocity(au)
C        -0.03702610     0.02620880    -0.07049196     0.00009330     0.00014729    -0.00133629
N        -0.04146027    -0.04171050     1.37156782     0.00016925    -0.00001101     0.00124992
H         0.95836073    -0.03739527    -0.57229147     0.00065635    -0.00047719    -0.00061420
H         0.82963863    -0.23081139     1.91752051    -0.00054049    -0.00017499    -0.00051205
H        -0.95061301    -0.13650411     1.82595277    -0.00184210    -0.00050236     0.00063708
H        -1.03296751     0.00224941    -0.49894351    -0.00173745    -0.00044758    -0.00095675
     6
  Step:    18            Position(A)                                  Velocity(au)
C        -0.03649091     0.02701282    -0.07762254     0.00009500     0.00013746    -0.00119025
N        -0.04051535    -0.04176488     1.37829507     0.00016288    -0.00000813     0.00113254
H         0.96204143    -0.04001432    -0.57594430     0.00064426    -0.00045055    -0.00067567
H         0.82660132    -0.23177125     1.91468295    -0.00052126    -0.00016835    -0.00048274
H        -0.96088188    -0.13926283     1.82962468    -0.00177369    -0.00047294     0.00065252
H        -1.04285006    -0.00023795    -0.50464107    -0.00174477    -0.00043326    -0.00104923
     6
  Step:    19            Position(A)                                  Velocity(au)
C        -0.03595224     0.02776270    -0.08394649     0.00009520     0.00012885    -0.00105704
N        -0.03961903    -0.04180238     1.38437002     0.00015315    -0.00000508     0.00102508
H         0.96564339    -0.04248828    -0.57992924     0.00063155    -0.00042810    -0.00073562
H         0.82374630    -0.23271439     1.91206360    -0.00047986    -0.00016978    -0.00043852
H        -0.97066278    -0.14185018     1.83332879    -0.00168107    -0.00044428     0.00065345
H        -1.05269033    -0.00264814    -0.51080399    -0.00173314    -0.00042252    -0.00112843
     6
  Step:    20            Position(A)                                  Velocity(au)
C        -0.03541794     0.02846506    -0.08953671     0.00009396     0.00012108    -0.00093378
N        -0.03878919    -0.04182219     1.38984899     0.00014013    -0.00000188     0.00092494
H         0.96915978    -0.04483954    -0.58423558     0.00061599    -0.00040852    -0.00079273
H         0.82119272    -0.23368493     1.90974031    -0.00041744    -0.00017847    -0.00038053
H        -0.97982960    -0.14427040     1.83698986    -0.00156439    -0.00041541     0.00064110
H        -1.06238463    -0.00500025    -0.51735981    -0.00170094    -0.00041421    -0.00119416
     6
  Step:    21            Position(A)                                  Velocity(au)
C        -0.03489543     0.02912457    -0.09444961     0.00009139     0.00011391    -0.00081854
N        -0.03804291    -0.04182355     1.39477369     0.00012408     0.00000145     0.00083041
H         0.97257201    -0.04708332    -0.58884579     0.00059587    -0.00039085    -0.00084586
H         0.81905098    -0.23472176     1.90778344    -0.00033614    -0.00019348    -0.00031054
H        -0.98825890    -0.14652271     1.84053986    -0.00142514    -0.00038578     0.00061690
H        -1.07182241    -0.00730715    -0.52423579    -0.00164778    -0.00040749    -0.00124642
     6
  Step:    22            Position(A)                                  Velocity(au)
C        -0.03439143     0.02974454    -0.09873055     0.00008768     0.00010720    -0.00071021
N        -0.03739556    -0.04180586     1.39917617     0.00010544     0.00000489     0.00074057
H         0.97585259    -0.04922961    -0.59373632     0.00057007    -0.00037447    -0.00089425
H         0.81741714    -0.23585811     1.90625232    -0.00023918    -0.00021384    -0.00023097
H        -0.99583685    -0.14860353     1.84391889    -0.00126622    -0.00035523     0.00058259
H        -1.08089261    -0.00957714    -0.53135971    -0.00157466    -0.00040182    -0.00128576
     6
  Step:    23            Position(A)                                  Velocity(au)
C        -0.03391157     0.03032743    -0.10241850     0.00008306     0.00010086    -0.00060818
N        -0.03685986    -0.04176871     1.40308330     0.00008476     0.00000838     0.00065502
H         0.97896853    -0.05128505    -0.59887978     0.00053800    -0.00035900    -0.00093754
H         0.81636721    -0.23712111     1.90519186    -0.00013059    -0.00023846    -0.00014468
H        -1.00246658    -0.15050861     1.84707685    -0.00109143    -0.00032388     0.00054015
H        -1.08949097    -0.01181576    -0.53866267    -0.00148361    -0.00039692    -0.00131318
     6
  Step:    24            Position(A)                                  Velocity(au)
C        -0.03346024     0.03087529    -0.10554886     0.00007776     0.00009485    -0.00051207
N        -0.03644528    -0.04171197     1.40651957     0.00006268     0.00001186     0.00057358
H         0.98188404    -0.05325435    -0.60424707     0.00049938    -0.00034424    -0.00097568
H         0.81595310    -0.23853143     1.90463033    -0.00001492    -0.00026619    -0.00005476
H        -1.00807278    -0.15223452     1.84997453    -0.00090490    -0.00029199     0.00049160
H        -1.09752525    -0.01402704    -0.54608166    -0.00137713    -0.00039267    -0.00132999
     6
  Step:    25            Position(A)                                  Velocity(au)
C        -0.03304055     0.03138991    -0.10815458     0.00007199     0.00008914    -0.00042152
N        -0.03615774    -0.04163583     1.40950840     0.00003982     0.00001529     0.00049616
H         0.98456248    -0.05514108    -0.60980907     0.00045421    -0.00033004    -0.00100880
H         0.81620010    -0.24010290     1.90457843     0.00010305    -0.00029583     0.00003566
H        -1.01260297    -0.15377935     1.85258357    -0.00071066    -0.00025986     0.00043881
H        -1.10491722    -0.01621432    -0.55356084    -0.00125778    -0.00038899    -0.00133756
     6
  Step:    26            Position(A)                                  Velocity(au)
C        -0.03265449     0.03187295    -0.11026658     0.00006596     0.00008371    -0.00033618
N        -0.03599963    -0.04154080     1.41207260     0.00001679     0.00001861     0.00042264
H         0.98696765    -0.05694820    -0.61553760     0.00040262    -0.00031633    -0.00103712
H         0.81710641    -0.24184243     1.90502944     0.00021856    -0.00032617     0.00012359
H        -1.01602655    -0.15514294     1.85488569    -0.00051243    -0.00022783     0.00038348
H        -1.11160243    -0.01838061    -0.56105170    -0.00112793    -0.00038585    -0.00133718
     6
  Step:    27            Position(A)                                  Velocity(au)
C        -0.03230302     0.03232597    -0.11191366     0.00005981     0.00007855    -0.00025564
N        -0.03597004    -0.04142771     1.41423427    -0.00000586     0.00002177     0.00035288
H         0.98906451    -0.05867825    -0.62140590     0.00034482    -0.00030304    -0.00106088
H         0.81864401    -0.24375011     1.90596035     0.00032714    -0.00035602     0.00020626
H        -1.01833290    -0.15632688     1.85687156    -0.00031355    -0.00019617     0.00032710
H        -1.11752955    -0.02052881    -0.56851291    -0.00098973    -0.00038323    -0.00133002
     6
  Step:    28            Position(A)                                  Velocity(au)
C        -0.03198633     0.03275040    -0.11312239     0.00005369     0.00007362    -0.00017951
N        -0.03606505    -0.04129765     1.41601468    -0.00002760     0.00002470     0.00028670
H         0.99081967    -0.06033348    -0.62738868     0.00028109    -0.00029011    -0.00108028
H         0.82076094    -0.24581951     1.90733360     0.00042476    -0.00038424     0.00028125
H        -1.01952917    -0.15733435     1.85853973    -0.00011700    -0.00016515     0.00027098
H        -1.12265877    -0.02266167    -0.57590943    -0.00084504    -0.00038109    -0.00131708
     6
  Step:    29            Position(A)                                  Velocity(au)
C        -0.03170389     0.03314759    -0.11391698     0.00004768     0.00006891    -0.00010736
N        -0.03627803    -0.04115200     1.41743391    -0.00004799     0.00002738     0.00022388
H         0.99220152    -0.06191587    -0.63346188     0.00021175    -0.00027748    -0.00109548
H         0.82338432    -0.24803826     1.90909914     0.00050795    -0.00040982     0.00034650
H        -1.01963867    -0.15816997     1.85989567     0.00007442    -0.00013502     0.00021628
H        -1.12696024    -0.02478176    -0.58321158    -0.00069544    -0.00037937    -0.00129915
     6
  Step:    30            Position(A)                                  Velocity(au)
C        -0.03145471     0.03351873    -0.11431935     0.00004187     0.00006440    -0.00003881
N        -0.03660006    -0.04099236     1.41851077    -0.00006663     0.00002977     0.00016417
H         0.99318052    -0.06342715    -0.63960235     0.00013717    -0.00026511    -0.00110656
H         0.82642413    -0.25038871     1.91119680     0.00057394    -0.00043187     0.00040037
H        -1.01869950    -0.15883972     1.86095113     0.00025811    -0.00010602     0.00016410
H        -1.13041231    -0.02689136    -0.59039395    -0.00054225    -0.00037802    -0.00127688
     6
  Step:    31            Position(A)                                  Velocity(au)
C        -0.03123745     0.03386491    -0.11434926     0.00003631     0.00006005     0.00002649
N        -0.03702021    -0.04082045     1.41926260    -0.00008319     0.00003183     0.00010733
H         0.99372944    -0.06486882    -0.64578759     0.00005779    -0.00025294    -0.00111357
H         0.82977726    -0.25284880     1.91355874     0.00062068    -0.00044966     0.00044164
H        -1.01676370    -0.15935085     1.86172353     0.00043157    -0.00007837     0.00011542
H        -1.13300023    -0.02899245    -0.59743443    -0.00038664    -0.00037696    -0.00125073
     6
  Step:    32            Position(A)                                  Velocity(au)
C        -0.03105056     0.03418708    -0.11402451     0.00003104     0.00005586     0.00008885
N        -0.03752594    -0.04063813     1.41970531    -0.00009740     0.00003356     0.00005312
H         0.99382371    -0.06624217    -0.65199542    -0.00002587    -0.00024095    -0.00111653
H         0.83333174    -0.25539299     1.91611182     0.00064687    -0.00046261     0.00046951
H        -1.01389656    -0.15971186     1.86223568     0.00059238    -0.00005230     0.00007122
H        -1.13471525    -0.03108658    -0.60431351    -0.00022964    -0.00037610    -0.00122110
     6
  Step:    33            Position(A)                                  Velocity(au)
C        -0.03089232     0.03448609    -0.11336123     0.00002606     0.00005180     0.00014851
N        -0.03810336    -0.04044728     1.41985333    -0.00010903     0.00003495     0.00000130
H         0.99344175    -0.06754830    -0.65820385    -0.00011324    -0.00022911    -0.00111541
H         0.83697070    -0.25799317     1.91877990     0.00065192    -0.00047033     0.00048361
H        -1.01017624    -0.15993246     1.86251549     0.00073816    -0.00002805     0.00003241
H        -1.13555395    -0.03317487    -0.61101361    -0.00007221    -0.00037537    -0.00118828
     6
  Step:    34            Position(A)                                  Velocity(au)
C        -0.03076099     0.03476270    -0.11237418     0.00002139     0.00004785     0.00020566
N        -0.03873756    -0.04024978     1.41971975    -0.00011791     0.00003600    -0.00004834
H         0.99256533    -0.06878818    -0.66439084    -0.00020365    -0.00021738    -0.00111020
H         0.84057645    -0.26061966     1.92148607     0.00063597    -0.00047260     0.00048393
H        -1.00569350    -0.16002358     1.86259585     0.00086660    -0.00000584    -0.00000009
H        -1.13551768    -0.03525801    -0.61751862     0.00008477    -0.00037468    -0.00115248
     6
  Step:    35            Position(A)                                  Velocity(au)
C        -0.03065480     0.03501756    -0.11107709     0.00001702     0.00004401     0.00026044
N        -0.03941291    -0.04004742     1.41931640    -0.00012392     0.00003674    -0.00009600
H         0.99117993    -0.06996268    -0.67053428    -0.00029638    -0.00020577    -0.00110085
H         0.84403412    -0.26324215     1.92415467     0.00059977    -0.00046938     0.00047083
H        -1.00055136    -0.15999736     1.86251451     0.00097546     0.00001409    -0.00002541
H        -1.13461250    -0.03733624    -0.62381362     0.00024037    -0.00037395    -0.00111391
     6
  Step:    36            Position(A)                                  Velocity(au)
C        -0.03057202     0.03525129    -0.10948291     0.00001296     0.00004027     0.00031293
N        -0.04011327    -0.03984190     1.41865399    -0.00012700     0.00003718    -0.00014184
H         0.98927508    -0.07107260    -0.67661195    -0.00039063    -0.00019427    -0.00108734
H         0.84723483    -0.26583052     1.92671307     0.00054461    -0.00046076     0.00044498
H        -0.99486431    -0.15986710     1.86231377     0.00106274     0.00003156    -0.00004275
H        -1.13284920    -0.03940939    -0.62988474     0.00039367    -0.00037310    -0.00107277
     6
  Step:    37            Position(A)                                  Velocity(au)
C        -0.03051095     0.03546447    -0.10760420     0.00000920     0.00003662     0.00036316
N        -0.04082234    -0.03963476     1.41774231    -0.00012713     0.00003736    -0.00018597
H         0.98684477    -0.07211872    -0.68260159    -0.00048553    -0.00018288    -0.00106968
H         0.85007824    -0.26835562     1.92909303     0.00047226    -0.00044696     0.00040727
H        -0.98875706    -0.15964711     1.86204002     0.00112671     0.00004638    -0.00005145
H        -1.13024352    -0.04147691    -0.63571917     0.00054371    -0.00037208    -0.00102924
     6
  Step:    38            Position(A)                                  Velocity(au)
C        -0.03046998     0.03565765    -0.10545332     0.00000572     0.00003307     0.00041112
N        -0.04152393    -0.03942737     1.41659045    -0.00012438     0.00003730    -0.00022850
H         0.98388774    -0.07310185    -0.68848096    -0.00058016    -0.00017162    -0.00104789
H         0.85247496    -0.27078995     1.93123213     0.00038487    -0.00042836     0.00035888
H        -0.98236246    -0.15935249     1.86174289     0.00116613     0.00005843    -0.00005101
H        -1.12681624    -0.04353792    -0.64130509     0.00068949    -0.00037082    -0.00098355
     6
  Step:    39            Position(A)                                  Velocity(au)
C        -0.03044754     0.03583138    -0.10304275     0.00000251     0.00002962     0.00045675
N        -0.04220234    -0.03922093     1.41520703    -0.00011885     0.00003703    -0.00026947
H         0.98040783    -0.07402288    -0.69422807    -0.00067355    -0.00016051    -0.00102204
H         0.85434847    -0.27310828     1.93307483     0.00028495    -0.00040540     0.00030114
H        -0.97581870    -0.15899882     1.86147404     0.00118031     0.00006766    -0.00004120
H        -1.12259350    -0.04559124    -0.64663181     0.00082998    -0.00036929    -0.00093592
     6
  Step:    40            Position(A)                                  Velocity(au)
C        -0.03044214     0.03598626    -0.10038531    -0.00000043     0.00002627     0.00049995
N        -0.04284265    -0.03901646     1.41360048    -0.00011072     0.00003660    -0.00030886
H         0.97641417    -0.07488282    -0.69982128    -0.00076468    -0.00014957    -0.00099221
H         0.85563669    -0.27528819     1.93457347     0.00017523    -0.00037865     0.00023556
H        -0.96926597    -0.15860176     1.86128574     0.00116923     0.00007409    -0.00002207
H        -1.11760696    -0.04763546    -0.65168991     0.00096410    -0.00036744    -0.00088661
     6
  Step:    41            Position(A)                                  Velocity(au)
C        -0.03045237     0.03612291    -0.09749439    -0.00000313     0.00002304     0.00054058
N        -0.04343115    -0.03881480     1.41177931    -0.00010026     0.00003601    -0.00034663
H         0.97192143    -0.07568281    -0.70523957    -0.00085253    -0.00013884    -0.00095857
H         0.85629311    -0.27731055     1.93568904     0.00005862    -0.00034875     0.00016377
H        -0.96284264    -0.15817658     1.86122916     0.00113361     0.00007784     0.00000602
H        -1.11189398    -0.04966901    -0.65647137     0.00109078    -0.00036524    -0.00083591
     6
  Step:    42            Position(A)                                  Velocity(au)
C        -0.03047686     0.03624202    -0.09438411    -0.00000558     0.00001994     0.00057849
N        -0.04395564    -0.03861665     1.40975240    -0.00008776     0.00003531    -0.00038267
H         0.96694989    -0.07642420    -0.71046276    -0.00093604    -0.00012837    -0.00092130
H         0.85628750    -0.27915983     1.93639160    -0.00006185    -0.00031638     0.00008749
H        -0.95668125    -0.15773765     1.86135258     0.00107494     0.00007911     0.00004232
H        -1.10549775    -0.05169017    -0.66096977     0.00120892    -0.00036269    -0.00078416
     6
  Step:    43            Position(A)                                  Velocity(au)
C        -0.03051432     0.03634436    -0.09106949    -0.00000780     0.00001699     0.00061350
N        -0.04440579    -0.03842260     1.40752929    -0.00007360     0.00003451    -0.00041682
H         0.96152549    -0.07710854    -0.71547180    -0.00101419    -0.00011819    -0.00088065
H         0.85560618    -0.28082434     1.93666076    -0.00018316    -0.00028226     0.00000848
H        -0.95090407    -0.15729794     1.86169922     0.00099552     0.00007822     0.00008571
H        -1.09846732    -0.05369718    -0.66518045     0.00131745    -0.00035978    -0.00073170
     6
  Step:    44            Position(A)                                  Velocity(au)
C        -0.03056349     0.03643077    -0.08756660    -0.00000979     0.00001420     0.00064541
N        -0.04477348    -0.03823311     1.40512045    -0.00005821     0.00003363    -0.00044890
H         0.95567973    -0.07773764    -0.72024902    -0.00108598    -0.00010836    -0.00083693
H         0.85425211    -0.28229649     1.93648581    -0.00030230    -0.00024717    -0.00007149
H        -0.94561848    -0.15686844     1.86230506     0.00089849     0.00007557     0.00013467
H        -1.09085754    -0.05568827    -0.66910075     0.00141534    -0.00035653    -0.00067893
     6