     6
  Step:     0            Position(A)                                  Velocity(au)
C        -0.04020682     0.00344403     0.01123237     0.00007277    -0.00002785    -0.00039407
N        -0.04484958    -0.05857807     1.30223896     0.00007943    -0.00005323     0.00029820
H         0.94796473     0.06899965    -0.50955967     0.00035592     0.00023819     0.00014653
H         0.82975335    -0.09634940     1.89946444    -0.00084866     0.00027510    -0.00109347
H        -0.86867855     0.01749296     1.83239138    -0.00107665     0.00032523     0.00132162
H        -1.01962476     0.11306145    -0.56047114    -0.00040147     0.00023312     0.00017715
     6
  Step:     1            Position(A)                                  Velocity(au)
C        -0.03980910     0.00328597     0.00872593     0.00007242    -0.00002989    -0.00052020
N        -0.04436089    -0.05890751     1.30414268     0.00009657    -0.00006688     0.00039643
H         0.94982981     0.07043637    -0.50869395     0.00032416     0.00028650     0.00016914
H         0.82497752    -0.09470266     1.89324625    -0.00088267     0.00032584    -0.00116829
H        -0.87528882     0.01947772     1.84000130    -0.00131583     0.00039764     0.00144496
H        -1.02163373     0.11445516    -0.55931671    -0.00033049     0.00027565     0.00024397
     6
  Step:     2            Position(A)                                  Velocity(au)
C        -0.03941432     0.00311692     0.00553974     0.00007155    -0.00003179    -0.00064054
N        -0.04379284    -0.05930994     1.30657713     0.00010793    -0.00007966     0.00049067
H         0.95151207     0.07213491    -0.50770879     0.00028878     0.00033293     0.00018923
H         0.82009411    -0.09278362     1.88667968    -0.00088414     0.00037363    -0.00121658
H        -0.88307787     0.02184444     1.84820388    -0.00150230     0.00046329     0.00153384
H        -1.02324133     0.11607790    -0.55780128    -0.00025475     0.00031604     0.00030775
     6
  Step:     3            Position(A)                                  Velocity(au)
C        -0.03902523     0.00293771     0.00170832     0.00007011    -0.00003349    -0.00075270
N        -0.04317840    -0.05978029     1.30951828     0.00011298    -0.00009132     0.00057902
H         0.95299364     0.07408390    -0.50662079     0.00025057     0.00037649     0.00020549
H         0.81529112    -0.09060924     1.87991781    -0.00084890     0.00041758    -0.00123427
H        -0.89174755     0.02455336     1.85680557    -0.00163130     0.00052044     0.00158518
H        -1.02442470     0.11791761    -0.55594514    -0.00017574     0.00035363     0.00036650
     6
  Step:     4            Position(A)                                  Velocity(au)
C        -0.03864487     0.00274937    -0.00272074     0.00006808    -0.00003497    -0.00085407
N        -0.04255299    -0.06031209     1.31293157     0.00011140    -0.00010158     0.00065937
H         0.95426196     0.07626672    -0.50545361     0.00021078     0.00041617     0.00021668
H         0.81077787    -0.08820098     1.87313424    -0.00077398     0.00045683    -0.00121832
H        -0.90098049     0.02755598     1.86560031    -0.00170060     0.00056757     0.00159762
H        -1.02516995     0.11995877    -0.55377910    -0.00009551     0.00038775     0.00041824
     6
  Step:     5            Position(A)                                  Velocity(au)
C        -0.03827636     0.00255308    -0.00768586     0.00006546    -0.00003620    -0.00094209
N        -0.04195305    -0.06089757     1.31677093     0.00010323    -0.00011022     0.00072960
H         0.95531211     0.07866148    -0.50423745     0.00017103     0.00045103     0.00022174
H         0.80677783    -0.08558438     1.86651710    -0.00065834     0.00049076    -0.00116729
H        -0.91045294     0.03079618     1.87437827    -0.00171056     0.00060347     0.00157160
H        -1.02547529     0.12218259    -0.55134476    -0.00001664     0.00041786     0.00046104
     6
  Step:     6            Position(A)                                  Velocity(au)
C        -0.03792284     0.00235010    -0.01311182     0.00006228    -0.00003719    -0.00101456
N        -0.04141436    -0.06152782     1.32097899     0.00008884    -0.00011710     0.00078789
H         0.95614836     0.08124156    -0.50300784     0.00013307     0.00048037     0.00021993
H         0.80351644    -0.08278799     1.86025926    -0.00050355     0.00051899    -0.00108187
H        -0.91984769     0.03421213     1.88293481    -0.00166424     0.00062746     0.00150942
H        -1.02535352     0.12456764    -0.54869395     0.00005802     0.00044358     0.00049321
     6
  Step:     7            Position(A)                                  Velocity(au)
C        -0.03758719     0.00214160    -0.01891190     0.00005864    -0.00003796    -0.00106999
N        -0.04097003    -0.06219322     1.32548890     0.00006897    -0.00012213     0.00083300
H         0.95678458     0.08397673    -0.50180396     0.00009865     0.00050376     0.00021087
H         0.80120607    -0.07984178     1.85454622    -0.00031415     0.00054153    -0.00096524
H        -0.92886771     0.03773905     1.89107999    -0.00156724     0.00063949     0.00141517
H        -1.02483325     0.12709084    -0.54588735     0.00012563     0.00046484     0.00051355
     6
  Step:     8            Position(A)                                  Velocity(au)
C        -0.03727175     0.00192862    -0.02499199     0.00005466    -0.00003856    -0.00110794
N        -0.04064861    -0.06288388     1.33022785     0.00004468    -0.00012539     0.00086458
H         0.95724370     0.08683480    -0.50066650     0.00006925     0.00052119     0.00019466
H         0.80002842    -0.07677529     1.84954215    -0.00009766     0.00055882    -0.00082299
H        -0.93724887     0.04131241     1.89864756    -0.00142747     0.00064018     0.00129455
H        -1.02395861     0.12972883    -0.54299196     0.00018364     0.00048187     0.00052144
     6
  Step:     9            Position(A)                                  Velocity(au)
C        -0.03697816     0.00171196    -0.03125619     0.00005052    -0.00003906    -0.00112915
N        -0.04047218    -0.06359030     1.33512182     0.00001730    -0.00012705     0.00088328
H         0.95755614     0.08978367    -0.49963517     0.00004597     0.00053311     0.00017179
H         0.80011800    -0.07361557     1.84537668     0.00013614     0.00057169    -0.00066268
H        -0.94477215     0.04487177     1.90550344    -0.00125458     0.00063090     0.00115444
H        -1.02278720     0.13245964    -0.54007763     0.00023009     0.00049525     0.00051701
     6
  Step:    10            Position(A)                                  Velocity(au)
C        -0.03670710     0.00149206    -0.03761323     0.00004639    -0.00003953    -0.00113556
N        -0.04045518    -0.06430397     1.34010088    -0.00001177    -0.00012739     0.00089072
H         0.95775759     0.09279378    -0.49874631     0.00002947     0.00054043     0.00014313
H         0.80155020    -0.07038514     1.84213492     0.00037646     0.00058135    -0.00049285
H        -0.95127215     0.04836444     1.91155155    -0.00105895     0.00061360     0.00100222
H        -1.02138671     0.13526460    -0.53721300     0.00026383     0.00050597     0.00050111
     6
  Step:    11            Position(A)                                  Velocity(au)
C        -0.03645824     0.00126893    -0.04398289     0.00004247    -0.00004008    -0.00113007
N        -0.04060409    -0.06501800     1.34510449    -0.00004123    -0.00012679     0.00088931
H         0.95788638     0.09584051    -0.49803110     0.00001993     0.00054441     0.00010965
H         0.80433712    -0.06710018     1.83985305     0.00061285     0.00058924    -0.00032194
H        -0.95664025     0.05174864     1.91673577    -0.00085046     0.00059058     0.00084486
H        -1.01983031     0.13813023    -0.53446152     0.00028454     0.00051526     0.00047514
     6
  Step:    12            Position(A)                                  Velocity(au)
C        -0.03623022     0.00104209    -0.05030121     0.00006447    -0.00006757    -0.00184851
N        -0.04091809    -0.06572747     1.35008575    -0.00011591    -0.00020809     0.00146064
H         0.95798135     0.09890615    -0.49751515     0.00002851     0.00090513     0.00011975
H         0.80843099    -0.06376941     1.83852026     0.00138524     0.00098857    -0.00026043
H        -0.96082074     0.05499520     1.92103734    -0.00105586     0.00093446     0.00113994
H        -1.01819196     0.14104976    -0.53187836     0.00048465     0.00086877     0.00073004
     6
  Step:    13            Position(A)                                  Velocity(au)
C        -0.03589037     0.00065355    -0.06027817     0.00003256    -0.00004067    -0.00097321
N        -0.04163522    -0.06685741     1.35799931    -0.00007913    -0.00011111     0.00077538
H         0.95842639     0.10397268    -0.49725573     0.00007611     0.00051467    -0.00001483
H         0.81675009    -0.05839518     1.83759694     0.00089304     0.00052994    -0.00004418
H        -0.96613402     0.06006585     1.92698672    -0.00047742     0.00049806     0.00056037
H        -1.01572660     0.14587080    -0.52824769     0.00021989     0.00048605     0.00032046
     6
  Step:    14            Position(A)                                  Velocity(au)
C        -0.03571426     0.00042142    -0.06568999     0.00003023    -0.00004185    -0.00094698
N        -0.04215553    -0.06747885     1.36232671    -0.00010436    -0.00010953     0.00076041
H         0.95887240     0.10687025    -0.49745662     0.00008403     0.00051411    -0.00005694
H         0.82230677    -0.05538038     1.83775712     0.00106628     0.00054087     0.00009284
H        -0.96820357     0.06278454     1.92970717    -0.00026177     0.00046742     0.00040991
H        -1.01452754     0.14864184    -0.52657517     0.00020154     0.00049848     0.00027148
     6
  Step:    15            Position(A)                                  Velocity(au)
C        -0.03554986     0.00018214    -0.07094418     0.00002859    -0.00004351    -0.00092408
N        -0.04281069    -0.06809109     1.36656396    -0.00012760    -0.00010864     0.00074890
H         0.95937282     0.10976320    -0.49789701     0.00009572     0.00051672    -0.00010032
H         0.82875980    -0.05230326     1.83864261     0.00121750     0.00055586     0.00021365
H        -0.96908241     0.06533051     1.93160365    -0.00005684     0.00044020     0.00027066
H        -1.01345658     0.15148524    -0.52519002     0.00017620     0.00051536     0.00022039
     6
  Step:    16            Position(A)                                  Velocity(au)
C        -0.03539341    -0.00006683    -0.07606031     0.00002755    -0.00004557    -0.00090359
N        -0.04358754    -0.06869801     1.37073110    -0.00014839    -0.00010832     0.00074015
H         0.95994664     0.11266901    -0.49858243     0.00011048     0.00052192    -0.00014489
H         0.83596988    -0.04914239     1.84015477     0.00134253     0.00057408     0.00031729
H        -0.96884144     0.06772460     1.93274461     0.00013644     0.00041620     0.00014244
H        -1.01255021     0.15442537    -0.52410193     0.00014437     0.00053619     0.00016705
     6
  Step:    17            Position(A)                                  Velocity(au)
C        -0.03524161    -0.00032770    -0.08105280     0.00002703    -0.00004797    -0.00088420
N        -0.04447077    -0.06930289     1.37484408    -0.00016620    -0.00010843     0.00073304
H         0.96060872     0.11560197    -0.49951787     0.00012748     0.00052887    -0.00019032
H         0.84377879    -0.04588100     1.84219219     0.00143708     0.00059435     0.00040285
H        -0.96755604     0.06998656     1.93319710     0.00031638     0.00039512     0.00002550
H        -1.01184149     0.15748362    -0.52332116     0.00010668     0.00056009     0.00011146
     6
  Step:    18            Position(A)                                  Velocity(au)
C        -0.03509175    -0.00060223    -0.08592875     0.00002692    -0.00005061    -0.00086468
N        -0.04544253    -0.06990818     1.37891252    -0.00018053    -0.00010881     0.00072648
H         0.96136942     0.11857173    -0.50070656     0.00014587     0.00053675    -0.00023611
H         0.85200900    -0.04250886     1.84465096     0.00149762     0.00061546     0.00046965
H        -0.96531035     0.07213455     1.93302923     0.00048047     0.00037684    -0.00007929
H        -1.01135960     0.16067651    -0.52285791     0.00006399     0.00058611     0.00005387
     6
  Step:    19            Position(A)                                  Velocity(au)
C        -0.03494165    -0.00089164    -0.09068863     0.00002713    -0.00005339    -0.00084418
N        -0.04648250    -0.07051548     1.38293984    -0.00019092    -0.00010935     0.00071956
H         0.96223424     0.12158335    -0.50214898     0.00016475     0.00054482    -0.00028162
H         0.86046789    -0.03902248     1.84742585     0.00152199     0.00063627     0.00051748
H        -0.96220178     0.07418599     1.93231348     0.00062568     0.00036143    -0.00017066
H        -1.01112846     0.16401514    -0.52272082     0.00001747     0.00061332    -0.00000516
     6
  Step:    20            Position(A)                                  Velocity(au)
C        -0.03478968    -0.00119666    -0.09532805     0.00002757    -0.00005623    -0.00082217
N        -0.04756830    -0.07112577     1.38692424    -0.00019708    -0.00010998     0.00071158
H         0.96320374     0.12463794    -0.50384216     0.00018323     0.00055256    -0.00032617
H         0.86895519    -0.03542448     1.85041271     0.00150966     0.00065586     0.00054673
H        -0.95834393     0.07615884     1.93112901     0.00074874     0.00034919    -0.00024711
H        -1.01116508     0.16750535    -0.52291535    -0.00003143     0.00064086    -0.00006485
     6
  Step:    21            Position(A)                                  Velocity(au)
C        -0.03463476    -0.00151754    -0.09983973     0.00002816    -0.00005907    -0.00079845
N        -0.04867612    -0.07173963     1.39086006    -0.00019883    -0.00011066     0.00070209
H         0.96427367     0.12773358    -0.50577943     0.00020048     0.00055956    -0.00036911
H         0.87727112    -0.03172245     1.85351116     0.00146170     0.00067352     0.00055836
H        -0.95386791     0.07807268     1.92956301     0.00084653     0.00034056    -0.00030713
H        -1.01147831     0.17114826    -0.52344263    -0.00008112     0.00066801    -0.00012429
     6
  Step:    22            Position(A)                                  Velocity(au)
C        -0.03447630    -0.00185412    -0.10421528     0.00002879    -0.00006183    -0.00077306
N        -0.04978145    -0.07235748     1.39473895    -0.00019615    -0.00011138     0.00069080
H         0.96543520     0.13086621    -0.50795058     0.00021573     0.00056558    -0.00040982
H         0.88522494    -0.02792773     1.85662768     0.00138061     0.00068876     0.00055392
H        -0.94892143     0.07994952     1.92771050     0.00091636     0.00033606    -0.00034942
H        -1.01206798     0.17494079    -0.52429879    -0.00012991     0.00069414    -0.00018253
     6
  Step:    23            Position(A)                                  Velocity(au)
C        -0.03431423    -0.00220587    -0.10844647     0.00002939    -0.00006445    -0.00074623
N        -0.05085996    -0.07297967     1.39855101    -0.00018916    -0.00011216     0.00067761
H         0.96667547     0.13403037    -0.51034216     0.00022833     0.00057049    -0.00044782
H         0.89264200    -0.02405420     1.85967815     0.00126997     0.00070130     0.00053531
H        -0.94366573     0.08181414     1.92567277     0.00095630     0.00033621    -0.00037314
H        -1.01292466     0.17887639    -0.52547478    -0.00017617     0.00071875    -0.00023864
     6
  Step:    24            Position(A)                                  Velocity(au)
C        -0.03414895    -0.00257196    -0.11252627     0.00002989    -0.00006691    -0.00071830
N        -0.05188819    -0.07360669     1.40228576    -0.00017810    -0.00011305     0.00066255
H         0.96797823     0.13721994    -0.51293814     0.00023776     0.00057427    -0.00048273
H         0.89936900    -0.02011707     1.86258964     0.00113412     0.00071106     0.00050474
H        -0.93827076     0.08369395     1.92355475     0.00096542     0.00034146    -0.00037796
H        -1.01403004     0.18294572    -0.52695665    -0.00021838     0.00074145    -0.00029183
     6
  Step:    25            Position(A)                                  Velocity(au)
C        -0.03398126    -0.00295134    -0.11644945     0.00003021    -0.00006916    -0.00068969
N        -0.05284432    -0.07423917     1.40593287    -0.00016335    -0.00011407     0.00064575
H         0.96932454     0.14042864    -0.51572050     0.00024363     0.00057698    -0.00051429
H         0.90527787    -0.01613184     1.86530170     0.00097790     0.00071813     0.00046454
H        -0.93290947     0.08561856     1.92146174     0.00094380     0.00035218    -0.00036416
H        -1.01535778     0.18713730    -0.52872617    -0.00025524     0.00076198    -0.00034140
     6
  Step:    26            Position(A)                                  Velocity(au)
C        -0.03381231    -0.00334277    -0.12021298     0.00003030    -0.00007119    -0.00066081
N        -0.05370878    -0.07487800     1.40948283    -0.00014535    -0.00011528     0.00062743
H         0.97069356     0.14365049    -0.51867003     0.00024567     0.00057872    -0.00054238
H         0.91026795    -0.01211331     1.86776701     0.00080630     0.00072273     0.00041707
H        -0.92775184     0.08761913     1.91949609     0.00089257     0.00036858    -0.00033260
H        -1.01687472     0.19143823    -0.53076160    -0.00028567     0.00078019    -0.00038685
     6
  Step:    27            Position(A)                                  Velocity(au)
C        -0.03364353    -0.00374492    -0.12381607     0.00003011    -0.00007297    -0.00063207
N        -0.05446468    -0.07552427     1.41292736    -0.00012462    -0.00011671     0.00060783
H         0.97206330     0.14688014    -0.52176692     0.00024376     0.00057963    -0.00056697
H         0.91426644    -0.00807488     1.86995122     0.00062420     0.00072518     0.00036462
H        -0.92295922     0.08972747     1.91775392     0.00081383     0.00039068    -0.00028471
H        -1.01854236     0.19583477    -0.53303869    -0.00030887     0.00079598    -0.00042782
     6
  Step:    28            Position(A)                                  Velocity(au)
C        -0.03347655    -0.00415638    -0.12726009     0.00002963    -0.00007452    -0.00060383
N        -0.05509818    -0.07617926     1.41625971    -0.00010172    -0.00011840     0.00058726
H         0.97341128     0.15011297    -0.52499137     0.00023785     0.00057987    -0.00058812
H         0.91722737    -0.00402804     1.87183226     0.00043620     0.00072587     0.00030928
H        -0.91867825     0.09197496     1.91632179     0.00071070     0.00041831    -0.00022247
H        -1.02031838     0.20031281    -0.53553151    -0.00032430     0.00080934    -0.00046412
     6
  Step:    29            Position(A)                                  Velocity(au)
C        -0.03331315    -0.00457575    -0.13054833     0.00002883    -0.00007582    -0.00057637
N        -0.05559877    -0.07684437     1.41947481    -0.00007725    -0.00012036     0.00056598
H         0.97471511     0.15334521    -0.52832404     0.00022799     0.00057956    -0.00060594
H         0.91912978     0.00001797     1.87339939     0.00024653     0.00072519     0.00025294
H        -0.91503542     0.09439128     1.91527357     0.00058717     0.00045105    -0.00014834
H        -1.02215810     0.20485829    -0.53821331    -0.00033168     0.00082030    -0.00049567
     6
  Step:    30            Position(A)                                  Velocity(au)
C        -0.03315516    -0.00500161    -0.13368540     0.00002770    -0.00007688    -0.00054987
N        -0.05595938    -0.07752104     1.42256918    -0.00005184    -0.00012258     0.00054425
H         0.97595289     0.15657380    -0.53174632     0.00021431     0.00057882    -0.00062057
H         0.91997565     0.00405628     1.87465204     0.00005903     0.00072358     0.00019733
H        -0.91213260     0.09700318     1.91466808     0.00044791     0.00048827    -0.00006519
H        -1.02401588     0.20945737    -0.54105721    -0.00033092     0.00082890    -0.00052249
     6
  Step:    31            Position(A)                                  Velocity(au)
C        -0.03300443    -0.00543258    -0.13667677     0.00002624    -0.00007770    -0.00052442
N        -0.05617654    -0.07821059     1.42554070    -0.00002612    -0.00012504     0.00052229
H         0.97710363     0.15979630    -0.53524048     0.00019697     0.00057771    -0.00063216
H         0.91978773     0.00808254     1.87559872    -0.00012277     0.00072147     0.00014396
H        -0.91004327     0.09983315     1.91454701     0.00029822     0.00052908     0.00002383
H        -1.02584628     0.21409666    -0.54403664    -0.00032214     0.00083522    -0.00054466
     6
  Step:    32            Position(A)                                  Velocity(au)
C        -0.03286275    -0.00586735    -0.13952842     0.00002448    -0.00007829    -0.00050007
N        -0.05625042    -0.07891419     1.42838855    -0.00000074    -0.00012768     0.00050031
H         0.97814747     0.16301058    -0.53878977     0.00017618     0.00057624    -0.00064087
H         0.91860780     0.01209488     1.87625605    -0.00029561     0.00071930     0.00009420
H        -0.90880989     0.10289821     1.91493364     0.00014369     0.00057241     0.00011541
H        -1.02760512     0.21876331    -0.54712576    -0.00030562     0.00083933    -0.00056230
     6
  Step:    33            Position(A)                                  Velocity(au)
C        -0.03273178    -0.00630462    -0.14224664     0.00002244    -0.00007866    -0.00047690
N        -0.05618481    -0.07963272     1.43111317     0.00002365    -0.00013046     0.00047852
H         0.97906589     0.16621454    -0.54237852     0.00015216     0.00057432    -0.00064691
H         0.91649518     0.01609416     1.87664796    -0.00045644     0.00071762     0.00004928
H        -0.90844278     0.10620872     1.91583242    -0.00000992     0.00061690     0.00020620
H        -1.02925033     0.22344524    -0.55029958    -0.00028182     0.00084145    -0.00057553
     6
  Step:    34            Position(A)                                  Velocity(au)
C        -0.03261290    -0.00674312    -0.14483827     0.00002043    -0.00007885    -0.00045482
N        -0.05598709    -0.08036679     1.43371644     0.00004626    -0.00013331     0.00045706
H         0.97984166     0.16940505    -0.54599245     0.00012478     0.00057008    -0.00065141
H         0.91352572     0.02008489     1.87680479    -0.00060202     0.00071907     0.00000984
H        -0.90892038     0.10976686     1.91722950    -0.00015701     0.00065905     0.00029353
H        -1.03074297     0.22813209    -0.55353374    -0.00025202     0.00084386    -0.00058381
     6
  Step:    35            Position(A)                                  Velocity(au)
C        -0.03250438    -0.00718221    -0.14730878     0.00002042    -0.00008826    -0.00041884
N        -0.05566994    -0.08111643     1.43620026     0.00006950    -0.00013969     0.00043275
H         0.98045475     0.17255952    -0.54962879     0.00014638     0.00061926    -0.00074094
H         0.90979468     0.02409743     1.87675750    -0.00075802     0.00073974    -0.00001682
H        -0.91019037     0.11354404     1.91909938    -0.00031183     0.00072879     0.00040590
H        -1.03205537     0.23283749    -0.55679737    -0.00028561     0.00090509    -0.00067096
     6
  Step:    36            Position(A)                                  Velocity(au)
C        -0.03239909    -0.00767151    -0.14958461     0.00001738    -0.00008754    -0.00040009
N        -0.05522908    -0.08190112     1.43855131     0.00008747    -0.00014239     0.00041296
H         0.98118000     0.17599564    -0.55373896     0.00011264     0.00061551    -0.00073550
H         0.90524877     0.02820742     1.87658694    -0.00086552     0.00073926    -0.00004027
H        -0.91228081     0.11771802     1.92156296    -0.00043014     0.00076985     0.00047424
H        -1.03352523     0.23785245    -0.56053246    -0.00023960     0.00089720    -0.00066958
     6
  Step:    37            Position(A)                                  Velocity(au)
C        -0.03231107    -0.00815601    -0.15175935     0.00001420    -0.00008657    -0.00038263
N        -0.05469689    -0.08270033     1.44079396     0.00010222    -0.00014496     0.00039398
H         0.98170775     0.17940645    -0.55781048     0.00007575     0.00061072    -0.00072734
H         0.90016664     0.03232097     1.87630958    -0.00095029     0.00074123    -0.00005477
H        -0.91497525     0.12210783     1.92437475    -0.00052770     0.00080657     0.00053039
H        -1.03472067     0.24281791    -0.56424576    -0.00018745     0.00088745    -0.00066373
     6
  Step:    38            Position(A)                                  Velocity(au)
C        -0.03224121    -0.00863425    -0.15384004     0.00001087    -0.00008534    -0.00036637
N        -0.05409218    -0.08351330     1.44293297     0.00011348    -0.00014738     0.00037584
H         0.98202251     0.18278779    -0.56182816     0.00003636     0.00060522    -0.00071652
H         0.89467998     0.03645111     1.87597778    -0.00101068     0.00074567    -0.00005957
H        -0.91814970     0.12668831     1.92746174    -0.00060201     0.00083841     0.00057286
H        -1.03560999     0.24772226    -0.56791424    -0.00013009     0.00087560    -0.00065395
     6
  Step:    39            Position(A)                                  Velocity(au)
C        -0.03219024    -0.00910491    -0.15583316     0.00000743    -0.00008388    -0.00035121
N        -0.05343506    -0.08433908     1.44497311     0.00012105    -0.00014961     0.00035853
H         0.98211210     0.18613619    -0.56577780    -0.00000494     0.00059912    -0.00070325
H         0.88892835     0.04061247     1.87564720    -0.00104555     0.00075291    -0.00005420
H        -0.92166930     0.13143051     1.93074468    -0.00065163     0.00086478     0.00060084
H        -1.03616720     0.25255414    -0.57151734    -0.00006856     0.00086179    -0.00064068
     6
  Step:    40            Position(A)                                  Velocity(au)
C        -0.03215866    -0.00956677    -0.15774460     0.00000392    -0.00008221    -0.00033705
N        -0.05274635    -0.08517664     1.44691895     0.00012488    -0.00015167     0.00034202
H         0.98196758     0.18944852    -0.56964658    -0.00004757     0.00059247    -0.00068781
H         0.88305602     0.04482166     1.87537527    -0.00105439     0.00076332    -0.00003847
H        -0.92539424     0.13630256     1.93414162    -0.00067615     0.00088527     0.00061412
H        -1.03637225     0.25730324    -0.57503702    -0.00000396     0.00084625    -0.00062438
     6
  Step:    41            Position(A)                                  Velocity(au)
C        -0.03214672    -0.01001874    -0.15957973     0.00000038    -0.00008037    -0.00032383
N        -0.05204690    -0.08602497     1.44877491     0.00012501    -0.00015355     0.00032629
H         0.98158331     0.19272191    -0.57342326    -0.00009095     0.00058536    -0.00067051
H         0.87720814     0.04909722     1.87521962    -0.00103741     0.00077722    -0.00001249
H        -0.92918508     0.14127082     1.93757103    -0.00067605     0.00089968     0.00061302
H        -1.03621119     0.26196069    -0.57845774     0.00006265     0.00082927    -0.00060553
     6
  Step:    42            Position(A)                                  Velocity(au)
C        -0.03215443    -0.01045995    -0.16134349    -0.00000313    -0.00007838    -0.00031146
N        -0.05135701    -0.08688316     1.45054521     0.00012160    -0.00015529     0.00031131
H         0.98095679     0.19595389    -0.57709834    -0.00013452     0.00057784    -0.00065168
H         0.87152678     0.05345934     1.87523643    -0.00099553     0.00079490     0.00002331
H        -0.93290757     0.14630121     1.94095443    -0.00065266     0.00090806     0.00059830
H        -1.03567600     0.26651937    -0.58176654     0.00013021     0.00081120    -0.00058458
     6
  Step:    43            Position(A)                                  Velocity(au)
C        -0.03218155    -0.01088965    -0.16304043    -0.00000659    -0.00007628    -0.00029988
N        -0.05069574    -0.08775042     1.45223389     0.00011492    -0.00015691     0.00029704
H         0.98008863     0.19914236    -0.58066412    -0.00017774     0.00057000    -0.00063164
H         0.86614670     0.05792941     1.87547859    -0.00093048     0.00081651     0.00006818
H        -0.93643681     0.15136041     1.94421878    -0.00060790     0.00091065     0.00057107
H        -1.03476442     0.27097400    -0.58495306     0.00019772     0.00079238    -0.00056201
     6
  Step:    44            Position(A)                                  Velocity(au)
C        -0.03222764    -0.01130734    -0.16467469    -0.00000995    -0.00007411    -0.00028903
N        -0.05008047    -0.08862617     1.45384485     0.00010530    -0.00015845     0.00028348
H         0.97898236     0.20228565    -0.58411476    -0.00022012     0.00056193    -0.00061073
H         0.86119083     0.06252931     1.87599379    -0.00084474     0.00084207     0.00012103
H        -0.93966023     0.15641689     1.94729806    -0.00054415     0.00090782     0.00053270
H        -1.03347964     0.27532134    -0.58800949     0.00026425     0.00077318    -0.00053827
     6