     6
  Step:     0            Position(A)                                  Velocity(au)
C        -0.03218798     0.02268385     0.01223841    -0.00003943    -0.00006013    -0.00014402
N        -0.04313734    -0.05454190     1.30312232    -0.00015365     0.00010805     0.00020469
H         0.90466451    -0.05468631    -0.55662181     0.00063545     0.00012650    -0.00030605
H         0.82817559    -0.17290680     1.82463950     0.00126423    -0.00061454    -0.00006264
H        -0.97874596    -0.00209695     1.85443663     0.00065204    -0.00045877    -0.00059870
H        -0.98402654     0.04754323    -0.48489301     0.00005338     0.00016181    -0.00016096
     6
  Step:     1            Position(A)                                  Velocity(au)
C        -0.03239299     0.02239760     0.01111522    -0.00003509    -0.00004474    -0.00026577
N        -0.04401579    -0.05395015     1.30455239    -0.00016587     0.00010825     0.00031722
H         0.90820317    -0.05412910    -0.55828104     0.00065323     0.00007801    -0.00029776
H         0.83524123    -0.17640613     1.82443903     0.00130508    -0.00066309    -0.00001764
H        -0.97471907    -0.00474447     1.85090218     0.00081097    -0.00050875    -0.00068712
H        -0.98400725     0.04832059    -0.48598789    -0.00004616     0.00012264    -0.00023890
     6
  Step:     2            Position(A)                                  Velocity(au)
C        -0.03257182     0.02219440     0.00933119    -0.00002994    -0.00002982    -0.00038494
N        -0.04495175    -0.05335770     1.30659243    -0.00017443     0.00010822     0.00042690
H         0.91181024    -0.05383297    -0.55987905     0.00066016     0.00003124    -0.00028385
H         0.84245189    -0.18016031     1.82444653     0.00131663    -0.00070695     0.00001384
H        -0.96987475    -0.00766216     1.84692019     0.00094808    -0.00055700    -0.00076032
H        -0.98453151     0.04888474    -0.48750638    -0.00014404     0.00008408    -0.00031508
     6
  Step:     3            Position(A)                                  Velocity(au)
C        -0.03272058     0.02207133     0.00690310    -0.00002416    -0.00001549    -0.00050003
N        -0.04592448    -0.05276594     1.30922360    -0.00017893     0.00010785     0.00053199
H         0.91542675    -0.05378722    -0.56138700     0.00065603    -0.00001334    -0.00026489
H         0.84964802    -0.18414173     1.82459051     0.00129847    -0.00074485     0.00003280
H        -0.96434498    -0.01083927     1.84258266     0.00105761    -0.00060257    -0.00081436
H        -0.98558335     0.04924058    -0.48943552    -0.00023762     0.00004665    -0.00038797
     6
  Step:     4            Position(A)                                  Velocity(au)
C        -0.03283641     0.02202479     0.00385596    -0.00001797    -0.00000190    -0.00060923
N        -0.04691098    -0.05217680     1.31241764    -0.00017894     0.00010702     0.00063053
H         0.91899358    -0.05397904    -0.56277955     0.00064097    -0.00005533    -0.00024159
H         0.85666979    -0.18831625     1.82480573     0.00125087    -0.00077556     0.00004049
H        -0.95829423    -0.01426015     1.83800311     0.00113338    -0.00064448    -0.00084532
H        -0.98713336     0.04939555    -0.49175449    -0.00032444     0.00001083    -0.00045604
     6
  Step:     5            Position(A)                                  Velocity(au)
C        -0.03291756     0.02205051     0.00022452    -0.00001157     0.00001082    -0.00071051
N        -0.04788606    -0.05159278     1.31613564    -0.00017413     0.00010565     0.00072036
H         0.92245331    -0.05439380    -0.56403542     0.00061554    -0.00009439    -0.00021480
H         0.86336043    -0.19264361     1.82503433     0.00117493    -0.00079799     0.00003837
H        -0.95192053    -0.01790421     1.83331598     0.00116952    -0.00068179    -0.00084968
H        -0.98913993     0.04935934    -0.49443475    -0.00040232    -0.00002294    -0.00051786
     6
  Step:     6            Position(A)                                  Velocity(au)
C        -0.03296347     0.02214359    -0.00394562    -0.00000521     0.00002254    -0.00080176
N        -0.04882291    -0.05101674     1.32032737    -0.00016429     0.00010369     0.00079935
H         0.92575229    -0.05501542    -0.56513806     0.00058066    -0.00013021    -0.00018547
H         0.86957077    -0.19707830     1.82522702     0.00107274    -0.00081131     0.00002816
H        -0.94545270    -0.02174633     1.82867349     0.00116113    -0.00071373    -0.00082479
H        -0.99155089     0.04914370    -0.49744075    -0.00046943    -0.00005427    -0.00057223
     6
  Step:     7            Position(A)                                  Velocity(au)
C        -0.03297484     0.02229851    -0.00859762     0.00000089     0.00003314    -0.00088095
N        -0.04969379    -0.05045181     1.32493129    -0.00014942     0.00010113     0.00086554
H         0.92884257    -0.05582660    -0.56607621     0.00053768    -0.00016260    -0.00015468
H         0.87516434    -0.20157083     1.82534417     0.00094747    -0.00081505     0.00001178
H        -0.93914407    -0.02575771     1.82424043     0.00110500    -0.00073974    -0.00076928
H        -0.99430524     0.04876213    -0.50073130    -0.00052434    -0.00008285    -0.00061828
     6
  Step:     8            Position(A)                                  Velocity(au)
C        -0.03295367     0.02250920    -0.01366402     0.00000648     0.00004254    -0.00094639
N        -0.05047122    -0.04990113     1.32987578    -0.00012975     0.00009799     0.00091740
H         0.93168387    -0.05680915    -0.56684450     0.00048832    -0.00019140    -0.00012361
H         0.88002306    -0.20606969     1.82535692     0.00080336    -0.00080916    -0.00000872
H        -0.93326263    -0.02990702     1.82018694     0.00100037    -0.00075959    -0.00068346
H        -0.99733525     0.04822975    -0.50426146    -0.00056612    -0.00010838    -0.00065555
     6
  Step:     9            Position(A)                                  Velocity(au)
C        -0.03290316     0.02276914    -0.01906875     0.00001135     0.00005066    -0.00099702
N        -0.05112938    -0.04936765     1.33508166    -0.00010582     0.00009435     0.00095411
H         0.93424542    -0.05794431    -0.56744388     0.00043458    -0.00021659    -0.00009345
H         0.88405287    -0.21052358     1.82524774     0.00064556    -0.00079414    -0.00003119
H        -0.92807577    -0.03416201     1.81667842     0.00084962    -0.00077341    -0.00056963
H        -1.00056894     0.04756294    -0.50798447    -0.00059439    -0.00013071    -0.00068400
     6
  Step:    10            Position(A)                                  Velocity(au)
C        -0.03282765     0.02307156    -0.02473042     0.00001534     0.00005752    -0.00103253
N        -0.05164583    -0.04885390     1.34046599    -0.00007847     0.00009034     0.00097570
H         0.93650748    -0.05921322    -0.56788171     0.00037868    -0.00023827    -0.00006533
H         0.88718845    -0.21488422     1.82501068     0.00047988    -0.00077102    -0.00005360
H        -0.92383229    -0.03849152     1.81386436     0.00065854    -0.00078179    -0.00043210
H        -1.00393273     0.04677898    -0.51185357    -0.00060933    -0.00014975    -0.00070395
     6
  Step:    11            Position(A)                                  Velocity(au)
C        -0.03273236     0.02340965    -0.03056651     0.00001831     0.00006315    -0.00105360
N        -0.05200321    -0.04836165     1.34594654    -0.00004878     0.00008614     0.00098312
H         0.93846222    -0.06059762    -0.56817140     0.00032289    -0.00025673    -0.00004028
H         0.88939659    -0.21910930     1.82465087     0.00031234    -0.00074142    -0.00007406
H        -0.92074262    -0.04286763     1.81186678     0.00043608    -0.00078575    -0.00027695
H        -1.00735410     0.04589539    -0.51582328    -0.00061161    -0.00016562    -0.00071590
     6
  Step:    12            Position(A)                                  Velocity(au)
C        -0.03262310     0.02377690    -0.03649850     0.00002022     0.00006767    -0.00106185
N        -0.05219068    -0.04789177     1.35144694    -0.00001798     0.00008195     0.00097831
H         0.94011394    -0.06208077    -0.56833162     0.00026933    -0.00027245    -0.00001908
H         0.89067715    -0.22316547     1.82418349     0.00014865    -0.00070740    -0.00009098
H        -0.91896150    -0.04726791     1.81077101     0.00019340    -0.00078672    -0.00011127
H        -1.01076404     0.04492905    -0.51984980    -0.00060242    -0.00017861    -0.00072063
     6
  Step:    13            Position(A)                                  Velocity(au)
C        -0.03250590     0.02416743    -0.04245718     0.00002107     0.00007126    -0.00105974
N        -0.05220457    -0.04744398     1.35690174     0.00001271     0.00007799     0.00096392
H         0.94147818    -0.06364852    -0.56838507     0.00021983    -0.00028610    -0.00000226
H         0.89106115    -0.22703080     1.82363211    -0.00000633    -0.00067128    -0.00010311
H        -0.91857696    -0.05167737     1.81062073    -0.00005761    -0.00078637     0.00005771
H        -1.01410005     0.04389531    -0.52389298    -0.00058349    -0.00018914    -0.00071946
     6
  Step:    14            Position(A)                                  Velocity(au)
C        -0.03238671     0.02457634    -0.04838703     0.00002091     0.00007414    -0.00105013
N        -0.05204814    -0.04701690     1.36226054     0.00004221     0.00007445     0.00094295
H         0.94258003    -0.06529032    -0.56835701     0.00017575    -0.00029848     0.00000991
H         0.89060608    -0.23069615     1.82302678    -0.00014889    -0.00063538    -0.00010954
H        -0.91960773    -0.05608972     1.81141838    -0.00030564    -0.00078641     0.00022352
H        -1.01730989     0.04280720    -0.52792096    -0.00055689    -0.00019775    -0.00071416
     6
  Step:    15            Position(A)                                  Velocity(au)
C        -0.03227113     0.02499991    -0.05424829     0.00001981     0.00007653    -0.00103579
N        -0.05173062    -0.04660807     1.36748946     0.00006967     0.00007149     0.00091825
H         0.94345159    -0.06699993    -0.56827383     0.00013798    -0.00031041     0.00001738
H         0.88938932    -0.23416503     1.82240220    -0.00027652    -0.00060172    -0.00010959
H        -0.92200880    -0.06050745     1.81313047    -0.00054104    -0.00078831     0.00038095
H        -1.02035296     0.04167494    -0.53191173    -0.00052458    -0.00020498    -0.00070648
     6
  Step:    16            Position(A)                                  Velocity(au)
C        -0.03216426     0.02543562    -0.06001642     0.00001787     0.00007863    -0.00101897
N        -0.05126596    -0.04621425     1.37257015     0.00009441     0.00006921     0.00089205
H         0.94412926    -0.06877550    -0.56816185     0.00010694    -0.00032261     0.00002025
H         0.88750148    -0.23745197     1.82179637    -0.00038760    -0.00057183    -0.00010272
H        -0.92568231    -0.06494045     1.81569556    -0.00075602    -0.00079301     0.00052611
H        -1.02319967     0.04050581    -0.53585300    -0.00048818    -0.00021131    -0.00069786
     6
  Step:    17            Position(A)                                  Velocity(au)
C        -0.03207070     0.02588202    -0.06567902     0.00001514     0.00008058    -0.00100108
N        -0.05067150    -0.04583169     1.37749644     0.00011594     0.00006764     0.00086582
H         0.94465122    -0.07061897    -0.56804661     0.00008269    -0.00033558     0.00001869
H         0.88504128    -0.24057982     1.82124987    -0.00048101    -0.00054670    -0.00008845
H        -0.93048978    -0.06940342     1.81903239    -0.00094441    -0.00080087     0.00065614
H        -1.02582939     0.03930451    -0.53974033    -0.00044882    -0.00021707    -0.00068923
     6
  Step:    18            Position(A)                                  Velocity(au)
C        -0.03199460     0.02633840    -0.07123148     0.00001171     0.00008246    -0.00098277
N        -0.04996709    -0.04545647     1.38226990     0.00013383     0.00006677     0.00084024
H         0.94505563    -0.07253501    -0.56795251     0.00006510    -0.00034961     0.00001287
H         0.88211270    -0.24357665     1.82080550    -0.00055580    -0.00052684    -0.00006632
H        -0.93626252    -0.07391254     1.82304624    -0.00110132    -0.00081161     0.00076886
H        -1.02822781     0.03807398    -0.54357441    -0.00040721    -0.00022243    -0.00068101
     6
  Step:    19            Position(A)                                  Velocity(au)
C        -0.03193970     0.02680447    -0.07667260     0.00000763     0.00008430    -0.00096410
N        -0.04917446    -0.04508479     1.38689565     0.00014773     0.00006654     0.00081545
H         0.94537939    -0.07452978    -0.56790260     0.00005388    -0.00036476     0.00000304
H         0.87882394    -0.24647315     1.82050800    -0.00061100    -0.00051241    -0.00003598
H        -0.94280947    -0.07848234     1.82763306    -0.00122291    -0.00082453     0.00086261
H        -1.03038455     0.03681628    -0.54735828    -0.00036380    -0.00022743    -0.00067326
     6
  Step:    20            Position(A)                                  Velocity(au)
C        -0.03190936     0.02728007    -0.08200139     0.00000297     0.00008608    -0.00094479
N        -0.04831678    -0.04471317     1.39137927     0.00015739     0.00006688     0.00079125
H         0.94565749    -0.07660975    -0.56791850     0.00004867    -0.00038098    -0.00001054
H         0.87528720    -0.24930073     1.82040355    -0.00064578    -0.00050339     0.00000275
H        -0.94992364    -0.08312338     1.83268238    -0.00130652    -0.00083869     0.00093621
H        -1.03229175     0.03553332    -0.55109532    -0.00031895    -0.00023201    -0.00066583
     6
  Step:    21            Position(A)                                  Velocity(au)
C        -0.03190653     0.02776498    -0.08721528    -0.00000218     0.00008778    -0.00092450
N        -0.04741816    -0.04433852     1.39572506     0.00016267     0.00006771     0.00076736
H         0.94592245    -0.07878100    -0.56802016     0.00004900    -0.00039811    -0.00002753
H         0.87161788    -0.25209032     1.82053871    -0.00065959    -0.00049963     0.00004982
H        -0.95738859    -0.08784108     1.83807993    -0.00135084    -0.00085310     0.00098907
H        -1.03394362     0.03422737    -0.55478806    -0.00027307    -0.00023605    -0.00065853
     6
  Step:    22            Position(A)                                  Velocity(au)
C        -0.03193366     0.02825884    -0.09230978    -0.00000772     0.00008938    -0.00090295
N        -0.04650300    -0.04395822     1.39993554     0.00016356     0.00006895     0.00074352
H         0.94620388    -0.08104874    -0.56822548     0.00005433    -0.00041600    -0.00004754
H         0.86793264    -0.25487168     1.82095900    -0.00065244    -0.00050090     0.00010485
H        -0.96498574    -0.09263563     1.84371072    -0.00135606    -0.00086689     0.00102130
H        -1.03533655     0.03290134    -0.55843803    -0.00022665    -0.00023944    -0.00065122
     6
  Step:    23            Position(A)                                  Velocity(au)
C        -0.03199262     0.02876111    -0.09727875    -0.00001355     0.00009085    -0.00087999
N        -0.04559527    -0.04357004     1.40401163     0.00016023     0.00007054     0.00071955
H         0.94652797    -0.08341729    -0.56855000     0.00006399    -0.00043449    -0.00007009
H         0.86434642    -0.25767288     1.82170726    -0.00062501    -0.00050689     0.00016717
H        -0.97250201    -0.09750267     1.84946236    -0.00132382    -0.00087940     0.00103364
H        -1.03646960     0.03155878    -0.56204598    -0.00018025    -0.00024209    -0.00064387
     6
  Step:    24            Position(A)                                  Velocity(au)
C        -0.03208466     0.02927113    -0.10211519    -0.00001954     0.00009218    -0.00085562
N        -0.04471763    -0.04317218     1.40795323     0.00015298     0.00007242     0.00069540
H         0.94691689    -0.08589011    -0.56900649     0.00007723    -0.00045349    -0.00009466
H         0.86096837    -0.26051976     1.82282176    -0.00057881    -0.00051717     0.00023580
H        -0.97973657    -0.10243442     1.85522814    -0.00125698    -0.00089017     0.00102743
H        -1.03734496     0.03020382    -0.56561246    -0.00013450    -0.00024391    -0.00063654
     6
  Step:    25            Position(A)                                  Velocity(au)
C        -0.03221035     0.02978816    -0.10681206    -0.00002557     0.00009337    -0.00082995
N        -0.04389071    -0.04276318     1.41175980     0.00014227     0.00007451     0.00067110
H         0.94738844    -0.08847006    -0.56960471     0.00009323    -0.00047293    -0.00012069
H         0.85789734    -0.26343518     1.82433449    -0.00051611    -0.00053117     0.00030943
H        -0.98650731    -0.10742101     1.86091002    -0.00115940    -0.00089902     0.00100450
H        -1.03796817     0.02884109    -0.56913833    -0.00009004    -0.00024484    -0.00062938
     6
  Step:    26            Position(A)                                  Velocity(au)
C        -0.03236957     0.03031145    -0.11136288    -0.00003152     0.00009441    -0.00080319
N        -0.04313239    -0.04234196     1.41543093     0.00012863     0.00007676     0.00064675
H         0.94795565    -0.09115972    -0.57035130     0.00011112    -0.00049282    -0.00014763
H         0.85521766    -0.26643826     1.82626962    -0.00043987    -0.00054816     0.00038660
H        -0.99265520    -0.11245178     1.86642073    -0.00103558    -0.00090597     0.00096695
H        -1.03834822     0.02747566    -0.57262532    -0.00004749    -0.00024481    -0.00062262
     6
  Step:    27            Position(A)                                  Velocity(au)
C        -0.03256159     0.03084022    -0.11576222    -0.00003729     0.00009533    -0.00077558
N        -0.04245738    -0.04190777     1.41896676     0.00011267     0.00007912     0.00062251
H         0.94862673    -0.09396174    -0.57124978     0.00013007    -0.00051324    -0.00017492
H         0.85299570    -0.26954344     1.82864245    -0.00035359    -0.00056724     0.00046564
H        -0.99804713    -0.11751654     1.87168504    -0.00089038    -0.00091125     0.00091708
H        -1.03849738     0.02611306    -0.57607639    -0.00000742    -0.00024374    -0.00061654
     6
  Step:    28            Position(A)                                  Velocity(au)
C        -0.03278508     0.03137379    -0.12000597    -0.00004278     0.00009613    -0.00074739
N        -0.04187684    -0.04146022     1.42236818     0.00009504     0.00008153     0.00059853
H         0.94940510    -0.09687928    -0.57230062     0.00014923    -0.00053435    -0.00020206
H         0.85127724    -0.27275959     1.83145872    -0.00026109    -0.00058735     0.00054486
H        -1.00257758    -0.12260672     1.87664060    -0.00072879    -0.00091526     0.00085721
H        -1.03843087     0.02475943    -0.57949605     0.00002970    -0.00024148    -0.00061146
     6
  Step:    29            Position(A)                                  Velocity(au)
C        -0.03303830     0.03191153    -0.12409133    -0.00004793     0.00009683    -0.00071882
N        -0.04139824    -0.04099922     1.42563692     0.00007641     0.00008392     0.00057494
H         0.95028979    -0.09991661    -0.57350154     0.00016790    -0.00055643    -0.00022857
H         0.85008607    -0.27608895     1.83471448    -0.00016633    -0.00060718     0.00062256
H        -1.00616895    -0.12771644     1.88123792    -0.00055575    -0.00091862     0.00078959
H        -1.03816638     0.02342194    -0.58289059     0.00006347    -0.00023779    -0.00060772
     6
  Step:    30            Position(A)                                  Velocity(au)
C        -0.03331917     0.03245287    -0.12801638    -0.00005271     0.00009744    -0.00068995
N        -0.04102533    -0.04052505     1.42877524     0.00005744     0.00008624     0.00055179
H         0.95127612    -0.10308002    -0.57484781     0.00018551    -0.00058000    -0.00025409
H         0.84942369    -0.27952592     1.83839647    -0.00007320    -0.00062517     0.00069719
H        -1.00877072    -0.13284371     1.88543971    -0.00037593    -0.00092217     0.00071630
H        -1.03772362     0.02210953    -0.58626839     0.00009357    -0.00023221    -0.00060578
     6
  Step:    31            Position(A)                                  Velocity(au)
C        -0.03362561     0.03299733    -0.13177934    -0.00005716     0.00009798    -0.00066069
N        -0.04075824    -0.04003828     1.43178539     0.00003876     0.00008843     0.00052898
H         0.95235691    -0.10637945    -0.57633280     0.00020186    -0.00060604    -0.00027836
H         0.84927037    -0.28305518     1.84248322     0.00001469    -0.00063925     0.00076748
H        -1.01035787    -0.13799207     1.88921956    -0.00019376    -0.00092719     0.00063910
H        -1.03712377     0.02083442    -0.58964066     0.00011977    -0.00022385    -0.00060630
     6
  Step:    32            Position(A)                                  Velocity(au)
C        -0.03395598     0.03354445    -0.13537728    -0.00006146     0.00009843    -0.00063050
N        -0.04059354    -0.03953983     1.43466871     0.00002103     0.00009042     0.00050612
H         0.95352507    -0.10983209    -0.57794912     0.00021760    -0.00063671    -0.00030158
H         0.84958732    -0.28664804     1.84694722     0.00009427    -0.00064614     0.00083279
H        -1.01092948    -0.14317381     1.89256014    -0.00001353    -0.00093595     0.00055933
H        -1.03638923     0.01961551    -0.59302335     0.00014176    -0.00021072    -0.00061073
     6
  Step:    33            Position(A)                                  Velocity(au)
C        -0.03431020     0.03409381    -0.13880259    -0.00006621     0.00009880    -0.00059678
N        -0.04052397    -0.03903103     1.43742317     0.00000509     0.00009212     0.00048141
H         0.95478077    -0.11347186    -0.57969213     0.00023697    -0.00067780    -0.00032614
H         0.85032045    -0.29025273     1.85175984     0.00016354    -0.00063867     0.00089426
H        -1.01050855    -0.14841782     1.89545002     0.00015999    -0.00095350     0.00047745
H        -1.03554470     0.01848715    -0.59644376     0.00015784    -0.00018745    -0.00062406
     6
  Step:    34            Position(A)                                  Velocity(au)
C        -0.03469338     0.03464474    -0.14202355    -0.00007240     0.00009862    -0.00054273
N        -0.04053688    -0.03851391     1.44003002    -0.00000813     0.00009333     0.00044321
H         0.95616411    -0.11738064    -0.58158125     0.00028341    -0.00073677    -0.00037351
H         0.85140859    -0.29376073     1.85690644     0.00022376    -0.00060636     0.00095683
H        -1.00914773    -0.15379280     1.89787744     0.00031933    -0.00098156     0.00039614
H        -1.03463139     0.01752795    -0.59997337     0.00014925    -0.00014738    -0.00067130
     6
  Step:    35            Position(A)                                  Velocity(au)
C        -0.03511631     0.03519183    -0.14484522    -0.00008367     0.00010551    -0.00049669
N        -0.04061450    -0.03799196     1.44235778    -0.00002158     0.00010202     0.00041681
H         0.95793622    -0.12167487    -0.58385070     0.00039460    -0.00085152    -0.00050080
H         0.85281177    -0.29700377     1.86241297     0.00029685    -0.00062387     0.00109818
H        -1.00695320    -0.15934630     1.89986061     0.00050208    -0.00107295     0.00035440
H        -1.03388296     0.01684627    -0.60391788     0.00010335    -0.00012662    -0.00082536
     6
  Step:    36            Position(A)                                  Velocity(au)
C        -0.03556734     0.03577739    -0.14754147    -0.00007908     0.00010503    -0.00047432
N        -0.04077894    -0.03742052     1.44462963    -0.00003574     0.00010313     0.00040120
H         0.96007343    -0.12631996    -0.58668484     0.00036941    -0.00082779    -0.00051158
H         0.85453812    -0.30062310     1.86855466     0.00031457    -0.00066367     0.00110623
H        -1.00371683    -0.16518074     1.90167331     0.00065276    -0.00103500     0.00029603
H        -1.03332296     0.01602666    -0.60847998     0.00010225    -0.00015815    -0.00081395
     6
  Step:    37            Position(A)                                  Velocity(au)
C        -0.03599640     0.03636065    -0.15012386    -0.00007519     0.00010462    -0.00045454
N        -0.04101221    -0.03684425     1.44682271    -0.00004662     0.00010385     0.00038766
H         0.96204736    -0.13088730    -0.58954398     0.00033702    -0.00081762    -0.00051316
H         0.85631263    -0.30438973     1.87472411     0.00031439    -0.00068318     0.00110698
H        -0.99968870    -0.17086471     1.90315514     0.00078621    -0.00101303     0.00023827
H        -1.03274505     0.01508623    -0.61297628     0.00010620    -0.00017592    -0.00080278
     6
  Step:    38            Position(A)                                  Velocity(au)
C        -0.03640399     0.03694144    -0.15259902    -0.00007122     0.00010416    -0.00043579
N        -0.04129762    -0.03626503     1.44894296    -0.00005457     0.00010426     0.00037502
H         0.96382339    -0.13541740    -0.59239461     0.00029858    -0.00081265    -0.00050946
H         0.85803621    -0.30822467     1.88087172     0.00029675    -0.00069063     0.00109840
H        -0.99496894    -0.17645244     1.90432452     0.00090087    -0.00099899     0.00018496
H        -1.03214135     0.01406920    -0.61741232     0.00011079    -0.00018770    -0.00079240
     6
  Step:    39            Position(A)                                  Velocity(au)
C        -0.03678865     0.03751935    -0.15497182    -0.00006693     0.00010361    -0.00041788
N        -0.04161930    -0.03568442     1.45099460    -0.00005972     0.00010442     0.00036307
H         0.96536896    -0.13992766    -0.59521146     0.00025455    -0.00080996    -0.00050158
H         0.85961388    -0.31207268     1.88694327     0.00026269    -0.00068916     0.00108011
H        -0.98966694    -0.18197797     1.90521278     0.00099512    -0.00099046     0.00013798
H        -1.03151255     0.01299820    -0.62179134     0.00011504    -0.00019622    -0.00078243
     6
  Step:    40            Position(A)                                  Velocity(au)
C        -0.03714839     0.03809386    -0.15724678    -0.00006228     0.00010298    -0.00040076
N        -0.04196182    -0.03510359     1.45298113    -0.00006212     0.00010441     0.00035169
H         0.96665457    -0.14442604    -0.59797334     0.00020557    -0.00080831    -0.00049015
H         0.86095790    -0.31588971     1.89288511     0.00021368    -0.00068040     0.00105246
H        -0.98390084    -0.18746861     1.90585916     0.00106754    -0.00098666     0.00009853
H        -1.03086181     0.01188681    -0.62611474     0.00011868    -0.00020271    -0.00077260
     6
  Step:    41            Position(A)                                  Velocity(au)
C        -0.03748121     0.03866450    -0.15942830    -0.00005730     0.00010227    -0.00038442
N        -0.04231013    -0.03452336     1.45490543    -0.00006188     0.00010429     0.00034078
H         0.96765488    -0.14891614    -0.60066199     0.00015243    -0.00080715    -0.00047570
H         0.86199001    -0.31963874     1.89864672     0.00015158    -0.00066549     0.00101616
H        -0.97779589    -0.19294967     1.90630848     0.00111705    -0.00098742     0.00006747
H        -1.03019288     0.01074409    -0.63038268     0.00012164    -0.00020780    -0.00076274
     6
  Step:    42            Position(A)                                  Velocity(au)
C        -0.03778540     0.03923083    -0.16152065    -0.00005204     0.00010148    -0.00036884
N        -0.04264978    -0.03394416     1.45676979    -0.00005911     0.00010413     0.00033024
H         0.96834918    -0.15339956    -0.60326194     0.00009599    -0.00080621    -0.00045870
H         0.86264307    -0.32328830     1.90418234     0.00007848    -0.00064536     0.00097215
H        -0.97148200    -0.19844635     1.90660925     0.00114306    -0.00099280     0.00004530
H        -1.02950941     0.00957653    -0.63459453     0.00012400    -0.00021187    -0.00075273
     6
  Step:    43            Position(A)                                  Velocity(au)
C        -0.03805960     0.03979246    -0.16352795    -0.00004657     0.00010064    -0.00035399
N        -0.04296714    -0.03336601     1.45857599    -0.00005399     0.00010400     0.00031997
H         0.96872179    -0.15787710    -0.60576038     0.00003715    -0.00080544    -0.00043962
H         0.86286231    -0.32681181     1.90945205    -0.00000334    -0.00062088     0.00092153
H        -0.96509093    -0.20398453     1.90681202     0.00114551    -0.00100294     0.00003226
H        -1.02881461     0.00838915    -0.63874916     0.00012584    -0.00021513    -0.00074249
     6
  Step:    44            Position(A)                                  Velocity(au)
C        -0.03830290     0.04034911    -0.16545416    -0.00004098     0.00009975    -0.00033983
N        -0.04324966    -0.03278855     1.46032532    -0.00004671     0.00010397     0.00030991
H         0.96876204    -0.16234955    -0.60814700    -0.00002318    -0.00080486    -0.00041892
H         0.86260600    -0.33018743     1.91442233    -0.00009151    -0.00059288     0.00086549
H        -0.95875319    -0.20959099     1.90696775     0.00112490    -0.00101800     0.00002827
H        -1.02811103     0.00718598    -0.64284504     0.00012730    -0.00021773    -0.00073197
     6