    14
  Step:   600            Position(A)                                  Velocity(au)
C        -5.71807709    -0.29219179     0.40721973     0.00064569     0.00015134    -0.00010901
C        -4.43432426    -0.78849410     0.23265135    -0.00038055    -0.00101262     0.00024897
H        -6.23804000     0.05083395    -0.59025822    -0.00030884     0.00010521    -0.00065653
H        -6.28922173    -0.04615427     1.35775201     0.00168978     0.00121903    -0.00154297
H        -3.67769463    -0.88028336     0.99857305     0.00058003     0.00256098     0.00030572
C        -3.85466762    -0.04088888    -0.86607961    -0.00015360    -0.00021987     0.00008251
C        -2.76662184     0.85656036    -0.61514127    -0.00088919     0.00071364    -0.00045488
H        -4.37718380    -0.00542515    -1.83271072     0.00058867    -0.00161093    -0.00014542
H        -2.81641483     1.74930150    -1.35246478    -0.00097434     0.00031040     0.00117549
C        -1.91014296     1.10274298     0.53042669     0.00030746     0.00109449    -0.00025469
H        -2.09451652     0.59972860     1.53539613     0.00030371     0.00026042    -0.00077592
N        -0.82150745     1.94255214     0.54378703     0.00028428    -0.00070621     0.00047482
H        -0.09912004     1.81524098     1.26697045    -0.00055127     0.00137500     0.00028211
H        -0.32647644     2.38034998    -0.22142041     0.00032473    -0.00306921     0.00056351
