     6
  Step:     0            Position(A)                                  Velocity(au)
C        -0.04614618     0.00629378     0.02164615    -0.00002774    -0.00000572    -0.00023693
N        -0.03941503    -0.06360959     1.29878083     0.00013590     0.00011038     0.00017503
H         0.96500822     0.02769636    -0.52245533     0.00071875    -0.00009726     0.00003751
H         0.81617197    -0.04115726     1.79081307    -0.00060175    -0.00073504    -0.00038573
H        -0.94800941    -0.00370883     1.87412754    -0.00118058    -0.00052694     0.00101708
H        -0.94850290     0.15633671    -0.55669618    -0.00049446    -0.00010649    -0.00027798
     6
  Step:     1            Position(A)                                  Velocity(au)
C        -0.04625172     0.00625269     0.01997446    -0.00001094    -0.00000931    -0.00037326
N        -0.03874425    -0.06304140     1.30003767     0.00010773     0.00009755     0.00028347
H         0.96869970     0.02728499    -0.52205284     0.00062700    -0.00005324     0.00011009
H         0.81352242    -0.04500195     1.78909349    -0.00035568    -0.00067126    -0.00023610
H        -0.95411174    -0.00648368     1.87944459    -0.00103912    -0.00048843     0.00092022
H        -0.95150658     0.15596138    -0.55824229    -0.00059901    -0.00003174    -0.00028566
     6
  Step:     2            Position(A)                                  Velocity(au)
C        -0.04626584     0.00619195     0.01756308     0.00000553    -0.00001289    -0.00050671
N        -0.03823657    -0.06254250     1.30188163     0.00007669     0.00008504     0.00038922
H         0.97186686     0.02711395    -0.52125102     0.00052755    -0.00000942     0.00018262
H         0.81228128    -0.04850012     1.78823037    -0.00009077    -0.00060849    -0.00007461
H        -0.95937615    -0.00905164     1.88419371    -0.00087608    -0.00045099     0.00081081
H        -0.95505536     0.15598953    -0.55982100    -0.00069238     0.00004069    -0.00028971
     6
  Step:     3            Position(A)                                  Velocity(au)
C        -0.04619121     0.00611169     0.01443065     0.00002134    -0.00001640    -0.00063581
N        -0.03790522    -0.06211097     1.30429606     0.00004371     0.00007290     0.00049127
H         0.97447154     0.02718192    -0.52005487     0.00042173     0.00003400     0.00025321
H         0.81252929    -0.05165931     1.78827721     0.00018407    -0.00054722     0.00009411
H        -0.96369677    -0.01141788     1.88831551    -0.00069560    -0.00041426     0.00069187
H        -0.95908175     0.15640652    -0.56141192    -0.00077196     0.00010993    -0.00028982
     6
  Step:     4            Position(A)                                  Velocity(au)
C        -0.04603221     0.00601241     0.01060364     0.00003618    -0.00001977    -0.00075875
N        -0.03775818    -0.06174459     1.30725897     0.00000980     0.00006117     0.00058837
H         0.97648307     0.02748607    -0.51847947     0.00031112     0.00007659     0.00031987
H         0.81429603    -0.05448992     1.78926048     0.00045868    -0.00048795     0.00026458
H        -0.96699006    -0.01358605     1.89176683    -0.00050192    -0.00037800     0.00056638
H        -0.96350507     0.15719283    -0.56299334    -0.00083531     0.00017493    -0.00028574
     6
  Step:     5            Position(A)                                  Velocity(au)
C        -0.04579486     0.00589512     0.00611823     0.00004972    -0.00002288    -0.00087333
N        -0.03779780    -0.06144088     1.31074183    -0.00002390     0.00004992     0.00067898
H         0.97787998     0.02802095    -0.51655063     0.00019777     0.00011771     0.00038046
H         0.81755430    -0.05700498     1.79117581     0.00072199    -0.00043116     0.00043067
H        -0.96919547    -0.01555898     1.89452036    -0.00029970    -0.00034212     0.00043737
H        -0.96823291     0.15832294    -0.56454225    -0.00088046     0.00023443    -0.00027734
     6
  Step:     6            Position(A)                                  Velocity(au)
C        -0.04548678     0.00576143     0.00102267     0.00006165    -0.00002562    -0.00097689
N        -0.03802036    -0.06119691     1.31470782    -0.00005621     0.00003925     0.00076125
H         0.97865272     0.02877741    -0.51430551     0.00008435     0.00015656     0.00043281
H         0.82221674    -0.05921999     1.79398522     0.00096256    -0.00037728     0.00058584
H        -0.97027795    -0.01733932     1.89656505    -0.00009428    -0.00030664     0.00030811
H        -0.97316425     0.15976469    -0.56603591    -0.00090608     0.00028713    -0.00026479
     6
  Step:     7            Position(A)                                  Velocity(au)
C        -0.04511720     0.00561350    -0.00462057     0.00007166    -0.00002790    -0.00106657
N        -0.03841576    -0.06100936     1.31911012    -0.00008593     0.00002925     0.00083310
H         0.97880722     0.02974203    -0.51179286    -0.00002580     0.00019232     0.00047475
H         0.82813550    -0.06115233     1.79761580     0.00116938    -0.00032664     0.00072360
H        -0.97023193    -0.01892979     1.89790737     0.00010814    -0.00027161     0.00018218
H        -0.97819324     0.16147933    -0.56745299    -0.00091167     0.00033185    -0.00024845
     6
  Step:     8            Position(A)                                  Velocity(au)
C        -0.04469688     0.00545393    -0.01073338     0.00007950    -0.00002966    -0.00113951
N        -0.03896747    -0.06087447     1.32389054    -0.00011186     0.00002001     0.00089242
H         0.97836832     0.03089718    -0.50907271    -0.00012884     0.00022421     0.00050433
H         0.83510597    -0.06282037     1.80196099     0.00133284    -0.00027943     0.00083815
H        -0.96908600    -0.02033305     1.89857307     0.00030065    -0.00023707     0.00006344
H        -0.98321297     0.16342243    -0.56877446    -0.00089757     0.00036767    -0.00022890
     6
  Step:     9            Position(A)                                  Velocity(au)
C        -0.04423803     0.00528551    -0.01722260     0.00008492    -0.00003088    -0.00119345
N        -0.03965284    -0.06078810     1.32897951    -0.00013299     0.00001158     0.00093744
H         0.97738234     0.03222164    -0.50621544    -0.00022073     0.00025171     0.00052002
H         0.84287563    -0.06424262     1.80688505     0.00144588    -0.00023571     0.00092504
H        -0.96690694    -0.02155155     1.89860895     0.00047601    -0.00020306    -0.00004408
H        -0.98811956     0.16554542    -0.56998447    -0.00086500     0.00039409    -0.00020688
     6
  Step:    10            Position(A)                                  Velocity(au)
C        -0.04375408     0.00511109    -0.02398329     0.00008780    -0.00003159    -0.00122724
N        -0.04044399    -0.06074589     1.33429818    -0.00014858     0.00000402     0.00096721
H         0.97591772     0.03369168    -0.50329930    -0.00029775     0.00027456     0.00052104
H         0.85115840    -0.06543731     1.81223098     0.00150497    -0.00019552     0.00098188
H        -0.96380127    -0.02258751     1.89808367     0.00062735    -0.00016968    -0.00013656
H        -0.99281639     0.16779774    -0.57107124    -0.00081618     0.00041116    -0.00018329
     6
  Step:    11            Position(A)                                  Velocity(au)
C        -0.04325912     0.00493335    -0.03090496     0.00008816    -0.00003184    -0.00124135
N        -0.04130934    -0.06074328     1.33976281    -0.00015826    -0.00000266     0.00098195
H         0.97406277     0.03528263    -0.50040644    -0.00035707     0.00029291     0.00050752
H         0.85965443    -0.06642245     1.81783196     0.00151093    -0.00015891     0.00100884
H        -0.95991272    -0.02344333     1.89708649     0.00074913    -0.00013707    -0.00021083
H        -0.99721903     0.17012944    -0.57202797    -0.00075424     0.00041953    -0.00015921
     6
  Step:    12            Position(A)                                  Velocity(au)
C        -0.04276715     0.00475460    -0.03788023     0.00008617    -0.00003176    -0.00123812
N        -0.04221577    -0.06077571     1.34529116    -0.00016214    -0.00000850     0.00098332
H         0.97192033     0.03697087    -0.49761754    -0.00039721     0.00030740     0.00048067
H         0.86807332    -0.06721627     1.82352502     0.00146881    -0.00012595     0.00100870
H        -0.95541470    -0.02412202     1.89572346     0.00083791    -0.00010541    -0.00026478
H        -1.00126018     0.17249439    -0.57285358    -0.00068312     0.00042049    -0.00013574
     6
  Step:    13            Position(A)                                  Velocity(au)
C        -0.04229107     0.00457656    -0.04481509     0.00012988    -0.00004974    -0.00193127
N        -0.04313100    -0.06083877     1.35081028    -0.00025410    -0.00002145     0.00154030
H         0.96960021     0.03873624    -0.49500613    -0.00066110     0.00050443     0.00069955
H         0.87615633    -0.06783747     1.82916460     0.00219273    -0.00015285     0.00155940
H        -0.95049890    -0.02462760     1.89411175     0.00141134    -0.00011831    -0.00047048
H        -1.00489381     0.17485358    -0.57355295    -0.00095969     0.00065744    -0.00018009
     6
  Step:    14            Position(A)                                  Velocity(au)
C        -0.04158869     0.00428908    -0.05526155     0.00011641    -0.00005148    -0.00174089
N        -0.04453559    -0.06095110     1.35917803    -0.00023677    -0.00001806     0.00140064
H         0.96617224     0.04153947    -0.49153189    -0.00053508     0.00048211     0.00052040
H         0.88813423    -0.06866161     1.83780970     0.00199887    -0.00013689     0.00146837
H        -0.94255083    -0.02530847     1.89146538     0.00135937    -0.00012020    -0.00044436
H        -1.01024306     0.17854197    -0.57482732    -0.00092011     0.00063941    -0.00026371
     6
  Step:    15            Position(A)                                  Velocity(au)
C        -0.04096544     0.00399026    -0.06464030     0.00010195    -0.00005352    -0.00155342
N        -0.04582730    -0.06104442     1.36676067    -0.00021433    -0.00001477     0.00126209
H         0.96350675     0.04422654    -0.48907983    -0.00039469     0.00046233     0.00034094
H         0.89891933    -0.06939640     1.84588637     0.00177387    -0.00012110     0.00135900
H        -0.93501847    -0.02599641     1.88905138     0.00126379    -0.00012061    -0.00038936
H        -1.01537204     0.18213516    -0.57655609    -0.00087944     0.00062234    -0.00033860
     6
  Step:    16            Position(A)                                  Velocity(au)
C        -0.04042632     0.00367885    -0.07297321     0.00008757    -0.00005619    -0.00138310
N        -0.04697932    -0.06111947     1.37356809    -0.00018936    -0.00001174     0.00113605
H         0.96167214     0.04681082    -0.48764453    -0.00024767     0.00044859     0.00016593
H         0.90835937    -0.07004235     1.85330471     0.00154055    -0.00010632     0.00124735
H        -0.92814142    -0.02668368     1.88702602     0.00113874    -0.00012084    -0.00031179
H        -1.02027015     0.18563774    -0.57868796    -0.00084368     0.00061122    -0.00040750
     6
  Step:    17            Position(A)                                  Velocity(au)
C        -0.03997026     0.00335169    -0.08035903     0.00007357    -0.00005958    -0.00123236
N        -0.04797939    -0.06117781     1.37967174    -0.00016285    -0.00000898     0.00102454
H         0.96069205     0.04932472    -0.48719403    -0.00009747     0.00044157    -0.00000452
H         0.91642747    -0.07060476     1.86006231     0.00130713    -0.00009256     0.00113929
H        -0.92207680    -0.02736973     1.88550788     0.00099019    -0.00012150    -0.00021501
H        -1.02496031     0.18908155    -0.58118724    -0.00081354     0.00060734    -0.00047239
     6
  Step:    18            Position(A)                                  Velocity(au)
C        -0.03959439     0.00300508    -0.08690883     0.00005990    -0.00006359    -0.00109755
N        -0.04882085    -0.06122107     1.38515367    -0.00013490    -0.00000646     0.00092468
H         0.96056995     0.05180411    -0.48769566     0.00005374     0.00044011    -0.00017123
H         0.92314049    -0.07108902     1.86618796     0.00107388    -0.00007938     0.00103465
H        -0.91694424    -0.02805760     1.88459462     0.00081965    -0.00012274    -0.00010104
H        -1.02946976     0.19250556    -0.58402976    -0.00078639     0.00060954    -0.00053364
     6
  Step:    19            Position(A)                                  Velocity(au)
C        -0.03929609     0.00263588    -0.09271292     0.00004648    -0.00006803    -0.00097426
N        -0.04949783    -0.06125050     1.39007979    -0.00010555    -0.00000410     0.00083293
H         0.96129693     0.05427851    -0.48912139     0.00020317     0.00044258    -0.00033406
H         0.92851483    -0.07149824     1.87170812     0.00083967    -0.00006635     0.00093173
H        -0.91285095    -0.02875126     1.88437061     0.00062889    -0.00012456     0.00002759
H        -1.03381177     0.19594239    -0.58719384    -0.00075885     0.00061595    -0.00059064
     6
  Step:    20            Position(A)                                  Velocity(au)
C        -0.03907308     0.00224197    -0.09783682     0.00003335    -0.00007272    -0.00085930
N        -0.05000476    -0.06126702     1.39449635    -0.00007507    -0.00000186     0.00074675
H         0.96284880     0.05676841    -0.49144268     0.00034721     0.00044756    -0.00049186
H         0.93255887    -0.07183324     1.87663893     0.00060466    -0.00005319     0.00082955
H        -0.90989017    -0.02945479     1.88490407     0.00042202    -0.00012703     0.00016713
H        -1.03798154     0.19941444    -0.59065484    -0.00072817     0.00062494    -0.00064259
     6
  Step:    21            Position(A)                                  Velocity(au)
C        -0.03892292     0.00182221    -0.10232819     0.00002064    -0.00007750    -0.00075082
N        -0.05033781    -0.06127127     1.39843569    -0.00004399     0.00000030     0.00066476
H         0.96518213     0.05928653    -0.49462512     0.00048201     0.00045398    -0.00064305
H         0.93528078    -0.07209341     1.88099051     0.00037040    -0.00003978     0.00072811
H        -0.90812876    -0.03017265     1.88624071     0.00020537    -0.00013027     0.00031286
H        -1.04195974     0.20293524    -0.59438414    -0.00069249     0.00063535    -0.00068889
     6
  Step:    22            Position(A)                                  Velocity(au)
C        -0.03884246     0.00137623    -0.10622417     0.00000853    -0.00008227    -0.00064781
N        -0.05049620    -0.06126365     1.40192229    -0.00001301     0.00000241     0.00058626
H         0.96823332     0.06183980    -0.49862608     0.00060391     0.00046109    -0.00078598
H         0.93669654    -0.07227757     1.88477252     0.00013926    -0.00002610     0.00062806
H        -0.90759601    -0.03090999     1.88839897    -0.00001330    -0.00013446     0.00045952
H        -1.04571731     0.20651191    -0.59835030    -0.00065066     0.00064638    -0.00072925
     6
  Step:    23            Position(A)                                  Velocity(au)
C        -0.03882779     0.00090426    -0.10955606    -0.00000285    -0.00008696    -0.00054970
N        -0.05048301    -0.06124440     1.40497684     0.00001711     0.00000449     0.00051098
H         0.97192023     0.06443106    -0.50339457     0.00070979     0.00046833    -0.00091917
H         0.93683458    -0.07238464     1.88799799    -0.00008600    -0.00001225     0.00053042
H        -0.90827715    -0.03167286     1.89136777    -0.00022571    -0.00013977     0.00060175
H        -1.04921944     0.21014714    -0.60252063    -0.00060204     0.00065744    -0.00076361
     6
  Step:    24            Position(A)                                  Velocity(au)
C        -0.03887419     0.00040693    -0.11235179    -0.00001333    -0.00009148    -0.00045615
N        -0.05030543    -0.06121358     1.40761831     0.00004564     0.00000658     0.00043883
H         0.97614547     0.06706033    -0.50887223     0.00079720     0.00047531    -0.00104140
H         0.93573793    -0.07241408     1.89068525    -0.00030250     0.00000165     0.00043638
H        -0.91011201    -0.03246799     1.89510673    -0.00042378    -0.00014630     0.00073441
H        -1.05242835     0.21384044    -0.60686239    -0.00054633     0.00066807    -0.00079207
     6
  Step:    25            Position(A)                                  Velocity(au)
C        -0.03897633    -0.00011478    -0.11463715    -0.00002284    -0.00009581    -0.00036690
N        -0.04997460    -0.06117115     1.40986497     0.00007187     0.00000868     0.00036976
H         0.98080027     0.06972561    -0.51499475     0.00086442     0.00048176    -0.00115167
H         0.93346498    -0.07236622     1.89285890    -0.00050736     0.00001541     0.00034717
H        -0.91299762    -0.03330252     1.89954836    -0.00060021    -0.00015410     0.00085290
H        -1.05530504     0.21758884    -0.61134356    -0.00048347     0.00067790    -0.00081480
     6
  Step:    26            Position(A)                                  Velocity(au)
C        -0.03912850    -0.00065963    -0.11643634    -0.00003132    -0.00009988    -0.00028174
N        -0.04950529    -0.06111693     1.41173469     0.00009520     0.00001083     0.00030375
H         0.98576868     0.07242351    -0.52169326     0.00091046     0.00048744    -0.00124924
H         0.93008967    -0.07224247     1.89455018    -0.00069768     0.00002883     0.00026405
H        -0.91679393    -0.03418353     1.90460174    -0.00074895    -0.00016311     0.00095338
H        -1.05781059     0.22138722    -0.61593316    -0.00041359     0.00068657    -0.00083198
     6
  Step:    27            Position(A)                                  Velocity(au)
C        -0.03932479    -0.00122618    -0.11777223    -0.00003872    -0.00010367    -0.00020050
N        -0.04891531    -0.06105068     1.41324492     0.00011510     0.00001302     0.00024074
H         0.99093140     0.07514961    -0.52889566     0.00093496     0.00049222    -0.00133359
H         0.92570151    -0.07204541     1.89579714    -0.00087061     0.00004169     0.00018828
H        -0.92133152    -0.03511758     1.91015705    -0.00086542    -0.00017322     0.00103285
H        -1.05990726     0.22522859    -0.62060143    -0.00033702     0.00069376    -0.00084385
     6
  Step:    28            Position(A)                                  Velocity(au)
C        -0.03955925    -0.00181283    -0.11866662    -0.00004507    -0.00010715    -0.00012302
N        -0.04822495    -0.06097213     1.41441258     0.00013120     0.00001526     0.00018065
H         0.99616890     0.07789875    -0.53652772     0.00093816     0.00049597    -0.00140442
H         0.92040531    -0.07177876     1.89664459    -0.00102336     0.00005379     0.00012111
H        -0.92642062    -0.03611035     1.91609088    -0.00094676    -0.00018422     0.00108936
H        -1.06155945     0.22910440    -0.62531982    -0.00025422     0.00069923    -0.00085061
     6
  Step:    29            Position(A)                                  Velocity(au)
C        -0.03982601    -0.00241781    -0.11914032    -0.00005038    -0.00011030    -0.00004918
N        -0.04745624    -0.06088098     1.41525394     0.00014323     0.00001755     0.00012337
H         1.00136463     0.08066525    -0.54451424     0.00092080     0.00049861    -0.00146164
H         0.91432067    -0.07144726     1.89714395    -0.00115333     0.00006495     0.00006371
H        -0.93186049    -0.03716634     1.92227179    -0.00099177    -0.00019591     0.00112189
H        -1.06273448     0.23300478    -0.63006102    -0.00016583     0.00070279    -0.00085248
     6
  Step:    30            Position(A)                                  Velocity(au)
C        -0.04011945    -0.00303930    -0.11921341    -0.00005470    -0.00011311     0.00002114
N        -0.04663229    -0.06077697     1.41578441     0.00015105     0.00001989     0.00006876
H         1.00640766     0.08344303    -0.55278022     0.00088411     0.00050011    -0.00150538
H         0.90758098    -0.07105655     1.89735305    -0.00125807     0.00007505     0.00001726
H        -0.93744847    -0.03828870     1.92856560    -0.00100076    -0.00020802     0.00113038
H        -1.06340334     0.23691896    -0.63479891    -0.00007256     0.00070431    -0.00084971
     6
  Step:    31            Position(A)                                  Velocity(au)
C        -0.04043423    -0.00367540    -0.11890533    -0.00005810    -0.00011557     0.00008800
N        -0.04577676    -0.06065987     1.41601847     0.00015462     0.00002225     0.00001666
H         1.01119474     0.08622582    -0.56125195     0.00082965     0.00050045    -0.00153600
H         0.90033275    -0.07061286     1.89733590    -0.00133541     0.00008398    -0.00001719
H        -0.94298752    -0.03947920     1.93484000    -0.00097536    -0.00022032     0.00111555
H        -1.06354120     0.24083568    -0.63950857     0.00002477     0.00070376    -0.00084252
     6
  Step:    32            Position(A)                                  Velocity(au)
C        -0.04076541    -0.00432424    -0.11823496    -0.00006063    -0.00011769     0.00015151
N        -0.04491320    -0.06052953     1.41596959     0.00015400     0.00002465    -0.00003312
H         1.01563211     0.08900724    -0.56985814     0.00075920     0.00049962    -0.00155402
H         0.89273328    -0.07012280     1.89716196    -0.00138374     0.00009172    -0.00003878
H        -0.94829298    -0.04073833     1.94096874    -0.00091828    -0.00023260     0.00107881
H        -1.06312790     0.24474362    -0.64416639     0.00012528     0.00070117    -0.00083118
     6
  Step:    33            Position(A)                                  Velocity(au)
C        -0.04110838    -0.00498397    -0.11722075    -0.00006237    -0.00011949     0.00021173
N        -0.04406451    -0.06038583     1.41565020     0.00014936     0.00002705    -0.00008075
H         1.01963602     0.09178089    -0.57853057     0.00067461     0.00049763    -0.00156008
H         0.88494738    -0.06959306     1.89690470    -0.00140213     0.00009826    -0.00004698
H        -0.95319757    -0.04206538     1.94683489    -0.00083296    -0.00024466     0.00102205
H        -1.06214822     0.24863180    -0.64875019     0.00022806     0.00069667    -0.00081598
     6
  Step:    34            Position(A)                                  Velocity(au)
C        -0.04145892    -0.00565283    -0.11588068    -0.00006338    -0.00012097     0.00026876
N        -0.04325241    -0.06022875     1.41507175     0.00014098     0.00002945    -0.00012639
H         1.02313316     0.09454046    -0.58720479     0.00057781     0.00049452    -0.00155493
H         0.87714283    -0.06903021     1.89663964    -0.00139050     0.00010366    -0.00004160
H        -0.95755469    -0.04345869     1.95233305    -0.00072336    -0.00025634     0.00094754
H        -1.06059208     0.25248999    -0.65323932     0.00033219     0.00069042    -0.00079721
     6
  Step:    35            Position(A)                                  Velocity(au)
C        -0.04181315    -0.00632916    -0.11423226    -0.00006372    -0.00012218     0.00032267
N        -0.04249691    -0.06005833     1.41424476     0.00012919     0.00003184    -0.00017021
H         1.02606101     0.09727978    -0.59582073     0.00047073     0.00049033    -0.00153941
H         0.86948563    -0.06844043     1.89644209    -0.00134961     0.00010799    -0.00002291
H        -0.96124097    -0.04491581     1.95737116    -0.00059379    -0.00026753     0.00085778
H        -1.05845446     0.25630894    -0.65761480     0.00043675     0.00068261    -0.00077518
     6
  Step:    36            Position(A)                                  Velocity(au)
C        -0.04216753    -0.00701145    -0.11229253    -0.00006346    -0.00012312     0.00037356
N        -0.04181586    -0.05987466     1.41317897     0.00011441     0.00003421    -0.00021234
H         1.02836769     0.09999290    -0.60432301     0.00035526     0.00048509    -0.00151436
H         0.86213514    -0.06782939     1.89638485    -0.00128110     0.00011135     0.00000841
H        -0.96415762    -0.04643368     1.96187162    -0.00044869    -0.00027814     0.00075540
H        -1.05573541     0.26008058    -0.66185931     0.00054086     0.00067347    -0.00075020
     6
  Step:    37            Position(A)                                  Velocity(au)
C        -0.04251888    -0.00769834    -0.11007808    -0.00006265    -0.00012384     0.00042150
N        -0.04122465    -0.05967791     1.41188348     0.00009712     0.00003654    -0.00025285
H         1.03001167     0.10267412    -0.61266102     0.00023321     0.00047884    -0.00148064
H         0.85523929    -0.06720215     1.89653563    -0.00118748     0.00011387     0.00005120
H        -0.96623059    -0.04800879     1.96577155    -0.00029243    -0.00028808     0.00064302
H        -1.05243984     0.26379815    -0.66595728     0.00064366     0.00066323    -0.00072256
     6
  Step:    38            Position(A)                                  Velocity(au)
C        -0.04286427    -0.00838860    -0.10760507    -0.00006134    -0.00012434     0.00046655
N        -0.04073584    -0.05946831     1.41036703     0.00007784     0.00003882    -0.00029179
H         1.03096120     0.10531797    -0.62078885     0.00010627     0.00047162    -0.00143902
H         0.84892943    -0.06656304     1.89695425    -0.00107214     0.00011568     0.00010378
H        -0.96740972    -0.04963737     1.96902251    -0.00012921    -0.00029732     0.00052318
H        -1.04857740     0.26745617    -0.66989479     0.00074428     0.00065210    -0.00069256
     6
  Step:    39            Position(A)                                  Velocity(au)
C        -0.04320105    -0.00908112    -0.10488938    -0.00005956    -0.00012464     0.00050873
N        -0.04035896    -0.05924613     1.40863833     0.00005714     0.00004105    -0.00032913
H         1.03119349     0.10791914    -0.62866487    -0.00002400     0.00046343    -0.00139023
H         0.84331562    -0.06591566     1.89768978    -0.00093925     0.00011689     0.00016398
H        -0.96766755    -0.05131543     1.97158997     0.00003703    -0.00030583     0.00039830
H        -1.04416242     0.27105040    -0.67365953     0.00084187     0.00064029    -0.00066046
     6
  Step:    40            Position(A)                                  Velocity(au)
C        -0.04352675    -0.00977490    -0.10194679    -0.00005736    -0.00012477     0.00054803
N        -0.04010028    -0.05901174     1.40670635     0.00003563     0.00004320    -0.00036476
H         1.03069428     0.11047243    -0.63625142    -0.00015608     0.00045430    -0.00133492
H         0.83848276    -0.06526290     1.89877810    -0.00079361     0.00011765     0.00022923
H        -0.96699782    -0.05303886     1.97345253     0.00020254    -0.00031356     0.00027073
H        -1.03921386     0.27457771    -0.67724068     0.00093555     0.00062798    -0.00062652
     6
  Step:    41            Position(A)                                  Velocity(au)
C        -0.04383910    -0.01046902    -0.09879318    -0.00005475    -0.00012472     0.00058438
N        -0.03996267    -0.05876554     1.40458073     0.00001391     0.00004527    -0.00039854
H         1.02945732     0.11297268    -0.64351440    -0.00028852     0.00044420    -0.00127369
H         0.83448757    -0.06460699     1.90023974    -0.00064047     0.00011804     0.00029661
H        -0.96541454    -0.05480347     1.97460152     0.00036371    -0.00032051     0.00014274
H        -1.03375542     0.27803601    -0.68062887     0.00102444     0.00061533    -0.00059098
     6
  Step:    42            Position(A)                                  Velocity(au)
C        -0.04413597    -0.01116260    -0.09544478    -0.00005177    -0.00012451     0.00061768
N        -0.03994553    -0.05850801     1.40227208    -0.00000738     0.00004724    -0.00043024
H         1.02748409     0.11541470    -0.65042294    -0.00041994     0.00043312    -0.00120708
H         0.83135663    -0.06394951     1.90207827    -0.00048533     0.00011819     0.00036297
H        -0.96295109    -0.05660500     1.97504067     0.00051710    -0.00032666     0.00001656
H        -1.02781555     0.28142407    -0.68381609     0.00110762     0.00060247    -0.00055407
     6
  Step:    43            Position(A)                                  Velocity(au)
C        -0.04441534    -0.01185476    -0.09191845    -0.00004844    -0.00012412     0.00064778
N        -0.04004479    -0.05823973     1.39979222    -0.00002762     0.00004910    -0.00045961
H         1.02478342     0.11779324    -0.65694910    -0.00054896     0.00042105    -0.00113563
H         0.82908588    -0.06329155     1.90427955    -0.00033364     0.00011817     0.00042512
H        -0.95965930    -0.05843916     1.97478586     0.00065942    -0.00033199    -0.00010560
H        -1.02142767     0.28474142    -0.68679568     0.00118417     0.00058953    -0.00051607
     6
  Step:    44            Position(A)                                  Velocity(au)
C        -0.04467534    -0.01254465    -0.08823189    -0.00004478    -0.00012357     0.00067451
N        -0.04025306    -0.05796132     1.39715447    -0.00004623     0.00005082    -0.00048637
H         1.02137156     0.12010297    -0.66306790    -0.00067421     0.00040798    -0.00105991
H         0.82764164    -0.06263373     1.90681188    -0.00019053     0.00011806     0.00048000
H        -0.95560858    -0.06030166     1.97386485     0.00078760    -0.00033652    -0.00022160
H        -1.01463011     0.28798830    -0.68956243     0.00125319     0.00057663    -0.00047725
     6