     6
  Step:     0            Position(A)                                  Velocity(au)
C        -0.03732411     0.02108469     0.02949907    -0.00002524     0.00008144     0.00027175
N        -0.04074750    -0.05786652     1.29234313     0.00015736    -0.00008537    -0.00023720
H         0.88261892    -0.05049294    -0.49051678     0.00021910    -0.00016442    -0.00033785
H         0.82426464    -0.09119356     1.78809076    -0.00152111     0.00028152    -0.00028574
H        -0.94218526    -0.03221891     1.84924805    -0.00061745     0.00053349     0.00032681
H        -0.96663838     0.05701449    -0.56514818     0.00003357    -0.00043464     0.00035474
     6
  Step:     1            Position(A)                                  Velocity(au)
C        -0.03749486     0.02154964     0.03081912    -0.00003682     0.00008878     0.00020948
N        -0.03993808    -0.05834587     1.29121216     0.00013697    -0.00009006    -0.00017574
H         0.88434172    -0.05144993    -0.49283194     0.00040489    -0.00018539    -0.00050509
H         0.81633670    -0.08965082     1.78691156    -0.00136002     0.00028241    -0.00013440
H        -0.94526649    -0.02930694     1.85095622    -0.00050254     0.00053160     0.00029250
H        -0.96656489     0.05463795    -0.56337575    -0.00000686    -0.00043495     0.00029290
     6
  Step:     2            Position(A)                                  Velocity(au)
C        -0.03772681     0.02205558     0.03178991    -0.00004753     0.00009651     0.00014445
N        -0.03924959    -0.05885141     1.29042127     0.00011357    -0.00009506    -0.00011326
H         0.88704679    -0.05252032    -0.49604040     0.00057697    -0.00020597    -0.00066403
H         0.80939153    -0.08810511     1.78662092    -0.00116560     0.00028313     0.00003782
H        -0.94768097    -0.02640543     1.85244681    -0.00037569     0.00053030     0.00024862
H        -0.96671339     0.05225794    -0.56194506    -0.00004736    -0.00043645     0.00023018
     6
  Step:     3            Position(A)                                  Velocity(au)
C        -0.03801435     0.02260447     0.03239786    -0.00005713     0.00010464     0.00007712
N        -0.03869688    -0.05938484     1.28997427     0.00008778    -0.00010042    -0.00005025
H         0.89064758    -0.05370104    -0.50008936     0.00073218    -0.00022598    -0.00081289
H         0.80359745    -0.08655639     1.78732495    -0.00094366     0.00028418     0.00022795
H        -0.94937257    -0.02351107     1.85367346    -0.00024002     0.00052987     0.00019732
H        -0.96708252     0.04986785    -0.56086000    -0.00008745    -0.00043937     0.00016684
     6
  Step:     4            Position(A)                                  Velocity(au)
C        -0.03835069     0.02319824     0.03263210    -0.00006543     0.00011312     0.00000792
N        -0.03829101    -0.05994806     1.28987253     0.00006029    -0.00010616     0.00001296
H         0.89504243    -0.05498808    -0.50491746     0.00086806    -0.00024522    -0.00095024
H         0.79908637    -0.08500175     1.78911024    -0.00070099     0.00028602     0.00043212
H        -0.95030209    -0.02061911     1.85460166    -0.00009837     0.00053042     0.00014065
H        -0.96766839     0.04745992    -0.56012311    -0.00012670    -0.00044379     0.00010300
     6
  Step:     5            Position(A)                                  Velocity(au)
C        -0.03872821     0.02383866     0.03248425    -0.00007227     0.00012190    -0.00006269
N        -0.03803914    -0.06054313     1.29011563     0.00003181    -0.00011228     0.00007606
H         0.90011852    -0.05637655    -0.51045691     0.00098265    -0.00026349    -0.00107483
H         0.79594933    -0.08343582     1.79203958    -0.00044523     0.00028900     0.00064554
H        -0.95044585    -0.01772394     1.85520805     0.00004650     0.00053199     0.00008058
H        -0.96846491     0.04502583    -0.55973625    -0.00016470    -0.00044971     0.00003873
     6
  Step:     6            Position(A)                                  Velocity(au)
C        -0.03913854     0.02452715     0.03194868    -0.00007752     0.00013088    -0.00013412
N        -0.03794425    -0.06117209     1.29070167     0.00000313    -0.00011873     0.00013873
H         0.90575472    -0.05786051    -0.51663462     0.00107431    -0.00028051    -0.00118543
H         0.79423278    -0.08185127     1.79614751    -0.00018483     0.00029336     0.00086247
H        -0.94979512    -0.01481971     1.85548009     0.00019175     0.00053446     0.00001910
H        -0.96946388     0.04255747    -0.55970088    -0.00020100    -0.00045693    -0.00002585
     6
  Step:     7            Position(A)                                  Velocity(au)
C        -0.03957275     0.02526461     0.03102299    -0.00008105     0.00013991    -0.00020561
N        -0.03800499    -0.06183669     1.29162710    -0.00002489    -0.00012541     0.00020053
H         0.91182291    -0.05943268    -0.52337195     0.00114154    -0.00029595    -0.00128066
H         0.79393566    -0.08023967     1.80143598     0.00007113     0.00029919     0.00107624
H        -0.94835673    -0.01190111     1.85541611     0.00033421     0.00053760    -0.00004169
H        -0.97065475     0.04004769    -0.56001792    -0.00023506    -0.00046512    -0.00009054
     6
  Step:     8            Position(A)                                  Velocity(au)
C        -0.04002135     0.02605107     0.02970906    -0.00008276     0.00014875    -0.00027613
N        -0.03821540    -0.06253815     1.29288596    -0.00005138    -0.00013217     0.00026081
H         0.91818878    -0.06108405    -0.53058398     0.00118303    -0.00030937    -0.00135894
H         0.79500757    -0.07859237     1.80787024     0.00031323     0.00030637     0.00127940
H        -0.94615484    -0.00896401     1.85502600     0.00047019     0.00054104    -0.00009948
H        -0.97202422     0.03749120    -0.56068710    -0.00026624    -0.00047379    -0.00015493
     6
  Step:     9            Position(A)                                  Velocity(au)
C        -0.04047447     0.02688538     0.02801434    -0.00008257     0.00015714    -0.00034437
N        -0.03856476    -0.06327682     1.29446878    -0.00007538    -0.00013879     0.00031865
H         0.92471278    -0.06280345    -0.53817844     0.00119768    -0.00032029    -0.00141853
H         0.79734854    -0.07690163     1.81537580     0.00053210     0.00031456     0.00146401
H        -0.94323374    -0.00600616     1.85433225     0.00059544     0.00054432    -0.00015174
H        -0.97355561     0.03488546    -0.56170595    -0.00029379    -0.00048228    -0.00021835
     6
  Step:    10            Position(A)                                  Velocity(au)
C        -0.04092184     0.02776484     0.02595343    -0.00008042     0.00016473    -0.00040871
N        -0.03903745    -0.06405184     1.29636108    -0.00009597    -0.00014501     0.00037285
H         0.93125057    -0.06457708    -0.54605431     0.00118472    -0.00032816    -0.00145760
H         0.80081064    -0.07516182     1.82383665     0.00071894     0.00032325     0.00162212
H        -0.93966097    -0.00302773     1.85337115     0.00070520     0.00054691    -0.00019577
H        -0.97522822     0.03223148    -0.56306836    -0.00031685    -0.00048982    -0.00027985
     6
  Step:    11            Position(A)                                  Velocity(au)
C        -0.04135304     0.02868494     0.02354949    -0.00007634     0.00017116    -0.00046737
N        -0.03961310    -0.06486090     1.29854185    -0.00011229    -0.00015051     0.00042201
H         0.93765484    -0.06638829    -0.55410145     0.00114406    -0.00033245    -0.00147454
H         0.80520232    -0.07337042     1.83309608     0.00086619     0.00033175     0.00174636
H        -0.93553007    -0.00003163     1.85219367     0.00079440     0.00054829    -0.00022881
H        -0.97701687     0.02953455    -0.56476304    -0.00033455    -0.00049558    -0.00033821
     6
  Step:    12            Position(A)                                  Velocity(au)
C        -0.04175777     0.02963918     0.02083537    -0.00007038     0.00017606    -0.00051847
N        -0.04026707    -0.06570001     1.30098235    -0.00012363    -0.00015499     0.00046457
H         0.94377882    -0.06821762    -0.56220160     0.00107648    -0.00033269    -0.00146822
H         0.81029604    -0.07152896     1.84296053     0.00096827     0.00033926     0.00183069
H        -0.93096176     0.00297649     1.85086555     0.00085814     0.00054800    -0.00024829
H        -0.97889175     0.02680453    -0.56677205    -0.00034608    -0.00049872    -0.00039203
     6
  Step:    13            Position(A)                                  Velocity(au)
C        -0.04212623     0.03061907     0.01785385    -0.00006273     0.00017911    -0.00056026
N        -0.04097126    -0.06656350     1.30364543    -0.00012952    -0.00015816     0.00049907
H         0.94948051    -0.07004312    -0.57023067     0.00098386    -0.00032859    -0.00143831
H         0.81583926    -0.06964350     1.85320721     0.00102212     0.00034498     0.00187112
H        -0.92610294     0.00598850     1.84946608     0.00089226     0.00054571    -0.00025214
H        -0.98081879     0.02405580    -0.56906975    -0.00035083    -0.00049854    -0.00043984
     6
  Step:    14            Position(A)                                  Velocity(au)
C        -0.04244953     0.03161442     0.01465688    -0.00005363     0.00018009    -0.00059139
N        -0.04169539    -0.06744416     1.30648599    -0.00012978    -0.00015982     0.00052429
H         0.95462867    -0.07184121    -0.57806313     0.00086936    -0.00032004    -0.00138563
H         0.82156787    -0.06772455     1.86359501     0.00102767     0.00034823     0.00186631
H        -0.92112198     0.00899455     1.84808502     0.00089405     0.00054130    -0.00023911
H        -0.98276070     0.02130667    -0.57162253    -0.00034848    -0.00049454    -0.00048028
     6
  Step:    15            Position(A)                                  Velocity(au)
C        -0.04272026     0.03261381     0.01130350    -0.00004343     0.00017892    -0.00061112
N        -0.04240870    -0.06833367     1.30945253    -0.00012460    -0.00015987     0.00053955
H         0.95910972    -0.07358798    -0.58557818     0.00073736    -0.00030729    -0.00131236
H         0.82722196    -0.06578643     1.87387887     0.00098798     0.00034855     0.00181804
H        -0.91620025     0.01198406     1.84681763     0.00086285     0.00053493    -0.00020910
H        -0.98467860     0.01857817    -0.57438948    -0.00033912    -0.00048657    -0.00051240
     6
  Step:    16            Position(A)                                  Velocity(au)
C        -0.04293286     0.03360548     0.00785639    -0.00003253     0.00017573    -0.00061958
N        -0.04308188    -0.06922320     1.31249013    -0.00011453    -0.00015840     0.00054494
H         0.96283395    -0.07526073    -0.59266702     0.00059314    -0.00029090    -0.00122215
H         0.83256213    -0.06384588     1.88382614     0.00090901     0.00034586     0.00173131
H        -0.91152025     0.01494720     1.84575814     0.00080045     0.00052711    -0.00016324
H        -0.98653438     0.01589211    -0.57732448    -0.00032334    -0.00047496    -0.00053583
     6
  Step:    17            Position(A)                                  Velocity(au)
C        -0.04308393     0.03457836     0.00437719    -0.00002134     0.00017087    -0.00061790
N        -0.04368902    -0.07010439     1.31554452    -0.00010044    -0.00015565     0.00054141
H         0.96574045    -0.07683997    -0.59924071     0.00044238    -0.00027177    -0.00111992
H         0.83738392    -0.06191997     1.89323340     0.00079888     0.00034054     0.00161394
H        -0.90725190     0.01787672     1.84499279     0.00071108     0.00051878    -0.00010376
H        -0.98829331     0.01326855    -0.58037960    -0.00030223    -0.00046053    -0.00055105
     6
  Step:    18            Position(A)                                  Velocity(au)
C        -0.04317233     0.03552332     0.00092098    -0.00001021     0.00016486    -0.00060814
N        -0.04420927    -0.07097029     1.31856703    -0.00008340    -0.00015208     0.00053074
H         0.96779926    -0.07831117    -0.60523722     0.00029039    -0.00025106    -0.00101136
H         0.84152895    -0.06002360     1.90194128     0.00066672     0.00033338     0.00147557
H        -0.90353899     0.02077011     1.84459352     0.00060077     0.00051121    -0.00003365
H        -0.98992669     0.01072304    -0.58350961    -0.00027721    -0.00044456    -0.00055940
     6
  Step:    19            Position(A)                                  Velocity(au)
C        -0.04319891     0.03643417    -0.00246855     0.00000057     0.00015836    -0.00059292
N        -0.04462779    -0.07181637     1.32151902    -0.00006446    -0.00014822     0.00051524
H         0.96900934    -0.07966612    -0.61062540     0.00014126    -0.00022995    -0.00090198
H         0.84488908    -0.05816719     1.90984367     0.00052123     0.00032547     0.00132609
H        -0.90048913     0.02363132     1.84461403     0.00047628     0.00050586     0.00004398
H        -0.99141376     0.00826423    -0.58667672    -0.00024977    -0.00042858    -0.00056285
     6
  Step:    20            Position(A)                                  Velocity(au)
C        -0.04316591     0.03730827    -0.00576230     0.00001088     0.00015196    -0.00057487
N        -0.04493582    -0.07264100     1.32437471    -0.00004454    -0.00014459     0.00049722
H         0.96939151    -0.08090311    -0.61540410    -0.00000269    -0.00020945    -0.00079620
H         0.84740417    -0.05635497     1.91688872     0.00036945     0.00031795     0.00117393
H        -0.89817048     0.02647200     1.84508930     0.00034384     0.00050409     0.00012639
H        -0.99274201     0.00589220    -0.58985397    -0.00022120    -0.00041405    -0.00056357
     6
  Step:    21            Position(A)                                  Velocity(au)
C        -0.04307630     0.03814631    -0.00894551     0.00002070     0.00014613    -0.00055605
N        -0.04512968    -0.07344545     1.32712113    -0.00002433    -0.00014159     0.00047852
H         0.96897905    -0.08202596    -0.61959614    -0.00014076    -0.00019023    -0.00069678
H         0.84905162    -0.05458488     1.92307025     0.00021607     0.00031172     0.00102491
H        -0.89661507     0.02931080     1.84603810     0.00020847     0.00050684     0.00021142
H        -0.99390603     0.00359912    -0.59302636    -0.00019237    -0.00040205    -0.00056338
     6
  Step:    22            Position(A)                                  Velocity(au)
C        -0.04293310     0.03895147    -0.01201480     0.00003008     0.00014110    -0.00053768
N        -0.04520938    -0.07423309     1.32975545    -0.00000425    -0.00013942     0.00046026
H         0.96780870    -0.08304217    -0.62323912    -0.00027331    -0.00017259    -0.00060478
H         0.84983378    -0.05284985     1.92841334     0.00006381     0.00030730     0.00088211
H        -0.89582634     0.03217118     1.84746658     0.00007389     0.00051445     0.00029728
H        -0.99490509     0.00137132    -0.59618897    -0.00016363    -0.00039309    -0.00056346
     6
  Step:    23            Position(A)                                  Velocity(au)
C        -0.04273912     0.03972822    -0.01497340     0.00004033     0.00013865    -0.00057584
N        -0.04517735    -0.07500846     1.33228098     0.00001421    -0.00014116     0.00048681
H         0.96591507    -0.08396087    -0.62637626    -0.00043052    -0.00011189    -0.00047637
H         0.84976699    -0.05113982     1.93295946    -0.00010067     0.00026991     0.00072845
H        -0.89578667     0.03507816     1.84937085    -0.00003329     0.00056088     0.00036226
H        -0.99574050    -0.00080775    -0.59934327    -0.00011340    -0.00040937    -0.00051748
     6
  Step:    24            Position(A)                                  Velocity(au)
C        -0.04248246     0.04050092    -0.01844994     0.00005142     0.00013836    -0.00066875
N        -0.04505061    -0.07581062     1.33519562     0.00003087    -0.00014633     0.00055698
H         0.96299752    -0.08429260    -0.62856261    -0.00061156    -0.00001923    -0.00031146
H         0.84870873    -0.04983357     1.93655383    -0.00027543     0.00021127     0.00056259
H        -0.89619833     0.03843915     1.85151491    -0.00011234     0.00063018     0.00040391
H        -0.99617240    -0.00320343    -0.60197190    -0.00004233    -0.00043747    -0.00042612
     6
  Step:    25            Position(A)                                  Velocity(au)
C        -0.04216587     0.04127060    -0.02242846     0.00006187     0.00013788    -0.00075651
N        -0.04483325    -0.07663966     1.33848999     0.00004659    -0.00015119     0.00062344
H         0.95909756    -0.08417521    -0.62984832    -0.00078284     0.00005604    -0.00015506
H         0.84669659    -0.04878461     1.93923103    -0.00044150     0.00017073     0.00040303
H        -0.89703897     0.04210318     1.85387355    -0.00018649     0.00067989     0.00044080
H        -0.99621237    -0.00568459    -0.60409359     0.00002625    -0.00044861    -0.00033768
     6
  Step:    26            Position(A)                                  Velocity(au)
C        -0.04179362     0.04203601    -0.02687260     0.00007137     0.00013683    -0.00083569
N        -0.04453194    -0.07749391     1.34213669     0.00006083    -0.00015539     0.00068328
H         0.95428178    -0.08366871    -0.63028898    -0.00093926     0.00012244    -0.00000888
H         0.84379328    -0.04793271     1.94104095    -0.00059362     0.00013840     0.00025275
H        -0.89827465     0.04600867     1.85642259    -0.00025337     0.00071936     0.00047220
H        -0.99588018    -0.00819807    -0.60573147     0.00009056    -0.00045132    -0.00025310
     6
  Step:    27            Position(A)                                  Velocity(au)
C        -0.04137128     0.04279395    -0.03173222     0.00007965     0.00013491    -0.00090366
N        -0.04415607    -0.07836961     1.34609696     0.00007304    -0.00015855     0.00073438
H         0.94864079    -0.08281206    -0.62994713    -0.00107572     0.00018225     0.00012489
H         0.84008775    -0.04724383     1.94204497    -0.00072630     0.00011096     0.00011471
H        -0.89985977     0.05011188     1.85913056    -0.00031065     0.00075037     0.00049665
H        -0.99520419    -0.01070913    -0.60691137     0.00014871    -0.00044785    -0.00017339
     6
  Step:    28            Position(A)                                  Velocity(au)
C        -0.04090593     0.04353962    -0.03694414     0.00008640     0.00013191    -0.00095821
N        -0.04371794    -0.07926100     1.35032152     0.00008268    -0.00016037     0.00077497
H         0.94229259    -0.08163750    -0.62889700    -0.00118704     0.00023597     0.00024348
H         0.83569847    -0.04669604     1.94231943    -0.00083398     0.00008691    -0.00000776
H        -0.90173694     0.05437171     1.86195789    -0.00035623     0.00077299     0.00051284
H        -0.99422281    -0.01318945    -0.60766391     0.00019872    -0.00043914    -0.00009984
     6
  Step:    29            Position(A)                                  Velocity(au)
C        -0.04040629     0.04426716    -0.04243369     0.00009138     0.00012776    -0.00099777
N        -0.04323268    -0.08016066     1.35475201     0.00008931    -0.00016065     0.00080386
H         0.93538370    -0.08017668    -0.62722787    -0.00126851     0.00028343     0.00034397
H         0.83077371    -0.04627316     1.94195834    -0.00091174     0.00006557    -0.00011126
H        -0.90383821     0.05874483     1.86485802    -0.00038851     0.00078697     0.00051989
H        -0.99298487    -0.01561354    -0.60802635     0.00023879    -0.00042584    -0.00003388
     6
  Step:    30            Position(A)                                  Velocity(au)
C        -0.03988254     0.04497038    -0.04811821     0.00009439     0.00012250    -0.00102177
N        -0.04271774    -0.08106014     1.35932396     0.00009263    -0.00015935     0.00082062
H         0.92808640    -0.07846336    -0.62504482    -0.00131673     0.00032426     0.00042383
H         0.82548782    -0.04596169     1.94107346    -0.00095600     0.00004671    -0.00019286
H        -0.90608791     0.06318511     1.86778014    -0.00040672     0.00079239     0.00051763
H        -0.99154858    -0.01795845    -0.60804330     0.00026752    -0.00040861     0.00002315
     6
  Step:    31            Position(A)                                  Velocity(au)
C        -0.03934590     0.04564332    -0.05391239     0.00009535     0.00011632    -0.00103084
N        -0.04219206    -0.08195084     1.36397101     0.00009254    -0.00015660     0.00082582
H         0.92059132    -0.07653393    -0.62246644    -0.00133012     0.00035827     0.00048140
H         0.82003384    -0.04574844     1.93979169    -0.00096515     0.00003031    -0.00025064
H        -0.90840737     0.06764673     1.87067318    -0.00041103     0.00078994     0.00050667
H        -0.98997945    -0.02020396    -0.60776631     0.00028416    -0.00038838     0.00007024
     6
  Step:    32            Position(A)                                  Velocity(au)
C        -0.03880806     0.04628120    -0.05973478     0.00009430     0.00010952    -0.00102678
N        -0.04167488    -0.08282490     1.36863012     0.00008917    -0.00015268     0.00082092
H         0.91309725    -0.07442597    -0.61961992    -0.00130914     0.00038568     0.00051617
H         0.81461157    -0.04562012     1.93824897    -0.00093979     0.00001640    -0.00028401
H        -0.91071982     0.07208694     1.87348983    -0.00040253     0.00078091     0.00048829
H        -0.98834637    -0.02233511    -0.60725177     0.00028868    -0.00036630     0.00010693
     6
  Step:    33            Position(A)                                  Velocity(au)
C        -0.03828042     0.04688081    -0.06551401     0.00009138     0.00010242    -0.00101215
N        -0.04118452    -0.08367600     1.37324657     0.00008281    -0.00014796     0.00080800
H         0.90579931    -0.07217609    -0.61663428    -0.00125590     0.00040707     0.00052875
H         0.80941514    -0.04556318     1.93658269    -0.00088236     0.00000496    -0.00029369
H        -0.91295555     0.07647023     1.87619039    -0.00038299     0.00076709     0.00046421
H        -0.98671767    -0.02434282    -0.60655811     0.00028167    -0.00034354     0.00013331
     6
  Step:    34            Position(A)                                  Velocity(au)
C        -0.03777361     0.04744072    -0.07119303     0.00008677     0.00009533    -0.00098976
N        -0.04073742    -0.08449986     1.37777722     0.00007386    -0.00014280     0.00078932
H         0.89887959    -0.06981763    -0.61363406    -0.00117342     0.00042330     0.00052061
H         0.80462262    -0.04556403     1.93492422    -0.00079648    -0.00000410    -0.00028148
H        -0.91505557     0.08077093     1.87874500    -0.00035452     0.00075038     0.00043625
H        -0.98515762    -0.02622417    -0.60574262     0.00026415    -0.00032111     0.00014993
     6
  Step:    35            Position(A)                                  Velocity(au)
C        -0.03729709     0.04796112    -0.07673036     0.00008068     0.00008846    -0.00096212
N        -0.04034756    -0.08529427     1.38219148     0.00006274    -0.00013753     0.00076691
H         0.89250168    -0.06737903    -0.61073457    -0.00106493     0.00043534     0.00049361
H         0.80038906    -0.04560961     1.93339288    -0.00068631    -0.00001093    -0.00024987
H        -0.91697314     0.08497381     1.88113416    -0.00031919     0.00073242     0.00040606
H        -0.98372417    -0.02798173    -0.60485904     0.00023727    -0.00029978     0.00015762
     6
  Step:    36            Position(A)                                  Velocity(au)
C        -0.03685915     0.04844343    -0.08209847     0.00007328     0.00008196    -0.00093118
N        -0.04002630    -0.08605873     1.38646996     0.00004989    -0.00013237     0.00074233
H         0.88680886    -0.06488312    -0.60803909    -0.00093353     0.00044408     0.00044982
H         0.79684344    -0.04568786     1.93209205    -0.00055617    -0.00001576    -0.00020175
H        -0.91867353     0.08907276     1.88334760    -0.00027885     0.00071447     0.00037495
H        -0.98246821    -0.02962209    -0.60395604     0.00020217    -0.00028003     0.00015732
     6
  Step:    37            Position(A)                                  Velocity(au)
C        -0.03646689     0.04888977    -0.08728047     0.00006474     0.00007589    -0.00089824
N        -0.03978236    -0.08679398     1.39060190     0.00003572    -0.00012744     0.00071663
H         0.88192498    -0.06234765    -0.60563821    -0.00078216     0.00045028     0.00039133
H         0.79408771    -0.04578814     1.93110707    -0.00041046    -0.00001886    -0.00014026
H        -0.92013242     0.09306865     1.88538232    -0.00023506     0.00069734     0.00034392
H        -0.98143358    -0.03115443    -0.60307668     0.00015994    -0.00026209     0.00014995
     6
  Step:    38            Position(A)                                  Velocity(au)
C        -0.03612631     0.04930257    -0.09226682     0.00005525     0.00007025    -0.00086416
N        -0.03962197    -0.08750143     1.39458241     0.00002065    -0.00012282     0.00069051
H         0.87795466    -0.05978582    -0.60360916    -0.00061393     0.00045461     0.00032037
H         0.79219690    -0.04590141     1.93050431    -0.00025371    -0.00002054    -0.00006867
H        -0.92133441     0.09696686     1.88724083    -0.00018918     0.00068152     0.00031370
H        -0.98065765    -0.03258900    -0.60225857     0.00011161    -0.00024599     0.00013641
     6
  Step:    39            Position(A)                                  Velocity(au)
C        -0.03584216     0.04968419    -0.09705266     0.00004501     0.00006500    -0.00082945
N        -0.03954886    -0.08818283     1.39841037     0.00000510    -0.00011850     0.00066437
H         0.87498247    -0.05720676    -0.60201531    -0.00043233     0.00045768     0.00023936
H         0.79121863    -0.04602041     1.93033053    -0.00009070    -0.00002110     0.00000958
H        -0.92227175     0.10077551     1.88892970    -0.00014244     0.00066728     0.00028487
H        -0.98017147    -0.03393622    -0.60153410     0.00005825    -0.00023169     0.00011756
     6
  Step:    40            Position(A)                                  Velocity(au)
C        -0.03561793     0.05003678    -0.10163604     0.00003426     0.00006008    -0.00079449
N        -0.03956430    -0.08883995     1.40208698    -0.00001048    -0.00011448     0.00063852
H         0.87307123    -0.05461601    -0.60090539    -0.00024135     0.00046004     0.00015092
H         0.79117240    -0.04613971     1.93061253     0.00007359    -0.00002085     0.00009100
H        -0.92294337     0.10450425     1.89045859    -0.00009592     0.00065479     0.00025790
H        -0.97999972    -0.03520606    -0.60093064     0.00000099    -0.00021904     0.00009426
     6
  Step:    41            Position(A)                                  Velocity(au)
C        -0.03545555     0.05036213    -0.10601715     0.00002330     0.00005544    -0.00075958
N        -0.03966707    -0.08947455     1.40561500    -0.00002566    -0.00011074     0.00061315
H         0.87225920    -0.05201603    -0.60031241    -0.00004555     0.00046226     0.00005788
H         0.79204901    -0.04625570     1.93135727     0.00023414    -0.00002014     0.00017213
H        -0.92335403     0.10816371     1.89183962    -0.00005065     0.00064417     0.00023319
H        -0.98016032    -0.03640773    -0.60047053    -0.00005896    -0.00020791     0.00006736
     6
  Step:    42            Position(A)                                  Velocity(au)
C        -0.03535530     0.05066163    -0.11019776     0.00001242     0.00005098    -0.00072495
N        -0.03985355    -0.09008822     1.40899824    -0.00004003    -0.00010726     0.00058842
H         0.87255785    -0.04940558    -0.60025302     0.00015018     0.00046493    -0.00003684
H         0.79381157    -0.04636668     1.93255273     0.00038609    -0.00001927     0.00024972
H        -0.92351422     0.11176513     1.89308705    -0.00000757     0.00063551     0.00021110
H        -0.98066432    -0.03754954    -0.60017142    -0.00012035    -0.00019813     0.00003768
     6
  Step:    43            Position(A)                                  Velocity(au)
C        -0.03531572     0.05093627    -0.11418094     0.00000193     0.00004666    -0.00069084
N        -0.04011787    -0.09068244     1.41224127    -0.00005320    -0.00010401     0.00056443
H         0.87395041    -0.04678038    -0.60072726     0.00034074     0.00046855    -0.00013029
H         0.79639687    -0.04647269     1.93416940     0.00052494    -0.00001855     0.00032081
H        -0.92343932     0.11532027     1.89421689     0.00003245     0.00062888     0.00019192
H        -0.98151556    -0.03863886    -0.60004624    -0.00018184    -0.00018952     0.00000606
     6
  Step:    44            Position(A)                                  Velocity(au)
C        -0.03533358     0.05118664    -0.11797100    -0.00000785     0.00004240    -0.00065745
N        -0.04045215    -0.09125853     1.41534918    -0.00006483    -0.00010096     0.00054128
H         0.87639183    -0.04413346    -0.60171904     0.00052114     0.00047356    -0.00021968
H         0.79971819    -0.04657534     1.93616247     0.00064676    -0.00001822     0.00038289
H        -0.92314905     0.11884126     1.89524649     0.00006870     0.00062435     0.00017586
H        -0.98271043    -0.03968201    -0.60010323    -0.00024212    -0.00018192    -0.00002667
     6