 Fermi distribution function

Calculation with static geometry


********************************************************************************
 iSCC Total electronic   Diff electronic      SCC error    
   10   -0.54256607E+01   -0.32862602E-13    0.81205485E-06
********************************************************************************

 Total charge:     1.00000000

 Atomic gross charges (e)
 Atom           Charge
    1       0.25943349
    2      -0.14313580
    3       0.14638645
    4       0.30794378
    5       0.27292724
    6       0.15644484

Nr. of electrons (up):     12.00000000
Atom populations (up)
 Atom       Population
    1       3.74056651
    2       5.14313580
    3       0.85361355
    4       0.69205622
    5       0.72707276
    6       0.84355516

l-shell populations (up)
 Atom Sh.   l       Population
    1   1   0       1.27805757
    1   2   1       2.46250894
    2   1   0       1.40227410
    2   2   1       3.74086170
    3   1   0       0.85361355
    4   1   0       0.69205622
    5   1   0       0.72707276
    6   1   0       0.84355516

Orbital populations (up)
 Atom Sh.   l   m       Population  Label
    1   1   0   0       1.27805757  s
    1   2   1  -1       0.56984801  p_y
    1   2   1   0       0.90524880  p_z
    1   2   1   1       0.98741213  p_x
    2   1   0   0       1.40227410  s
    2   2   1  -1       1.33893112  p_y
    2   2   1   0       1.09937541  p_z
    2   2   1   1       1.30255516  p_x
    3   1   0   0       0.85361355  s
    4   1   0   0       0.69205622  s
    5   1   0   0       0.72707276  s
    6   1   0   0       0.84355516  s

Fermi level:                        -0.4821922193 H          -13.1211 eV
Band energy:                        -8.9443163846 H         -243.3872 eV
TS:                                  0.0000000000 H            0.0000 eV
Band free energy (E-TS):            -8.9443163846 H         -243.3872 eV
Extrapolated E(0K):                 -8.9443163846 H         -243.3872 eV
Input / Output electrons (q):     12.0000000000     12.0000000000

Energy H0:                          -5.5600982213 H         -151.2980 eV
Energy SCC:                          0.1344375389 H            3.6582 eV
Total Electronic energy:            -5.4256606825 H         -147.6397 eV
Repulsive energy:                    0.2259494341 H            6.1484 eV
Total energy:                       -5.1997112483 H         -141.4913 eV
Extrapolated to 0:                  -5.1997112483 H         -141.4913 eV
Total Mermin free energy:           -5.1997112483 H         -141.4913 eV
Force related energy:               -5.1997112483 H         -141.4913 eV

SCC converged

Excitation Energy:                   0.1033942055 H            2.8135 eV

Total Forces
    1     -0.017244510058      0.007630689552     -0.051531123614
    2      0.008748637973      0.007714430662      0.044828400272
    3      0.002838772391     -0.015788861804      0.000950480194
    4     -0.006970823204      0.007340093181      0.005699067806
    5      0.005979385764     -0.015554150282     -0.000124321986
    6      0.006648537133      0.008657798691      0.000177497329

Maximal derivative component:        0.515311E-01 au


