|===============================================================================
|
|  DFTB+ release 20.1
|
|  Copyright (C) 2006 - 2020  DFTB+ developers group
|
|===============================================================================
|
|  When publishing results obtained with DFTB+, please cite the following
|  reference:
|
|  * DFTB+, a software package for efficient approximate density functional
|    theory based atomistic simulations, J. Chem. Phys. 152, 124101 (2020).
|    [doi: 10.1063/1.5143190]
|
|  You should also cite additional publications crediting the parametrization
|  data you use. Please consult the documentation of the SK-files for the
|  references.
|
|===============================================================================

Reading input file 'dftb_in.hsd'
Parser version: 8

--------------------------------------------------------------------------------
Reading SK-files:
Done.


Processed input in HSD format written to 'dftb_pin.hsd'

Starting initialization...
--------------------------------------------------------------------------------
WARNING!
-> Excited state forces are not implemented yet for fractional occupations, kT=  0.3158E-02K
OpenMP threads:              1
Chosen random seed:          508098380
Mode:                        Static calculation
Self consistent charges:     Yes
SCC-tolerance:                 0.100000E-05
Max. scc iterations:                    100
Shell resolved Hubbard:      No
Spin polarisation:           No
Nr. of up electrons:             6.000000
Nr. of down electrons:           6.000000
Periodic boundaries:         No
Electronic solver:           Relatively robust
Mixer:                       Broyden mixer
Mixing parameter:                  0.200000
Maximal SCC-cycles:                     100
Nr. of chrg. vec. in memory:              0
Electronic temperature:        0.100000E-07 H      0.272114E-06 eV
Initial charges:             Set automatically (system chrg:   0.100E+01)
Included shells:             C:  s, p
                             N:  s, p
                             H:  s
Extra options:
                             Mulliken analysis
                             Force calculation
Force type                   original
                             Eigenvector printing

--------------------------------------------------------------------------------

***  Geometry step: 0

 iSCC Total electronic   Diff electronic      SCC error    
    1   -0.54168598E+01    0.00000000E+00    0.78251752E+00
    2   -0.54216283E+01   -0.47685780E-02    0.54341564E+00
    3   -0.54253814E+01   -0.37530524E-02    0.66660684E-01
    4   -0.54254838E+01   -0.10237464E-03    0.70035327E-01
    5   -0.54256582E+01   -0.17442583E-03    0.12848714E-01
    6   -0.54256605E+01   -0.23119162E-05    0.33171444E-02
    7   -0.54256607E+01   -0.18255621E-06    0.10499406E-03
    8   -0.54256607E+01   -0.29203662E-09    0.62894497E-04
    9   -0.54256607E+01   -0.12779466E-09    0.11590266E-05
   10   -0.54256607E+01   -0.32862602E-13    0.81205485E-06
>> Charges saved for restart in charges.bin

Total Energy:                       -5.0963170429 H         -138.6778 eV
Extrapolated to 0:                  -5.1997112483 H         -141.4913 eV
Total Mermin free energy:           -5.0963170429 H         -138.6778 eV
Force related energy:               -5.1997112483 H         -141.4913 eV

--------------------------------------------------------------------------------
DFTB+ running times                          cpu [s]             wall clock [s]
--------------------------------------------------------------------------------
SCC                                    +     0.01  ( 45.3%)      0.03  ( 58.2%)
Post-SCC processing                    +     0.01  ( 48.7%)      0.02  ( 32.7%)
--------------------------------------------------------------------------------
Missing                                +     0.00  (  6.0%)      0.00  (  9.1%)
Total                                  =     0.02  (100.0%)      0.05  (100.0%)
--------------------------------------------------------------------------------
