|===============================================================================
|
|  DFTB+ release 20.1
|
|  Copyright (C) 2006 - 2020  DFTB+ developers group
|
|===============================================================================
|
|  When publishing results obtained with DFTB+, please cite the following
|  reference:
|
|  * DFTB+, a software package for efficient approximate density functional
|    theory based atomistic simulations, J. Chem. Phys. 152, 124101 (2020).
|    [doi: 10.1063/1.5143190]
|
|  You should also cite additional publications crediting the parametrization
|  data you use. Please consult the documentation of the SK-files for the
|  references.
|
|===============================================================================

Reading input file 'dftb_in.hsd'
Parser version: 8

--------------------------------------------------------------------------------
Reading SK-files:
Done.


Processed input in HSD format written to 'dftb_pin.hsd'

Starting initialization...
--------------------------------------------------------------------------------
OpenMP threads:              1
Chosen random seed:          452102683
Mode:                        Static calculation
Self consistent charges:     Yes
SCC-tolerance:                 0.100000E-05
Max. scc iterations:                   1000
Shell resolved Hubbard:      No
Spin polarisation:           No
Nr. of up electrons:             6.000000
Nr. of down electrons:           6.000000
Periodic boundaries:         No
Electronic solver:           Relatively robust
Maximal SCC-cycles:                    1000
Initial charges:             Set automatically (system chrg:   0.100E+01)
Included shells:             C:  s, p
                             N:  s, p
                             H:  s
Spin coupling constants:     C   1(s)-1(s):  -0.455900E-01
                             C   1(s)-2(p):  -0.293000E-01
                             C   2(p)-1(s):  -0.293000E-01
                             C   2(p)-2(p):  -0.275500E-01
                             N   1(s)-1(s):  -0.468700E-01
                             N   1(s)-2(p):  -0.317000E-01
                             N   2(p)-1(s):  -0.317000E-01
                             N   2(p)-2(p):  -0.307200E-01
                             H   1(s)-1(s):  -0.792500E-01
Range separated hybrid:      Yes
  Screening parameter omega:   0.300000E+00
  Range separated algorithm:   MatrixBased
Extra options:
                             Mulliken analysis
                             Force calculation
Force type                   original
                             Eigenvector printing


REKS Calcuation:             Yes
SSR(2,2) Calcuation:         Yes
Energy Functional:           (PPS+OSS)/2
Number of Core Orbitals:                  5
Number of Active Orbitals:                2
Number of Basis:                         12
Number of States:                         2
State-Averaging Weight:          0.500000
                                 0.500000
State of Interest:                        1
Initial Guess:               Diagonalize H0 matrix
Newton-Raphson for FON opt:  Yes
NR max. Iterations:                      50
Level Shifting:              Yes
Shift Value:                     0.300000
W Scale Factor:              C  =    3.200000
                             N  =    3.200000
                             H  =    3.200000
Transition Dipole:           No
Gradient of Microstate:      No
CP-REKS Solver:              Preconditioned Conjugate-Gradient
CG max. Iterations:                     100
CG Tolerance:                  0.100000E-07
Memory for A and Hxc:        Direct Updating Without Saving
Non-Adiabatic Coupling:      Yes

--------------------------------------------------------------------------------

***  Geometry step: 0

  iSCC       reks energy        Diff energy         x_a       SCC error   
    1       -6.0255249936       0.0000000000     0.501543    0.94152907
    2       -6.0308850357      -0.0053600420     0.502522    0.03890606
    3       -6.0328814201      -0.0019963845     0.503206    0.02045972
    4       -6.0338482887      -0.0009668685     0.503730    0.01237024
    5       -6.0344581306      -0.0006098419     0.504168    0.01127103
    6       -6.0349171129      -0.0004589823     0.504553    0.01024889
    7       -6.0352929737      -0.0003758608     0.504898    0.00928599
    8       -6.0356106355      -0.0003176618     0.505206    0.00837464
    9       -6.0358813475      -0.0002707120     0.505478    0.00751286
   10       -6.0361118533      -0.0002305058     0.505715    0.00670150
   11       -6.0363073174      -0.0001954640     0.505918    0.00594251
   12       -6.0364722411      -0.0001649238     0.506087    0.00523784
   13       -6.0366107223      -0.0001384811     0.506226    0.00458882
   14       -6.0367265044      -0.0001157821     0.506336    0.00425695
   15       -6.0368229707      -0.0000964663     0.506422    0.00401692
   16       -6.0369031330      -0.0000801623     0.506485    0.00377594
   17       -6.0369696312      -0.0000664982     0.506530    0.00353813
   18       -6.0370247469      -0.0000551156     0.506560    0.00330662
   19       -6.0370704267      -0.0000456799     0.506576    0.00308375
   20       -6.0371083144      -0.0000378877     0.506582    0.00287109
   21       -6.0371397851      -0.0000314706     0.506580    0.00266966
   22       -6.0371659810      -0.0000261959     0.506572    0.00247998
   23       -6.0371878461      -0.0000218652     0.506558    0.00230220
   24       -6.0372061577      -0.0000183116     0.506540    0.00213622
   25       -6.0372215546      -0.0000153969     0.506520    0.00198172
   26       -6.0372345624      -0.0000130078     0.506496    0.00183825
   27       -6.0372456147      -0.0000110523     0.506471    0.00170531
   28       -6.0372550718      -0.0000094571     0.506444    0.00158231
   29       -6.0372632362      -0.0000081644     0.506414    0.00146870
   30       -6.0372703666      -0.0000071304     0.506382    0.00136393
   31       -6.0372766893      -0.0000063227     0.506347    0.00126747
   32       -6.0372824096      -0.0000057203     0.506307    0.00117887
   33       -6.0372877213      -0.0000053117     0.506261    0.00109776
   34       -6.0372928169      -0.0000050956     0.506207    0.00102382
   35       -6.0372978971      -0.0000050803     0.506143    0.00095689
   36       -6.0373031810      -0.0000052839     0.506065    0.00089692
   37       -6.0373089152      -0.0000057342     0.505970    0.00084402
   38       -6.0373153821      -0.0000064669     0.505850    0.00079854
   39       -6.0373229034      -0.0000075213     0.505700    0.00076105
   40       -6.0373318352      -0.0000089318     0.505509    0.00073242
   41       -6.0373425451      -0.0000107100     0.505268    0.00078276
   42       -6.0373553609      -0.0000128158     0.504964    0.00086405
   43       -6.0373704737      -0.0000151128     0.504582    0.00096135
   44       -6.0373877865      -0.0000173128     0.504110    0.00106615
   45       -6.0374067143      -0.0000189278     0.503534    0.00116223
   46       -6.0374259896      -0.0000192753     0.502852    0.00122478
   47       -6.0374436063      -0.0000176167     0.502073    0.00122326
   48       -6.0374571158      -0.0000135095     0.501228    0.00113079
   49       -6.0374645742      -0.0000074584     0.500399    0.00098153
   50       -6.0374675974      -0.0000030232     0.500400    0.00096182
   51       -6.0374701769      -0.0000025795     0.500402    0.00088370
   52       -6.0374723915      -0.0000022146     0.500404    0.00081412
   53       -6.0374743024      -0.0000019109     0.500405    0.00075133
   54       -6.0374759584      -0.0000016560     0.500406    0.00069427
   55       -6.0374773988      -0.0000014404     0.500408    0.00064220
   56       -6.0374786558      -0.0000012569     0.500409    0.00059457
   57       -6.0374797557      -0.0000010999     0.500409    0.00055092
   58       -6.0374807206      -0.0000009649     0.500410    0.00051087
   59       -6.0374815689      -0.0000008483     0.500411    0.00047409
   60       -6.0374823163      -0.0000007473     0.500411    0.00044027
   61       -6.0374829758      -0.0000006595     0.500412    0.00040914
   62       -6.0374835588      -0.0000005830     0.500412    0.00038047
   63       -6.0374840749      -0.0000005161     0.500412    0.00035403
   64       -6.0374845325      -0.0000004575     0.500412    0.00032962
   65       -6.0374849386      -0.0000004061     0.500412    0.00030708
   66       -6.0374852996      -0.0000003610     0.500412    0.00028623
   67       -6.0374856208      -0.0000003212     0.500412    0.00026694
   68       -6.0374859069      -0.0000002861     0.500412    0.00024907
   69       -6.0374861620      -0.0000002552     0.500412    0.00023250
   70       -6.0374863898      -0.0000002278     0.500412    0.00021714
   71       -6.0374865934      -0.0000002036     0.500411    0.00020287
   72       -6.0374867755      -0.0000001821     0.500411    0.00018962
   73       -6.0374869386      -0.0000001631     0.500411    0.00017731
   74       -6.0374870849      -0.0000001462     0.500410    0.00016585
   75       -6.0374872161      -0.0000001312     0.500410    0.00015520
   76       -6.0374873340      -0.0000001179     0.500410    0.00014527
   77       -6.0374874401      -0.0000001061     0.500409    0.00013603
   78       -6.0374875356      -0.0000000955     0.500409    0.00012741
   79       -6.0374876217      -0.0000000861     0.500408    0.00011938
   80       -6.0374876993      -0.0000000777     0.500408    0.00011188
   81       -6.0374877695      -0.0000000702     0.500407    0.00010489
   82       -6.0374878330      -0.0000000635     0.500407    0.00009836
   83       -6.0374878905      -0.0000000575     0.500406    0.00009226
   84       -6.0374879427      -0.0000000522     0.500406    0.00008657
   85       -6.0374879900      -0.0000000474     0.500405    0.00008125
   86       -6.0374880331      -0.0000000431     0.500405    0.00007627
   87       -6.0374880723      -0.0000000392     0.500404    0.00007162
   88       -6.0374881081      -0.0000000358     0.500403    0.00006727
   89       -6.0374881408      -0.0000000327     0.500403    0.00006319
   90       -6.0374881707      -0.0000000299     0.500402    0.00005938
   91       -6.0374881981      -0.0000000274     0.500402    0.00005679
   92       -6.0374882232      -0.0000000252     0.500401    0.00005501
   93       -6.0374882464      -0.0000000231     0.500400    0.00005327
   94       -6.0374882677      -0.0000000213     0.500400    0.00005156
   95       -6.0374882874      -0.0000000197     0.500399    0.00004988
   96       -6.0374883056      -0.0000000182     0.500399    0.00004825
   97       -6.0374883225      -0.0000000169     0.500398    0.00004666
   98       -6.0374883381      -0.0000000157     0.500397    0.00004510
   99       -6.0374883527      -0.0000000146     0.500397    0.00004359
  100       -6.0374883664      -0.0000000136     0.500396    0.00004212
  101       -6.0374883791      -0.0000000127     0.500395    0.00004069
  102       -6.0374883910      -0.0000000119     0.500395    0.00003930
  103       -6.0374884023      -0.0000000112     0.500394    0.00003795
  104       -6.0374884128      -0.0000000106     0.500393    0.00003664
  105       -6.0374884228      -0.0000000100     0.500393    0.00003538
  106       -6.0374884322      -0.0000000094     0.500392    0.00003415
  107       -6.0374884412      -0.0000000090     0.500392    0.00003297
  108       -6.0374884497      -0.0000000085     0.500391    0.00003182
  109       -6.0374884579      -0.0000000081     0.500390    0.00003071
  110       -6.0374884656      -0.0000000078     0.500390    0.00002964
  111       -6.0374884731      -0.0000000074     0.500389    0.00002861
  112       -6.0374884802      -0.0000000071     0.500388    0.00002761
  113       -6.0374884871      -0.0000000069     0.500388    0.00002665
  114       -6.0374884937      -0.0000000066     0.500387    0.00002572
  115       -6.0374885001      -0.0000000064     0.500386    0.00002483
  116       -6.0374885063      -0.0000000062     0.500386    0.00002396
  117       -6.0374885123      -0.0000000060     0.500385    0.00002313
  118       -6.0374885181      -0.0000000058     0.500384    0.00002233
  119       -6.0374885238      -0.0000000057     0.500384    0.00002156
  120       -6.0374885294      -0.0000000056     0.500383    0.00002082
  121       -6.0374885348      -0.0000000054     0.500382    0.00002011
  122       -6.0374885401      -0.0000000053     0.500382    0.00001943
  123       -6.0374885453      -0.0000000052     0.500381    0.00001877
  124       -6.0374885504      -0.0000000051     0.500380    0.00001814
  125       -6.0374885554      -0.0000000050     0.500380    0.00001753
  126       -6.0374885604      -0.0000000049     0.500379    0.00001694
  127       -6.0374885652      -0.0000000049     0.500378    0.00001638
  128       -6.0374885700      -0.0000000048     0.500378    0.00001584
  129       -6.0374885747      -0.0000000047     0.500377    0.00001532
  130       -6.0374885794      -0.0000000047     0.500376    0.00001483
  131       -6.0374885840      -0.0000000046     0.500376    0.00001435
  132       -6.0374885886      -0.0000000046     0.500375    0.00001389
  133       -6.0374885931      -0.0000000045     0.500374    0.00001345
  134       -6.0374885976      -0.0000000045     0.500374    0.00001303
  135       -6.0374886020      -0.0000000044     0.500373    0.00001262
  136       -6.0374886064      -0.0000000044     0.500372    0.00001224
  137       -6.0374886108      -0.0000000044     0.500372    0.00001186
  138       -6.0374886151      -0.0000000043     0.500371    0.00001151
  139       -6.0374886194      -0.0000000043     0.500370    0.00001116
  140       -6.0374886237      -0.0000000043     0.500370    0.00001084
  141       -6.0374886279      -0.0000000043     0.500369    0.00001052
  142       -6.0374886322      -0.0000000042     0.500368    0.00001022
  143       -6.0374886364      -0.0000000042     0.500368    0.00000993
  144       -6.0374886406      -0.0000000042     0.500367    0.00000965
  145       -6.0374886447      -0.0000000042     0.500367    0.00000939
  146       -6.0374886489      -0.0000000041     0.500366    0.00000913
  147       -6.0374886530      -0.0000000041     0.500365    0.00000889
  148       -6.0374886571      -0.0000000041     0.500365    0.00000866
  149       -6.0374886612      -0.0000000041     0.500364    0.00000843
  150       -6.0374886653      -0.0000000041     0.500363    0.00000822
  151       -6.0374886694      -0.0000000041     0.500363    0.00000802
  152       -6.0374886734      -0.0000000041     0.500362    0.00000782
  153       -6.0374886775      -0.0000000040     0.500361    0.00000763
  154       -6.0374886815      -0.0000000040     0.500361    0.00000745
  155       -6.0374886855      -0.0000000040     0.500360    0.00000728
  156       -6.0374886895      -0.0000000040     0.500359    0.00000711
  157       -6.0374886935      -0.0000000040     0.500359    0.00000696
  158       -6.0374886975      -0.0000000040     0.500358    0.00000680
  159       -6.0374887015      -0.0000000040     0.500357    0.00000666
  160       -6.0374887054      -0.0000000040     0.500357    0.00000652
  161       -6.0374887094      -0.0000000040     0.500356    0.00000639
  162       -6.0374887133      -0.0000000039     0.500355    0.00000626
  163       -6.0374887173      -0.0000000039     0.500355    0.00000614
  164       -6.0374887212      -0.0000000039     0.500354    0.00000602
  165       -6.0374887251      -0.0000000039     0.500353    0.00000591
  166       -6.0374887290      -0.0000000039     0.500353    0.00000580
  167       -6.0374887329      -0.0000000039     0.500352    0.00000570
  168       -6.0374887368      -0.0000000039     0.500351    0.00000560
  169       -6.0374887407      -0.0000000039     0.500351    0.00000551
  170       -6.0374887446      -0.0000000039     0.500350    0.00000542
  171       -6.0374887484      -0.0000000039     0.500349    0.00000533
  172       -6.0374887523      -0.0000000039     0.500349    0.00000525
  173       -6.0374887561      -0.0000000038     0.500348    0.00000517
  174       -6.0374887600      -0.0000000038     0.500348    0.00000510
  175       -6.0374887638      -0.0000000038     0.500347    0.00000503
  176       -6.0374887676      -0.0000000038     0.500346    0.00000496
  177       -6.0374887714      -0.0000000038     0.500346    0.00000489
  178       -6.0374887753      -0.0000000038     0.500345    0.00000483
  179       -6.0374887791      -0.0000000038     0.500344    0.00000477
  180       -6.0374887829      -0.0000000038     0.500344    0.00000471
  181       -6.0374887866      -0.0000000038     0.500343    0.00000465
  182       -6.0374887904      -0.0000000038     0.500342    0.00000460
  183       -6.0374887942      -0.0000000038     0.500342    0.00000455
  184       -6.0374887980      -0.0000000038     0.500341    0.00000450
  185       -6.0374888017      -0.0000000038     0.500340    0.00000445
  186       -6.0374888055      -0.0000000038     0.500340    0.00000441
  187       -6.0374888092      -0.0000000037     0.500339    0.00000436
  188       -6.0374888129      -0.0000000037     0.500339    0.00000432
  189       -6.0374888167      -0.0000000037     0.500338    0.00000428
  190       -6.0374888204      -0.0000000037     0.500337    0.00000425
  191       -6.0374888241      -0.0000000037     0.500337    0.00000421
  192       -6.0374888278      -0.0000000037     0.500336    0.00000417
  193       -6.0374888315      -0.0000000037     0.500335    0.00000414
  194       -6.0374888352      -0.0000000037     0.500335    0.00000411
  195       -6.0374888389      -0.0000000037     0.500334    0.00000408
  196       -6.0374888426      -0.0000000037     0.500333    0.00000405
  197       -6.0374888463      -0.0000000037     0.500333    0.00000402
  198       -6.0374888499      -0.0000000037     0.500332    0.00000399
  199       -6.0374888536      -0.0000000037     0.500332    0.00000397
  200       -6.0374888572      -0.0000000037     0.500331    0.00000394
  201       -6.0374888609      -0.0000000036     0.500330    0.00000392
  202       -6.0374888645      -0.0000000036     0.500330    0.00000389
  203       -6.0374888682      -0.0000000036     0.500329    0.00000387
  204       -6.0374888718      -0.0000000036     0.500328    0.00000385
  205       -6.0374888754      -0.0000000036     0.500328    0.00000383
  206       -6.0374888790      -0.0000000036     0.500327    0.00000381
  207       -6.0374888826      -0.0000000036     0.500326    0.00000379
  208       -6.0374888862      -0.0000000036     0.500326    0.00000377
  209       -6.0374888898      -0.0000000036     0.500325    0.00000375
  210       -6.0374888934      -0.0000000036     0.500325    0.00000374
  211       -6.0374888970      -0.0000000036     0.500324    0.00000372
  212       -6.0374889005      -0.0000000036     0.500323    0.00000371
  213       -6.0374889041      -0.0000000036     0.500323    0.00000369
  214       -6.0374889077      -0.0000000036     0.500322    0.00000368
  215       -6.0374889112      -0.0000000036     0.500321    0.00000366
  216       -6.0374889148      -0.0000000035     0.500321    0.00000365
  217       -6.0374889183      -0.0000000035     0.500320    0.00000364
  218       -6.0374889218      -0.0000000035     0.500320    0.00000362
  219       -6.0374889254      -0.0000000035     0.500319    0.00000361
  220       -6.0374889289      -0.0000000035     0.500318    0.00000360
  221       -6.0374889324      -0.0000000035     0.500318    0.00000359
  222       -6.0374889359      -0.0000000035     0.500317    0.00000358
  223       -6.0374889394      -0.0000000035     0.500316    0.00000357
  224       -6.0374889429      -0.0000000035     0.500316    0.00000355
  225       -6.0374889464      -0.0000000035     0.500315    0.00000354
  226       -6.0374889499      -0.0000000035     0.500315    0.00000354
  227       -6.0374889533      -0.0000000035     0.500314    0.00000353
  228       -6.0374889568      -0.0000000035     0.500313    0.00000352
  229       -6.0374889603      -0.0000000035     0.500313    0.00000351
  230       -6.0374889637      -0.0000000035     0.500312    0.00000350
  231       -6.0374889672      -0.0000000034     0.500312    0.00000349
  232       -6.0374889706      -0.0000000034     0.500311    0.00000348
  233       -6.0374889740      -0.0000000034     0.500310    0.00000348
  234       -6.0374889775      -0.0000000034     0.500310    0.00000347
  235       -6.0374889809      -0.0000000034     0.500309    0.00000346
  236       -6.0374889843      -0.0000000034     0.500308    0.00000345
  237       -6.0374889877      -0.0000000034     0.500308    0.00000345
  238       -6.0374889911      -0.0000000034     0.500307    0.00000344
  239       -6.0374889945      -0.0000000034     0.500307    0.00000343
  240       -6.0374889979      -0.0000000034     0.500306    0.00000343
  241       -6.0374890013      -0.0000000034     0.500305    0.00000342
  242       -6.0374890047      -0.0000000034     0.500305    0.00000341
  243       -6.0374890080      -0.0000000034     0.500304    0.00000341
  244       -6.0374890114      -0.0000000034     0.500304    0.00000340
  245       -6.0374890148      -0.0000000034     0.500303    0.00000340
  246       -6.0374890181      -0.0000000034     0.500302    0.00000339
  247       -6.0374890215      -0.0000000033     0.500302    0.00000339
  248       -6.0374890248      -0.0000000033     0.500301    0.00000338
  249       -6.0374890281      -0.0000000033     0.500301    0.00000337
  250       -6.0374890315      -0.0000000033     0.500300    0.00000337
  251       -6.0374890348      -0.0000000033     0.500299    0.00000336
  252       -6.0374890381      -0.0000000033     0.500299    0.00000336
  253       -6.0374890414      -0.0000000033     0.500298    0.00000335
  254       -6.0374890447      -0.0000000033     0.500298    0.00000335
  255       -6.0374890480      -0.0000000033     0.500297    0.00000335
  256       -6.0374890513      -0.0000000033     0.500296    0.00000334
  257       -6.0374890546      -0.0000000033     0.500296    0.00000334
  258       -6.0374890579      -0.0000000033     0.500295    0.00000333
  259       -6.0374890612      -0.0000000033     0.500295    0.00000333
  260       -6.0374890644      -0.0000000033     0.500294    0.00000332
  261       -6.0374890677      -0.0000000033     0.500293    0.00000332
  262       -6.0374890709      -0.0000000033     0.500293    0.00000331
  263       -6.0374890742      -0.0000000032     0.500292    0.00000331
  264       -6.0374890774      -0.0000000032     0.500292    0.00000331
  265       -6.0374890807      -0.0000000032     0.500291    0.00000330
  266       -6.0374890839      -0.0000000032     0.500290    0.00000330
  267       -6.0374890871      -0.0000000032     0.500290    0.00000329
  268       -6.0374890903      -0.0000000032     0.500289    0.00000329
  269       -6.0374890936      -0.0000000032     0.500289    0.00000329
  270       -6.0374890968      -0.0000000032     0.500288    0.00000328
  271       -6.0374891000      -0.0000000032     0.500287    0.00000328
  272       -6.0374891032      -0.0000000032     0.500287    0.00000328
  273       -6.0374891063      -0.0000000032     0.500286    0.00000327
  274       -6.0374891095      -0.0000000032     0.500286    0.00000327
  275       -6.0374891127      -0.0000000032     0.500285    0.00000326
  276       -6.0374891159      -0.0000000032     0.500284    0.00000326
  277       -6.0374891190      -0.0000000032     0.500284    0.00000326
  278       -6.0374891222      -0.0000000032     0.500283    0.00000325
  279       -6.0374891254      -0.0000000032     0.500283    0.00000325
  280       -6.0374891285      -0.0000000031     0.500282    0.00000325
  281       -6.0374891317      -0.0000000031     0.500281    0.00000324
  282       -6.0374891348      -0.0000000031     0.500281    0.00000324
  283       -6.0374891379      -0.0000000031     0.500280    0.00000324
  284       -6.0374891410      -0.0000000031     0.500280    0.00000323
  285       -6.0374891442      -0.0000000031     0.500279    0.00000323
  286       -6.0374891473      -0.0000000031     0.500279    0.00000323
  287       -6.0374891504      -0.0000000031     0.500278    0.00000322
  288       -6.0374891535      -0.0000000031     0.500277    0.00000322
  289       -6.0374891566      -0.0000000031     0.500277    0.00000322
  290       -6.0374891597      -0.0000000031     0.500276    0.00000321
  291       -6.0374891628      -0.0000000031     0.500276    0.00000321
  292       -6.0374891658      -0.0000000031     0.500275    0.00000321
  293       -6.0374891689      -0.0000000031     0.500274    0.00000320
  294       -6.0374891720      -0.0000000031     0.500274    0.00000320
  295       -6.0374891750      -0.0000000031     0.500273    0.00000320
  296       -6.0374891781      -0.0000000031     0.500273    0.00000319
  297       -6.0374891811      -0.0000000031     0.500272    0.00000319
  298       -6.0374891842      -0.0000000030     0.500272    0.00000319
  299       -6.0374891872      -0.0000000030     0.500271    0.00000319
  300       -6.0374891903      -0.0000000030     0.500270    0.00000318
  301       -6.0374891933      -0.0000000030     0.500270    0.00000318
  302       -6.0374891963      -0.0000000030     0.500269    0.00000318
  303       -6.0374891993      -0.0000000030     0.500269    0.00000317
  304       -6.0374892023      -0.0000000030     0.500268    0.00000317
  305       -6.0374892053      -0.0000000030     0.500268    0.00000317
  306       -6.0374892083      -0.0000000030     0.500267    0.00000316
  307       -6.0374892113      -0.0000000030     0.500266    0.00000316
  308       -6.0374892143      -0.0000000030     0.500266    0.00000316
  309       -6.0374892173      -0.0000000030     0.500265    0.00000315
  310       -6.0374892203      -0.0000000030     0.500265    0.00000315
  311       -6.0374892233      -0.0000000030     0.500264    0.00000315
  312       -6.0374892262      -0.0000000030     0.500264    0.00000315
  313       -6.0374892292      -0.0000000030     0.500263    0.00000314
  314       -6.0374892321      -0.0000000030     0.500262    0.00000314
  315       -6.0374892351      -0.0000000029     0.500262    0.00000314
  316       -6.0374892380      -0.0000000029     0.500261    0.00000313
  317       -6.0374892410      -0.0000000029     0.500261    0.00000313
  318       -6.0374892439      -0.0000000029     0.500260    0.00000313
  319       -6.0374892468      -0.0000000029     0.500260    0.00000313
  320       -6.0374892498      -0.0000000029     0.500259    0.00000312
  321       -6.0374892527      -0.0000000029     0.500258    0.00000312
  322       -6.0374892556      -0.0000000029     0.500258    0.00000312
  323       -6.0374892585      -0.0000000029     0.500257    0.00000311
  324       -6.0374892614      -0.0000000029     0.500257    0.00000311
  325       -6.0374892643      -0.0000000029     0.500256    0.00000311
  326       -6.0374892672      -0.0000000029     0.500256    0.00000311
  327       -6.0374892701      -0.0000000029     0.500255    0.00000310
  328       -6.0374892729      -0.0000000029     0.500254    0.00000310
  329       -6.0374892758      -0.0000000029     0.500254    0.00000310
  330       -6.0374892787      -0.0000000029     0.500253    0.00000309
  331       -6.0374892815      -0.0000000029     0.500253    0.00000309
  332       -6.0374892844      -0.0000000029     0.500252    0.00000309
  333       -6.0374892873      -0.0000000029     0.500252    0.00000309
  334       -6.0374892901      -0.0000000028     0.500251    0.00000308
  335       -6.0374892929      -0.0000000028     0.500251    0.00000308
  336       -6.0374892958      -0.0000000028     0.500250    0.00000308
  337       -6.0374892986      -0.0000000028     0.500249    0.00000307
  338       -6.0374893014      -0.0000000028     0.500249    0.00000307
  339       -6.0374893043      -0.0000000028     0.500248    0.00000307
  340       -6.0374893071      -0.0000000028     0.500248    0.00000307
  341       -6.0374893099      -0.0000000028     0.500247    0.00000306
  342       -6.0374893127      -0.0000000028     0.500247    0.00000306
  343       -6.0374893155      -0.0000000028     0.500246    0.00000306
  344       -6.0374893183      -0.0000000028     0.500246    0.00000305
  345       -6.0374893211      -0.0000000028     0.500245    0.00000305
  346       -6.0374893239      -0.0000000028     0.500244    0.00000305
  347       -6.0374893266      -0.0000000028     0.500244    0.00000305
  348       -6.0374893294      -0.0000000028     0.500243    0.00000304
  349       -6.0374893322      -0.0000000028     0.500243    0.00000304
  350       -6.0374893349      -0.0000000028     0.500242    0.00000304
  351       -6.0374893377      -0.0000000028     0.500242    0.00000304
  352       -6.0374893405      -0.0000000028     0.500241    0.00000303
  353       -6.0374893432      -0.0000000027     0.500241    0.00000303
  354       -6.0374893459      -0.0000000027     0.500240    0.00000303
  355       -6.0374893487      -0.0000000027     0.500239    0.00000302
  356       -6.0374893514      -0.0000000027     0.500239    0.00000302
  357       -6.0374893541      -0.0000000027     0.500238    0.00000302
  358       -6.0374893569      -0.0000000027     0.500238    0.00000302
  359       -6.0374893596      -0.0000000027     0.500237    0.00000301
  360       -6.0374893623      -0.0000000027     0.500237    0.00000301
  361       -6.0374893650      -0.0000000027     0.500236    0.00000301
  362       -6.0374893677      -0.0000000027     0.500236    0.00000301
  363       -6.0374893704      -0.0000000027     0.500235    0.00000300
  364       -6.0374893731      -0.0000000027     0.500235    0.00000300
  365       -6.0374893758      -0.0000000027     0.500234    0.00000300
  366       -6.0374893785      -0.0000000027     0.500233    0.00000299
  367       -6.0374893811      -0.0000000027     0.500233    0.00000299
  368       -6.0374893838      -0.0000000027     0.500232    0.00000299
  369       -6.0374893865      -0.0000000027     0.500232    0.00000299
  370       -6.0374893891      -0.0000000027     0.500231    0.00000298
  371       -6.0374893918      -0.0000000027     0.500231    0.00000298
  372       -6.0374893945      -0.0000000027     0.500230    0.00000298
  373       -6.0374893971      -0.0000000026     0.500230    0.00000298
  374       -6.0374893998      -0.0000000026     0.500229    0.00000297
  375       -6.0374894024      -0.0000000026     0.500229    0.00000297
  376       -6.0374894050      -0.0000000026     0.500228    0.00000297
  377       -6.0374894077      -0.0000000026     0.500227    0.00000296
  378       -6.0374894103      -0.0000000026     0.500227    0.00000296
  379       -6.0374894129      -0.0000000026     0.500226    0.00000296
  380       -6.0374894155      -0.0000000026     0.500226    0.00000296
  381       -6.0374894181      -0.0000000026     0.500225    0.00000295
  382       -6.0374894207      -0.0000000026     0.500225    0.00000295
  383       -6.0374894233      -0.0000000026     0.500224    0.00000295
  384       -6.0374894259      -0.0000000026     0.500224    0.00000295
  385       -6.0374894285      -0.0000000026     0.500223    0.00000294
  386       -6.0374894311      -0.0000000026     0.500223    0.00000294
  387       -6.0374894337      -0.0000000026     0.500222    0.00000294
  388       -6.0374894362      -0.0000000026     0.500222    0.00000293
  389       -6.0374894388      -0.0000000026     0.500221    0.00000293
  390       -6.0374894414      -0.0000000026     0.500221    0.00000293
  391       -6.0374894439      -0.0000000026     0.500220    0.00000293
  392       -6.0374894465      -0.0000000026     0.500219    0.00000292
  393       -6.0374894490      -0.0000000026     0.500219    0.00000292
  394       -6.0374894516      -0.0000000025     0.500218    0.00000292
  395       -6.0374894541      -0.0000000025     0.500218    0.00000292
  396       -6.0374894567      -0.0000000025     0.500217    0.00000291
  397       -6.0374894592      -0.0000000025     0.500217    0.00000291
  398       -6.0374894617      -0.0000000025     0.500216    0.00000291
  399       -6.0374894643      -0.0000000025     0.500216    0.00000291
  400       -6.0374894668      -0.0000000025     0.500215    0.00000290
  401       -6.0374894693      -0.0000000025     0.500215    0.00000290
  402       -6.0374894718      -0.0000000025     0.500214    0.00000290
  403       -6.0374894743      -0.0000000025     0.500214    0.00000290
  404       -6.0374894768      -0.0000000025     0.500213    0.00000289
  405       -6.0374894793      -0.0000000025     0.500213    0.00000289
  406       -6.0374894818      -0.0000000025     0.500212    0.00000289
  407       -6.0374894843      -0.0000000025     0.500212    0.00000288
  408       -6.0374894867      -0.0000000025     0.500211    0.00000288
  409       -6.0374894892      -0.0000000025     0.500211    0.00000288
  410       -6.0374894917      -0.0000000025     0.500210    0.00000288
  411       -6.0374894942      -0.0000000025     0.500209    0.00000287
  412       -6.0374894966      -0.0000000025     0.500209    0.00000287
  413       -6.0374894991      -0.0000000025     0.500208    0.00000287
  414       -6.0374895015      -0.0000000025     0.500208    0.00000287
  415       -6.0374895040      -0.0000000024     0.500207    0.00000286
  416       -6.0374895064      -0.0000000024     0.500207    0.00000286
  417       -6.0374895089      -0.0000000024     0.500206    0.00000286
  418       -6.0374895113      -0.0000000024     0.500206    0.00000286
  419       -6.0374895137      -0.0000000024     0.500205    0.00000285
  420       -6.0374895162      -0.0000000024     0.500205    0.00000285
  421       -6.0374895186      -0.0000000024     0.500204    0.00000285
  422       -6.0374895210      -0.0000000024     0.500204    0.00000285
  423       -6.0374895234      -0.0000000024     0.500203    0.00000284
  424       -6.0374895258      -0.0000000024     0.500203    0.00000284
  425       -6.0374895282      -0.0000000024     0.500202    0.00000284
  426       -6.0374895306      -0.0000000024     0.500202    0.00000284
  427       -6.0374895330      -0.0000000024     0.500201    0.00000283
  428       -6.0374895354      -0.0000000024     0.500201    0.00000283
  429       -6.0374895378      -0.0000000024     0.500200    0.00000283
  430       -6.0374895402      -0.0000000024     0.500200    0.00000283
  431       -6.0374895425      -0.0000000024     0.500199    0.00000282
  432       -6.0374895449      -0.0000000024     0.500199    0.00000282
  433       -6.0374895473      -0.0000000024     0.500198    0.00000282
  434       -6.0374895496      -0.0000000024     0.500198    0.00000281
  435       -6.0374895520      -0.0000000024     0.500197    0.00000281
  436       -6.0374895544      -0.0000000024     0.500197    0.00000281
  437       -6.0374895567      -0.0000000024     0.500196    0.00000281
  438       -6.0374895591      -0.0000000023     0.500196    0.00000280
  439       -6.0374895614      -0.0000000023     0.500195    0.00000280
  440       -6.0374895637      -0.0000000023     0.500195    0.00000280
  441       -6.0374895661      -0.0000000023     0.500194    0.00000280
  442       -6.0374895684      -0.0000000023     0.500194    0.00000279
  443       -6.0374895707      -0.0000000023     0.500193    0.00000279
  444       -6.0374895730      -0.0000000023     0.500193    0.00000279
  445       -6.0374895754      -0.0000000023     0.500192    0.00000279
  446       -6.0374895777      -0.0000000023     0.500192    0.00000278
  447       -6.0374895800      -0.0000000023     0.500191    0.00000278
  448       -6.0374895823      -0.0000000023     0.500191    0.00000278
  449       -6.0374895846      -0.0000000023     0.500190    0.00000278
  450       -6.0374895869      -0.0000000023     0.500190    0.00000277
  451       -6.0374895892      -0.0000000023     0.500189    0.00000277
  452       -6.0374895914      -0.0000000023     0.500189    0.00000277
  453       -6.0374895937      -0.0000000023     0.500188    0.00000277
  454       -6.0374895960      -0.0000000023     0.500188    0.00000276
  455       -6.0374895983      -0.0000000023     0.500187    0.00000276
  456       -6.0374896005      -0.0000000023     0.500187    0.00000276
  457       -6.0374896028      -0.0000000023     0.500186    0.00000276
  458       -6.0374896051      -0.0000000023     0.500186    0.00000275
  459       -6.0374896073      -0.0000000023     0.500185    0.00000275
  460       -6.0374896096      -0.0000000023     0.500185    0.00000275
  461       -6.0374896118      -0.0000000022     0.500184    0.00000275
  462       -6.0374896141      -0.0000000022     0.500184    0.00000274
  463       -6.0374896163      -0.0000000022     0.500183    0.00000274
  464       -6.0374896185      -0.0000000022     0.500183    0.00000274
  465       -6.0374896208      -0.0000000022     0.500182    0.00000274
  466       -6.0374896230      -0.0000000022     0.500182    0.00000273
  467       -6.0374896252      -0.0000000022     0.500181    0.00000273
  468       -6.0374896274      -0.0000000022     0.500181    0.00000273
  469       -6.0374896296      -0.0000000022     0.500180    0.00000273
  470       -6.0374896319      -0.0000000022     0.500180    0.00000272
  471       -6.0374896341      -0.0000000022     0.500179    0.00000272
  472       -6.0374896363      -0.0000000022     0.500179    0.00000272
  473       -6.0374896385      -0.0000000022     0.500178    0.00000272
  474       -6.0374896407      -0.0000000022     0.500178    0.00000271
  475       -6.0374896428      -0.0000000022     0.500177    0.00000271
  476       -6.0374896450      -0.0000000022     0.500177    0.00000271
  477       -6.0374896472      -0.0000000022     0.500176    0.00000271
  478       -6.0374896494      -0.0000000022     0.500176    0.00000270
  479       -6.0374896516      -0.0000000022     0.500175    0.00000270
  480       -6.0374896537      -0.0000000022     0.500175    0.00000270
  481       -6.0374896559      -0.0000000022     0.500174    0.00000270
  482       -6.0374896581      -0.0000000022     0.500174    0.00000269
  483       -6.0374896602      -0.0000000022     0.500173    0.00000269
  484       -6.0374896624      -0.0000000022     0.500173    0.00000269
  485       -6.0374896645      -0.0000000021     0.500172    0.00000269
  486       -6.0374896667      -0.0000000021     0.500172    0.00000268
  487       -6.0374896688      -0.0000000021     0.500171    0.00000268
  488       -6.0374896709      -0.0000000021     0.500171    0.00000268
  489       -6.0374896731      -0.0000000021     0.500170    0.00000268
  490       -6.0374896752      -0.0000000021     0.500170    0.00000267
  491       -6.0374896773      -0.0000000021     0.500169    0.00000267
  492       -6.0374896794      -0.0000000021     0.500169    0.00000267
  493       -6.0374896816      -0.0000000021     0.500168    0.00000267
  494       -6.0374896837      -0.0000000021     0.500168    0.00000267
  495       -6.0374896858      -0.0000000021     0.500167    0.00000266
  496       -6.0374896879      -0.0000000021     0.500167    0.00000266
  497       -6.0374896900      -0.0000000021     0.500166    0.00000266
  498       -6.0374896921      -0.0000000021     0.500166    0.00000266
  499       -6.0374896942      -0.0000000021     0.500165    0.00000265
  500       -6.0374896963      -0.0000000021     0.500165    0.00000265
  501       -6.0374896984      -0.0000000021     0.500165    0.00000265
  502       -6.0374897004      -0.0000000021     0.500164    0.00000265
  503       -6.0374897025      -0.0000000021     0.500164    0.00000264
  504       -6.0374897046      -0.0000000021     0.500163    0.00000264
  505       -6.0374897067      -0.0000000021     0.500163    0.00000264
  506       -6.0374897087      -0.0000000021     0.500162    0.00000264
  507       -6.0374897108      -0.0000000021     0.500162    0.00000263
  508       -6.0374897128      -0.0000000021     0.500161    0.00000263
  509       -6.0374897149      -0.0000000021     0.500161    0.00000263
  510       -6.0374897170      -0.0000000021     0.500160    0.00000263
  511       -6.0374897190      -0.0000000020     0.500160    0.00000262
  512       -6.0374897210      -0.0000000020     0.500159    0.00000262
  513       -6.0374897231      -0.0000000020     0.500159    0.00000262
  514       -6.0374897251      -0.0000000020     0.500158    0.00000262
  515       -6.0374897272      -0.0000000020     0.500158    0.00000261
  516       -6.0374897292      -0.0000000020     0.500157    0.00000261
  517       -6.0374897312      -0.0000000020     0.500157    0.00000261
  518       -6.0374897332      -0.0000000020     0.500156    0.00000261
  519       -6.0374897352      -0.0000000020     0.500156    0.00000261
  520       -6.0374897373      -0.0000000020     0.500155    0.00000260
  521       -6.0374897393      -0.0000000020     0.500155    0.00000260
  522       -6.0374897413      -0.0000000020     0.500155    0.00000260
  523       -6.0374897433      -0.0000000020     0.500154    0.00000260
  524       -6.0374897453      -0.0000000020     0.500154    0.00000259
  525       -6.0374897473      -0.0000000020     0.500153    0.00000259
  526       -6.0374897493      -0.0000000020     0.500153    0.00000259
  527       -6.0374897512      -0.0000000020     0.500152    0.00000259
  528       -6.0374897532      -0.0000000020     0.500152    0.00000258
  529       -6.0374897552      -0.0000000020     0.500151    0.00000258
  530       -6.0374897572      -0.0000000020     0.500151    0.00000258
  531       -6.0374897592      -0.0000000020     0.500150    0.00000258
  532       -6.0374897611      -0.0000000020     0.500150    0.00000257
  533       -6.0374897631      -0.0000000020     0.500149    0.00000257
  534       -6.0374897650      -0.0000000020     0.500149    0.00000257
  535       -6.0374897670      -0.0000000020     0.500148    0.00000257
  536       -6.0374897690      -0.0000000020     0.500148    0.00000256
  537       -6.0374897709      -0.0000000020     0.500148    0.00000256
  538       -6.0374897729      -0.0000000019     0.500147    0.00000256
  539       -6.0374897748      -0.0000000019     0.500147    0.00000256
  540       -6.0374897767      -0.0000000019     0.500146    0.00000256
  541       -6.0374897787      -0.0000000019     0.500146    0.00000255
  542       -6.0374897806      -0.0000000019     0.500145    0.00000255
  543       -6.0374897825      -0.0000000019     0.500145    0.00000255
  544       -6.0374897845      -0.0000000019     0.500144    0.00000255
  545       -6.0374897864      -0.0000000019     0.500144    0.00000254
  546       -6.0374897883      -0.0000000019     0.500143    0.00000254
  547       -6.0374897902      -0.0000000019     0.500143    0.00000254
  548       -6.0374897921      -0.0000000019     0.500142    0.00000254
  549       -6.0374897940      -0.0000000019     0.500142    0.00000253
  550       -6.0374897959      -0.0000000019     0.500142    0.00000253
  551       -6.0374897978      -0.0000000019     0.500141    0.00000253
  552       -6.0374897997      -0.0000000019     0.500141    0.00000253
  553       -6.0374898016      -0.0000000019     0.500140    0.00000253
  554       -6.0374898035      -0.0000000019     0.500140    0.00000252
  555       -6.0374898054      -0.0000000019     0.500139    0.00000252
  556       -6.0374898073      -0.0000000019     0.500139    0.00000252
  557       -6.0374898092      -0.0000000019     0.500138    0.00000252
  558       -6.0374898110      -0.0000000019     0.500138    0.00000251
  559       -6.0374898129      -0.0000000019     0.500137    0.00000251
  560       -6.0374898148      -0.0000000019     0.500137    0.00000251
  561       -6.0374898166      -0.0000000019     0.500137    0.00000251
  562       -6.0374898185      -0.0000000019     0.500136    0.00000250
  563       -6.0374898204      -0.0000000019     0.500136    0.00000250
  564       -6.0374898222      -0.0000000019     0.500135    0.00000250
  565       -6.0374898241      -0.0000000019     0.500135    0.00000250
  566       -6.0374898259      -0.0000000018     0.500134    0.00000250
  567       -6.0374898277      -0.0000000018     0.500134    0.00000249
  568       -6.0374898296      -0.0000000018     0.500133    0.00000249
  569       -6.0374898314      -0.0000000018     0.500133    0.00000249
  570       -6.0374898333      -0.0000000018     0.500133    0.00000249
  571       -6.0374898351      -0.0000000018     0.500132    0.00000248
  572       -6.0374898369      -0.0000000018     0.500132    0.00000248
  573       -6.0374898387      -0.0000000018     0.500131    0.00000248
  574       -6.0374898406      -0.0000000018     0.500131    0.00000248
  575       -6.0374898424      -0.0000000018     0.500130    0.00000247
  576       -6.0374898442      -0.0000000018     0.500130    0.00000247
  577       -6.0374898460      -0.0000000018     0.500129    0.00000247
  578       -6.0374898478      -0.0000000018     0.500129    0.00000247
  579       -6.0374898496      -0.0000000018     0.500128    0.00000247
  580       -6.0374898514      -0.0000000018     0.500128    0.00000246
  581       -6.0374898532      -0.0000000018     0.500128    0.00000246
  582       -6.0374898550      -0.0000000018     0.500127    0.00000246
  583       -6.0374898568      -0.0000000018     0.500127    0.00000246
  584       -6.0374898586      -0.0000000018     0.500126    0.00000245
  585       -6.0374898604      -0.0000000018     0.500126    0.00000245
  586       -6.0374898621      -0.0000000018     0.500125    0.00000245
  587       -6.0374898639      -0.0000000018     0.500125    0.00000245
  588       -6.0374898657      -0.0000000018     0.500124    0.00000245
  589       -6.0374898674      -0.0000000018     0.500124    0.00000244
  590       -6.0374898692      -0.0000000018     0.500124    0.00000244
  591       -6.0374898710      -0.0000000018     0.500123    0.00000244
  592       -6.0374898727      -0.0000000018     0.500123    0.00000244
  593       -6.0374898745      -0.0000000018     0.500122    0.00000243
  594       -6.0374898762      -0.0000000018     0.500122    0.00000243
  595       -6.0374898780      -0.0000000017     0.500121    0.00000243
  596       -6.0374898797      -0.0000000017     0.500121    0.00000243
  597       -6.0374898815      -0.0000000017     0.500121    0.00000243
  598       -6.0374898832      -0.0000000017     0.500120    0.00000242
  599       -6.0374898850      -0.0000000017     0.500120    0.00000242
  600       -6.0374898867      -0.0000000017     0.500119    0.00000242
  601       -6.0374898884      -0.0000000017     0.500119    0.00000242
  602       -6.0374898902      -0.0000000017     0.500118    0.00000241
  603       -6.0374898919      -0.0000000017     0.500118    0.00000241
  604       -6.0374898936      -0.0000000017     0.500117    0.00000241
  605       -6.0374898953      -0.0000000017     0.500117    0.00000241
  606       -6.0374898970      -0.0000000017     0.500117    0.00000241
  607       -6.0374898987      -0.0000000017     0.500116    0.00000240
  608       -6.0374899004      -0.0000000017     0.500116    0.00000240
  609       -6.0374899022      -0.0000000017     0.500115    0.00000240
  610       -6.0374899039      -0.0000000017     0.500115    0.00000240
  611       -6.0374899056      -0.0000000017     0.500114    0.00000239
  612       -6.0374899072      -0.0000000017     0.500114    0.00000239
  613       -6.0374899089      -0.0000000017     0.500114    0.00000239
  614       -6.0374899106      -0.0000000017     0.500113    0.00000239
  615       -6.0374899123      -0.0000000017     0.500113    0.00000239
  616       -6.0374899140      -0.0000000017     0.500112    0.00000238
  617       -6.0374899157      -0.0000000017     0.500112    0.00000238
  618       -6.0374899174      -0.0000000017     0.500111    0.00000238
  619       -6.0374899190      -0.0000000017     0.500111    0.00000238
  620       -6.0374899207      -0.0000000017     0.500111    0.00000237
  621       -6.0374899224      -0.0000000017     0.500110    0.00000237
  622       -6.0374899240      -0.0000000017     0.500110    0.00000237
  623       -6.0374899257      -0.0000000017     0.500109    0.00000237
  624       -6.0374899273      -0.0000000017     0.500109    0.00000237
  625       -6.0374899290      -0.0000000017     0.500108    0.00000236
  626       -6.0374899306      -0.0000000017     0.500108    0.00000236
  627       -6.0374899323      -0.0000000016     0.500108    0.00000236
  628       -6.0374899339      -0.0000000016     0.500107    0.00000236
  629       -6.0374899356      -0.0000000016     0.500107    0.00000236
  630       -6.0374899372      -0.0000000016     0.500106    0.00000235
  631       -6.0374899389      -0.0000000016     0.500106    0.00000235
  632       -6.0374899405      -0.0000000016     0.500105    0.00000235
  633       -6.0374899421      -0.0000000016     0.500105    0.00000235
  634       -6.0374899437      -0.0000000016     0.500105    0.00000234
  635       -6.0374899454      -0.0000000016     0.500104    0.00000234
  636       -6.0374899470      -0.0000000016     0.500104    0.00000234
  637       -6.0374899486      -0.0000000016     0.500103    0.00000234
  638       -6.0374899502      -0.0000000016     0.500103    0.00000234
  639       -6.0374899518      -0.0000000016     0.500102    0.00000233
  640       -6.0374899534      -0.0000000016     0.500102    0.00000233
  641       -6.0374899551      -0.0000000016     0.500102    0.00000233
  642       -6.0374899567      -0.0000000016     0.500101    0.00000233
  643       -6.0374899583      -0.0000000016     0.500101    0.00000233
  644       -6.0374899598      -0.0000000016     0.500100    0.00000232
  645       -6.0374899614      -0.0000000016     0.500100    0.00000232
  646       -6.0374899630      -0.0000000016     0.500100    0.00000232
  647       -6.0374899646      -0.0000000016     0.500099    0.00000232
  648       -6.0374899662      -0.0000000016     0.500099    0.00000231
  649       -6.0374899678      -0.0000000016     0.500098    0.00000231
  650       -6.0374899694      -0.0000000016     0.500098    0.00000231
  651       -6.0374899709      -0.0000000016     0.500097    0.00000231
  652       -6.0374899725      -0.0000000016     0.500097    0.00000231
  653       -6.0374899741      -0.0000000016     0.500097    0.00000230
  654       -6.0374899757      -0.0000000016     0.500096    0.00000230
  655       -6.0374899772      -0.0000000016     0.500096    0.00000230
  656       -6.0374899788      -0.0000000016     0.500095    0.00000230
  657       -6.0374899803      -0.0000000016     0.500095    0.00000230
  658       -6.0374899819      -0.0000000016     0.500095    0.00000229
  659       -6.0374899834      -0.0000000016     0.500094    0.00000229
  660       -6.0374899850      -0.0000000015     0.500094    0.00000229
  661       -6.0374899865      -0.0000000015     0.500093    0.00000229
  662       -6.0374899881      -0.0000000015     0.500093    0.00000229
  663       -6.0374899896      -0.0000000015     0.500093    0.00000228
  664       -6.0374899912      -0.0000000015     0.500092    0.00000228
  665       -6.0374899927      -0.0000000015     0.500092    0.00000228
  666       -6.0374899942      -0.0000000015     0.500091    0.00000228
  667       -6.0374899958      -0.0000000015     0.500091    0.00000227
  668       -6.0374899973      -0.0000000015     0.500090    0.00000227
  669       -6.0374899988      -0.0000000015     0.500090    0.00000227
  670       -6.0374900003      -0.0000000015     0.500090    0.00000227
  671       -6.0374900018      -0.0000000015     0.500089    0.00000227
  672       -6.0374900034      -0.0000000015     0.500089    0.00000226
  673       -6.0374900049      -0.0000000015     0.500088    0.00000226
  674       -6.0374900064      -0.0000000015     0.500088    0.00000226
  675       -6.0374900079      -0.0000000015     0.500088    0.00000226
  676       -6.0374900094      -0.0000000015     0.500087    0.00000226
  677       -6.0374900109      -0.0000000015     0.500087    0.00000225
  678       -6.0374900124      -0.0000000015     0.500086    0.00000225
  679       -6.0374900139      -0.0000000015     0.500086    0.00000225
  680       -6.0374900154      -0.0000000015     0.500086    0.00000225
  681       -6.0374900169      -0.0000000015     0.500085    0.00000225
  682       -6.0374900184      -0.0000000015     0.500085    0.00000224
  683       -6.0374900198      -0.0000000015     0.500084    0.00000224
  684       -6.0374900213      -0.0000000015     0.500084    0.00000224
  685       -6.0374900228      -0.0000000015     0.500084    0.00000224
  686       -6.0374900243      -0.0000000015     0.500083    0.00000224
  687       -6.0374900258      -0.0000000015     0.500083    0.00000223
  688       -6.0374900272      -0.0000000015     0.500082    0.00000223
  689       -6.0374900287      -0.0000000015     0.500082    0.00000223
  690       -6.0374900302      -0.0000000015     0.500082    0.00000223
  691       -6.0374900316      -0.0000000015     0.500081    0.00000222
  692       -6.0374900331      -0.0000000015     0.500081    0.00000222
  693       -6.0374900345      -0.0000000015     0.500080    0.00000222
  694       -6.0374900360      -0.0000000015     0.500080    0.00000222
  695       -6.0374900374      -0.0000000015     0.500080    0.00000222
  696       -6.0374900389      -0.0000000014     0.500079    0.00000221
  697       -6.0374900403      -0.0000000014     0.500079    0.00000221
  698       -6.0374900418      -0.0000000014     0.500078    0.00000221
  699       -6.0374900432      -0.0000000014     0.500078    0.00000221
  700       -6.0374900447      -0.0000000014     0.500078    0.00000221
  701       -6.0374900461      -0.0000000014     0.500077    0.00000220
  702       -6.0374900475      -0.0000000014     0.500077    0.00000220
  703       -6.0374900490      -0.0000000014     0.500076    0.00000220
  704       -6.0374900504      -0.0000000014     0.500076    0.00000220
  705       -6.0374900518      -0.0000000014     0.500076    0.00000220
  706       -6.0374900532      -0.0000000014     0.500075    0.00000219
  707       -6.0374900546      -0.0000000014     0.500075    0.00000219
  708       -6.0374900561      -0.0000000014     0.500074    0.00000219
  709       -6.0374900575      -0.0000000014     0.500074    0.00000219
  710       -6.0374900589      -0.0000000014     0.500074    0.00000219
  711       -6.0374900603      -0.0000000014     0.500073    0.00000218
  712       -6.0374900617      -0.0000000014     0.500073    0.00000218
  713       -6.0374900631      -0.0000000014     0.500072    0.00000218
  714       -6.0374900645      -0.0000000014     0.500072    0.00000218
  715       -6.0374900659      -0.0000000014     0.500072    0.00000218
  716       -6.0374900673      -0.0000000014     0.500071    0.00000217
  717       -6.0374900687      -0.0000000014     0.500071    0.00000217
  718       -6.0374900701      -0.0000000014     0.500070    0.00000217
  719       -6.0374900715      -0.0000000014     0.500070    0.00000217
  720       -6.0374900729      -0.0000000014     0.500070    0.00000217
  721       -6.0374900742      -0.0000000014     0.500069    0.00000216
  722       -6.0374900756      -0.0000000014     0.500069    0.00000216
  723       -6.0374900770      -0.0000000014     0.500068    0.00000216
  724       -6.0374900784      -0.0000000014     0.500068    0.00000216
  725       -6.0374900797      -0.0000000014     0.500068    0.00000216
  726       -6.0374900811      -0.0000000014     0.500067    0.00000215
  727       -6.0374900825      -0.0000000014     0.500067    0.00000215
  728       -6.0374900838      -0.0000000014     0.500067    0.00000215
  729       -6.0374900852      -0.0000000014     0.500066    0.00000215
  730       -6.0374900866      -0.0000000014     0.500066    0.00000215
  731       -6.0374900879      -0.0000000014     0.500065    0.00000214
  732       -6.0374900893      -0.0000000014     0.500065    0.00000214
  733       -6.0374900906      -0.0000000014     0.500065    0.00000214
  734       -6.0374900920      -0.0000000013     0.500064    0.00000214
  735       -6.0374900933      -0.0000000013     0.500064    0.00000214
  736       -6.0374900947      -0.0000000013     0.500063    0.00000213
  737       -6.0374900960      -0.0000000013     0.500063    0.00000213
  738       -6.0374900973      -0.0000000013     0.500063    0.00000213
  739       -6.0374900987      -0.0000000013     0.500062    0.00000213
  740       -6.0374901000      -0.0000000013     0.500062    0.00000213
  741       -6.0374901013      -0.0000000013     0.500062    0.00000212
  742       -6.0374901027      -0.0000000013     0.500061    0.00000212
  743       -6.0374901040      -0.0000000013     0.500061    0.00000212
  744       -6.0374901053      -0.0000000013     0.500060    0.00000212
  745       -6.0374901066      -0.0000000013     0.500060    0.00000212
  746       -6.0374901080      -0.0000000013     0.500060    0.00000211
  747       -6.0374901093      -0.0000000013     0.500059    0.00000211
  748       -6.0374901106      -0.0000000013     0.500059    0.00000211
  749       -6.0374901119      -0.0000000013     0.500058    0.00000211
  750       -6.0374901132      -0.0000000013     0.500058    0.00000211
  751       -6.0374901145      -0.0000000013     0.500058    0.00000211
  752       -6.0374901158      -0.0000000013     0.500057    0.00000210
  753       -6.0374901171      -0.0000000013     0.500057    0.00000210
  754       -6.0374901184      -0.0000000013     0.500057    0.00000210
  755       -6.0374901197      -0.0000000013     0.500056    0.00000210
  756       -6.0374901210      -0.0000000013     0.500056    0.00000210
  757       -6.0374901223      -0.0000000013     0.500055    0.00000209
  758       -6.0374901236      -0.0000000013     0.500055    0.00000209
  759       -6.0374901249      -0.0000000013     0.500055    0.00000209
  760       -6.0374901262      -0.0000000013     0.500054    0.00000209
  761       -6.0374901275      -0.0000000013     0.500054    0.00000209
  762       -6.0374901287      -0.0000000013     0.500054    0.00000208
  763       -6.0374901300      -0.0000000013     0.500053    0.00000208
  764       -6.0374901313      -0.0000000013     0.500053    0.00000208
  765       -6.0374901326      -0.0000000013     0.500052    0.00000208
  766       -6.0374901338      -0.0000000013     0.500052    0.00000208
  767       -6.0374901351      -0.0000000013     0.500052    0.00000207
  768       -6.0374901364      -0.0000000013     0.500051    0.00000207
  769       -6.0374901376      -0.0000000013     0.500051    0.00000207
  770       -6.0374901389      -0.0000000013     0.500051    0.00000207
  771       -6.0374901401      -0.0000000013     0.500050    0.00000207
  772       -6.0374901414      -0.0000000013     0.500050    0.00000206
  773       -6.0374901427      -0.0000000013     0.500049    0.00000206
  774       -6.0374901439      -0.0000000013     0.500049    0.00000206
  775       -6.0374901452      -0.0000000012     0.500049    0.00000206
  776       -6.0374901464      -0.0000000012     0.500048    0.00000206
  777       -6.0374901477      -0.0000000012     0.500048    0.00000206
  778       -6.0374901489      -0.0000000012     0.500048    0.00000205
  779       -6.0374901501      -0.0000000012     0.500047    0.00000205
  780       -6.0374901514      -0.0000000012     0.500047    0.00000205
  781       -6.0374901526      -0.0000000012     0.500047    0.00000205
  782       -6.0374901538      -0.0000000012     0.500046    0.00000205
  783       -6.0374901551      -0.0000000012     0.500046    0.00000204
  784       -6.0374901563      -0.0000000012     0.500045    0.00000204
  785       -6.0374901575      -0.0000000012     0.500045    0.00000204
  786       -6.0374901588      -0.0000000012     0.500045    0.00000204
  787       -6.0374901600      -0.0000000012     0.500044    0.00000204
  788       -6.0374901612      -0.0000000012     0.500044    0.00000203
  789       -6.0374901624      -0.0000000012     0.500044    0.00000203
  790       -6.0374901636      -0.0000000012     0.500043    0.00000203
  791       -6.0374901648      -0.0000000012     0.500043    0.00000203
  792       -6.0374901660      -0.0000000012     0.500042    0.00000203
  793       -6.0374901673      -0.0000000012     0.500042    0.00000203
  794       -6.0374901685      -0.0000000012     0.500042    0.00000202
  795       -6.0374901697      -0.0000000012     0.500041    0.00000202
  796       -6.0374901709      -0.0000000012     0.500041    0.00000202
  797       -6.0374901721      -0.0000000012     0.500041    0.00000202
  798       -6.0374901733      -0.0000000012     0.500040    0.00000202
  799       -6.0374901745      -0.0000000012     0.500040    0.00000201
  800       -6.0374901756      -0.0000000012     0.500040    0.00000201
  801       -6.0374901768      -0.0000000012     0.500039    0.00000201
  802       -6.0374901780      -0.0000000012     0.500039    0.00000201
  803       -6.0374901792      -0.0000000012     0.500038    0.00000201
  804       -6.0374901804      -0.0000000012     0.500038    0.00000200
  805       -6.0374901816      -0.0000000012     0.500038    0.00000200
  806       -6.0374901828      -0.0000000012     0.500037    0.00000200
  807       -6.0374901839      -0.0000000012     0.500037    0.00000200
  808       -6.0374901851      -0.0000000012     0.500037    0.00000200
  809       -6.0374901863      -0.0000000012     0.500036    0.00000200
  810       -6.0374901874      -0.0000000012     0.500036    0.00000199
  811       -6.0374901886      -0.0000000012     0.500036    0.00000199
  812       -6.0374901898      -0.0000000012     0.500035    0.00000199
  813       -6.0374901909      -0.0000000012     0.500035    0.00000199
  814       -6.0374901921      -0.0000000012     0.500035    0.00000199
  815       -6.0374901933      -0.0000000012     0.500034    0.00000198
  816       -6.0374901944      -0.0000000012     0.500034    0.00000198
  817       -6.0374901956      -0.0000000012     0.500033    0.00000198
  818       -6.0374901967      -0.0000000012     0.500033    0.00000198
  819       -6.0374901979      -0.0000000012     0.500033    0.00000198
  820       -6.0374901990      -0.0000000011     0.500032    0.00000198
  821       -6.0374902002      -0.0000000011     0.500032    0.00000197
  822       -6.0374902013      -0.0000000011     0.500032    0.00000197
  823       -6.0374902025      -0.0000000011     0.500031    0.00000197
  824       -6.0374902036      -0.0000000011     0.500031    0.00000197
  825       -6.0374902047      -0.0000000011     0.500031    0.00000197
  826       -6.0374902059      -0.0000000011     0.500030    0.00000196
  827       -6.0374902070      -0.0000000011     0.500030    0.00000196
  828       -6.0374902081      -0.0000000011     0.500030    0.00000196
  829       -6.0374902093      -0.0000000011     0.500029    0.00000196
  830       -6.0374902104      -0.0000000011     0.500029    0.00000196
  831       -6.0374902115      -0.0000000011     0.500028    0.00000196
  832       -6.0374902126      -0.0000000011     0.500028    0.00000195
  833       -6.0374902138      -0.0000000011     0.500028    0.00000195
  834       -6.0374902149      -0.0000000011     0.500027    0.00000195
  835       -6.0374902160      -0.0000000011     0.500027    0.00000195
  836       -6.0374902171      -0.0000000011     0.500027    0.00000195
  837       -6.0374902182      -0.0000000011     0.500026    0.00000194
  838       -6.0374902193      -0.0000000011     0.500026    0.00000194
  839       -6.0374902204      -0.0000000011     0.500026    0.00000194
  840       -6.0374902215      -0.0000000011     0.500025    0.00000194
  841       -6.0374902227      -0.0000000011     0.500025    0.00000194
  842       -6.0374902238      -0.0000000011     0.500025    0.00000194
  843       -6.0374902249      -0.0000000011     0.500024    0.00000193
  844       -6.0374902260      -0.0000000011     0.500024    0.00000193
  845       -6.0374902270      -0.0000000011     0.500024    0.00000193
  846       -6.0374902281      -0.0000000011     0.500023    0.00000193
  847       -6.0374902292      -0.0000000011     0.500023    0.00000193
  848       -6.0374902303      -0.0000000011     0.500023    0.00000192
  849       -6.0374902314      -0.0000000011     0.500022    0.00000192
  850       -6.0374902325      -0.0000000011     0.500022    0.00000192
  851       -6.0374902336      -0.0000000011     0.500022    0.00000192
  852       -6.0374902347      -0.0000000011     0.500021    0.00000192
  853       -6.0374902357      -0.0000000011     0.500021    0.00000192
  854       -6.0374902368      -0.0000000011     0.500020    0.00000191
  855       -6.0374902379      -0.0000000011     0.500020    0.00000191
  856       -6.0374902390      -0.0000000011     0.500020    0.00000191
  857       -6.0374902400      -0.0000000011     0.500019    0.00000191
  858       -6.0374902411      -0.0000000011     0.500019    0.00000191
  859       -6.0374902422      -0.0000000011     0.500019    0.00000191
  860       -6.0374902432      -0.0000000011     0.500018    0.00000190
  861       -6.0374902443      -0.0000000011     0.500018    0.00000190
  862       -6.0374902454      -0.0000000011     0.500018    0.00000190
  863       -6.0374902464      -0.0000000011     0.500017    0.00000190
  864       -6.0374902475      -0.0000000011     0.500017    0.00000190
  865       -6.0374902485      -0.0000000011     0.500017    0.00000189
  866       -6.0374902496      -0.0000000011     0.500016    0.00000189
  867       -6.0374902506      -0.0000000011     0.500016    0.00000189
  868       -6.0374902517      -0.0000000010     0.500016    0.00000189
  869       -6.0374902527      -0.0000000010     0.500015    0.00000189
  870       -6.0374902538      -0.0000000010     0.500015    0.00000189
  871       -6.0374902548      -0.0000000010     0.500015    0.00000188
  872       -6.0374902559      -0.0000000010     0.500014    0.00000188
  873       -6.0374902569      -0.0000000010     0.500014    0.00000188
  874       -6.0374902579      -0.0000000010     0.500014    0.00000188
  875       -6.0374902590      -0.0000000010     0.500013    0.00000188
  876       -6.0374902600      -0.0000000010     0.500013    0.00000188
  877       -6.0374902610      -0.0000000010     0.500013    0.00000187
  878       -6.0374902621      -0.0000000010     0.500012    0.00000187
  879       -6.0374902631      -0.0000000010     0.500012    0.00000187
  880       -6.0374902641      -0.0000000010     0.500012    0.00000187
  881       -6.0374902652      -0.0000000010     0.500011    0.00000187
  882       -6.0374902662      -0.0000000010     0.500011    0.00000187
  883       -6.0374902672      -0.0000000010     0.500011    0.00000186
  884       -6.0374902682      -0.0000000010     0.500010    0.00000186
  885       -6.0374902692      -0.0000000010     0.500010    0.00000186
  886       -6.0374902702      -0.0000000010     0.500010    0.00000186
  887       -6.0374902713      -0.0000000010     0.500009    0.00000186
  888       -6.0374902723      -0.0000000010     0.500009    0.00000185
  889       -6.0374902733      -0.0000000010     0.500009    0.00000185
  890       -6.0374902743      -0.0000000010     0.500008    0.00000185
  891       -6.0374902753      -0.0000000010     0.500008    0.00000185
  892       -6.0374902763      -0.0000000010     0.500008    0.00000185
  893       -6.0374902773      -0.0000000010     0.500007    0.00000185
  894       -6.0374902783      -0.0000000010     0.500007    0.00000184
  895       -6.0374902793      -0.0000000010     0.500007    0.00000184
  896       -6.0374902803      -0.0000000010     0.500006    0.00000184
  897       -6.0374902813      -0.0000000010     0.500006    0.00000184
  898       -6.0374902823      -0.0000000010     0.500006    0.00000184
  899       -6.0374902833      -0.0000000010     0.500005    0.00000184
  900       -6.0374902843      -0.0000000010     0.500005    0.00000183
  901       -6.0374902852      -0.0000000010     0.500005    0.00000183
  902       -6.0374902862      -0.0000000010     0.500004    0.00000183
  903       -6.0374902872      -0.0000000010     0.500004    0.00000183
  904       -6.0374902882      -0.0000000010     0.500004    0.00000183
  905       -6.0374902892      -0.0000000010     0.500003    0.00000183
  906       -6.0374902901      -0.0000000010     0.500003    0.00000182
  907       -6.0374902911      -0.0000000010     0.500003    0.00000182
  908       -6.0374902921      -0.0000000010     0.500002    0.00000182
  909       -6.0374902931      -0.0000000010     0.500002    0.00000182
  910       -6.0374902940      -0.0000000010     0.500002    0.00000182
  911       -6.0374902950      -0.0000000010     0.500001    0.00000182
  912       -6.0374902960      -0.0000000010     0.500001    0.00000181
  913       -6.0374902969      -0.0000000010     0.500001    0.00000181
  914       -6.0374902979      -0.0000000010     0.500000    0.00000181
  915       -6.0374902989      -0.0000000010     0.500000    0.00000181
 fa =  0.500000, MO swap between a(   6) and b(   7) occurs
  916       -6.0374902998      -0.0000000010     0.500000    0.00000191
  917       -6.0373224807       0.0001678191     0.500446    0.02577469
  918       -6.0373806643      -0.0000581836     0.500309    0.00366019
  919       -6.0374147325      -0.0000340682     0.500222    0.00285182
  920       -6.0374364999      -0.0000217674     0.500166    0.00236162
  921       -6.0374510717      -0.0000145718     0.500128    0.00198424
  922       -6.0374611194      -0.0000100477     0.500101    0.00168502
  923       -6.0374682047      -0.0000070853     0.500083    0.00144300
  924       -6.0374732980      -0.0000050934     0.500069    0.00124450
  925       -6.0374770248      -0.0000037268     0.500060    0.00107997
  926       -6.0374797977      -0.0000027729     0.500053    0.00094245
  927       -6.0374818938      -0.0000020961     0.500047    0.00082667
  928       -6.0374835023      -0.0000016085     0.500043    0.00072856
  929       -6.0374847542      -0.0000012518     0.500040    0.00064494
  930       -6.0374857411      -0.0000009870     0.500038    0.00057326
  931       -6.0374865285      -0.0000007874     0.500037    0.00051150
  932       -6.0374871633      -0.0000006348     0.500036    0.00045800
  933       -6.0374876800      -0.0000005167     0.500035    0.00041144
  934       -6.0374881040      -0.0000004240     0.500034    0.00037072
  935       -6.0374884544      -0.0000003505     0.500033    0.00033496
  936       -6.0374887459      -0.0000002915     0.500033    0.00030343
  937       -6.0374889897      -0.0000002438     0.500033    0.00027550
  938       -6.0374891945      -0.0000002048     0.500033    0.00025068
  939       -6.0374893673      -0.0000001727     0.500033    0.00022854
  940       -6.0374895135      -0.0000001462     0.500033    0.00020873
  941       -6.0374896376      -0.0000001241     0.500033    0.00019094
  942       -6.0374897433      -0.0000001057     0.500033    0.00017493
  943       -6.0374898335      -0.0000000902     0.500033    0.00016047
  944       -6.0374899105      -0.0000000771     0.500033    0.00014739
  945       -6.0374899766      -0.0000000660     0.500033    0.00013553
  946       -6.0374900333      -0.0000000567     0.500033    0.00012474
  947       -6.0374900820      -0.0000000487     0.500033    0.00011492
  948       -6.0374901239      -0.0000000419     0.500034    0.00010596
  949       -6.0374901601      -0.0000000362     0.500034    0.00009778
  950       -6.0374901913      -0.0000000312     0.500034    0.00009029
  951       -6.0374902183      -0.0000000270     0.500034    0.00008342
  952       -6.0374902417      -0.0000000234     0.500034    0.00007713
  953       -6.0374902620      -0.0000000203     0.500035    0.00007134
  954       -6.0374902796      -0.0000000176     0.500035    0.00006602
  955       -6.0374902950      -0.0000000153     0.500035    0.00006113
  956       -6.0374903083      -0.0000000134     0.500035    0.00005662
  957       -6.0374903200      -0.0000000117     0.500035    0.00005246
  958       -6.0374903303      -0.0000000102     0.500036    0.00004863
  959       -6.0374903392      -0.0000000090     0.500036    0.00004509
  960       -6.0374903471      -0.0000000079     0.500036    0.00004183
  961       -6.0374903541      -0.0000000070     0.500036    0.00003881
  962       -6.0374903603      -0.0000000062     0.500037    0.00003602
  963       -6.0374903657      -0.0000000055     0.500037    0.00003343
  964       -6.0374903706      -0.0000000049     0.500037    0.00003104
  965       -6.0374903749      -0.0000000043     0.500037    0.00002883
  966       -6.0374903788      -0.0000000039     0.500038    0.00002678
  967       -6.0374903823      -0.0000000035     0.500038    0.00002489
  968       -6.0374903854      -0.0000000031     0.500038    0.00002313
  969       -6.0374903882      -0.0000000028     0.500038    0.00002150
  970       -6.0374903908      -0.0000000026     0.500039    0.00001999
  971       -6.0374903932      -0.0000000024     0.500039    0.00001859
  972       -6.0374903953      -0.0000000022     0.500039    0.00001729
  973       -6.0374903973      -0.0000000020     0.500039    0.00001608
  974       -6.0374903992      -0.0000000018     0.500040    0.00001496
  975       -6.0374904009      -0.0000000017     0.500040    0.00001392
  976       -6.0374904025      -0.0000000016     0.500040    0.00001296
  977       -6.0374904040      -0.0000000015     0.500040    0.00001206
  978       -6.0374904054      -0.0000000014     0.500041    0.00001123
  979       -6.0374904067      -0.0000000013     0.500041    0.00001046
  980       -6.0374904080      -0.0000000013     0.500041    0.00000974
  981       -6.0374904092      -0.0000000012     0.500042    0.00000907
  982       -6.0374904103      -0.0000000012     0.500042    0.00000845
  983       -6.0374904115      -0.0000000011     0.500042    0.00000787
  984       -6.0374904125      -0.0000000011     0.500042    0.00000765
  985       -6.0374904135      -0.0000000010     0.500043    0.00000744
  986       -6.0374904145      -0.0000000010     0.500043    0.00000724
  987       -6.0374904155      -0.0000000010     0.500043    0.00000704
  988       -6.0374904164      -0.0000000009     0.500043    0.00000685
  989       -6.0374904174      -0.0000000009     0.500044    0.00000667
  990       -6.0374904183      -0.0000000009     0.500044    0.00000648
  991       -6.0374904191      -0.0000000009     0.500044    0.00000631
  992       -6.0374904200      -0.0000000009     0.500044    0.00000613
  993       -6.0374904209      -0.0000000008     0.500045    0.00000597
  994       -6.0374904217      -0.0000000008     0.500045    0.00000580
  995       -6.0374904225      -0.0000000008     0.500045    0.00000565
  996       -6.0374904233      -0.0000000008     0.500046    0.00000549
  997       -6.0374904241      -0.0000000008     0.500046    0.00000535
  998       -6.0374904249      -0.0000000008     0.500046    0.00000520
  999       -6.0374904257      -0.0000000008     0.500046    0.00000506
 1000       -6.0374904265      -0.0000000008     0.500047    0.00000493

Total Energy:                       -6.0374904265 H         -164.2885 eV
Extrapolated to 0:                  -6.2172443250 H         -169.1798 eV

----------------------------------------------------------------------------------
 Solving CP-REKS equation for  1 state vector...
----------------------------------------------------------------------------------
  CG solver: Constructing Y initial guess
  CG solver: Iteration    1    eps =    1.660029636432
  CG solver: Iteration    2    eps =    0.102781817335
  CG solver: Iteration    3    eps =    0.002997576626
  CG solver: Iteration    4    eps =    0.005088163853
  CG solver: Iteration    5    eps =    0.017417362473
  CG solver: Iteration    6    eps =    0.033230002442
  CG solver: Iteration    7    eps =    0.018237963371
  CG solver: Iteration    8    eps =    0.002217205749
  CG solver: Iteration    9    eps =    0.000215112869
  CG solver: Iteration   10    eps =    0.000089503753
  CG solver: Iteration   11    eps =    0.000007529828
  CG solver: Iteration   12    eps =    0.000000673034
  CG solver: Iteration   13    eps =    0.000000011095
  CG solver: Iteration   14    eps =    0.000000000499
  Convergence reached in CG solver after   14 iterations
  CG solver: Calculating converged R, Z, Q2 matrix
----------------------------------------------------------------------------------

----------------------------------------------------------------------------------
 Solving CP-REKS equation for SI between  1 and  2 state vectors...
----------------------------------------------------------------------------------
  CG solver: Constructing Y initial guess
  CG solver: Iteration    1    eps =    0.001276649714
  CG solver: Iteration    2    eps =    0.000016062564
  CG solver: Iteration    3    eps =    0.000005171628
  CG solver: Iteration    4    eps =    0.000007145403
  CG solver: Iteration    5    eps =    0.000005820018
  CG solver: Iteration    6    eps =    0.000059965122
  CG solver: Iteration    7    eps =    0.000053055873
  CG solver: Iteration    8    eps =    0.000006558025
  CG solver: Iteration    9    eps =    0.000000368436
  CG solver: Iteration   10    eps =    0.000000051824
  CG solver: Iteration   11    eps =    0.000000003718
  Convergence reached in CG solver after   11 iterations
  CG solver: Calculating converged R, Z, Q2 matrix
----------------------------------------------------------------------------------

--------------------------------------------------
 Gradient Information
--------------------------------------------------
           1 st state (SSR)
     0.00000000     0.00000000     0.00000000
     0.00000000     0.00000000     0.00000000
     0.00000000     0.00000000     0.00000000
     0.00000000     0.00000000     0.00000000
     0.00000000     0.00000000     0.00000000
     0.00000000     0.00000000     0.00000000

           2 st state (SSR)
     0.00000000     0.00000000     0.00000000
     0.00000000     0.00000000     0.00000000
     0.00000000     0.00000000     0.00000000
     0.00000000     0.00000000     0.00000000
     0.00000000     0.00000000     0.00000000
     0.00000000     0.00000000     0.00000000
--------------------------------------------------
 Coupling Information
--------------------------------------------------
 between  1 and  2 states
--------------------------------------------------
 g vector - difference gradient
    -0.25134205    -0.39622475     0.48626231
     0.13895656     0.07066467     0.34712581
     0.20819419     0.11645320    -0.20356873
    -0.15262903    -0.10028480    -0.38246217
     0.00074081     0.17049167    -0.13397113
     0.05607951     0.13890001    -0.11338610

 h vector - derivative coupling
    -0.00001851    -0.00001246    -0.00002041
     0.00005762    -0.00003264     0.00000275
    -0.00000266     0.00000294     0.00000291
    -0.00003803     0.00002486     0.00000897
     0.00000052     0.00000414    -0.00000512
     0.00000106     0.00001316     0.00001090

 G vector - GDV
     0.00000000     0.00000000     0.00000000
     0.00000000     0.00000000     0.00000000
     0.00000000     0.00000000     0.00000000
     0.00000000     0.00000000     0.00000000
     0.00000000     0.00000000     0.00000000
     0.00000000     0.00000000     0.00000000

 H vector - DCV - non-adiabatic coupling
     0.00000000     0.00000000     0.00000000
     0.00000000     0.00000000     0.00000000
     0.00000000     0.00000000     0.00000000
     0.00000000     0.00000000     0.00000000
     0.00000000     0.00000000     0.00000000
     0.00000000     0.00000000     0.00000000
--------------------------------------------------

WARNING!
-> SCC is NOT converged, maximal SCC iterations exceeded

--------------------------------------------------------------------------------
DFTB+ running times                          cpu [s]             wall clock [s]
--------------------------------------------------------------------------------
SCC                                    +     0.41  ( 96.4%)      0.41  ( 95.5%)
      Sparse to dense                        0.02  (  4.7%)      0.01  (  2.8%)
      Dense to sparse                        0.07  ( 16.1%)      0.07  ( 16.7%)
      Range separated Hamiltonian            0.03  (  6.6%)      0.03  (  6.1%)
  Density matrix creation                    0.05  ( 12.3%)      0.05  ( 12.4%)
  Force calculation                          0.01  (  3.3%)      0.01  (  3.3%)
--------------------------------------------------------------------------------
Missing                                +     0.02  (  3.6%)      0.02  (  4.5%)
Total                                  =     0.42  (100.0%)      0.43  (100.0%)
--------------------------------------------------------------------------------
