     6
  Step:   120            Position(A)                                  Velocity(au)
C        -0.03696818    -0.03384806     0.00436616    -0.00002106    -0.00019949    -0.00039449
N        -0.03737383    -0.00742173     1.33991576     0.00001421     0.00006662     0.00030291
H         0.85146956     0.22149287    -0.69677883     0.00077560     0.00133890     0.00046039
H         0.79535811    -0.42740913     1.79575084     0.00020548    -0.00062282     0.00002121
H        -0.95806694    -0.08983679     1.79834240    -0.00012133     0.00064335    -0.00023190
H        -0.94181856     0.13244894    -0.67723590    -0.00080626     0.00009181     0.00024168
