     6
  Step:   120            Position(A)                                  Velocity(au)
C        -0.03525743     0.07454003    -0.11165725     0.00002244     0.00004827     0.00027156
N        -0.03973913     0.01042549     1.42434031    -0.00002120     0.00005025    -0.00022773
H         0.89722660    -0.35919406    -0.48592541     0.00019518    -0.00026434     0.00013721
H         0.77539627    -0.55120196     1.70888925    -0.00004339    -0.00040329    -0.00044754
H        -0.91704104    -0.51513946     1.70286236     0.00003902    -0.00012253    -0.00025887
H        -0.99617598    -0.27735247    -0.49642536    -0.00016351    -0.00048330     0.00049796
