     6
  Step:     0            Position(A)                                  Velocity(au)
C        -0.02765389     0.02925159     0.00705276     0.00004689    -0.00003735     0.00019533
N        -0.04034346    -0.06516707     1.30102846    -0.00015571    -0.00011358    -0.00026975
H         0.87600219    -0.02930977    -0.52272633    -0.00044005     0.00050929     0.00080745
H         0.81020251    -0.09538798     1.85995767     0.00092185     0.00058463     0.00093177
H        -0.99547032    -0.00681938     1.89292801     0.00137871     0.00079170    -0.00002050
H        -1.01352023     0.01876025    -0.50170826    -0.00025543     0.00013778    -0.00029778
     6
  Step:     1            Position(A)                                  Velocity(au)
C        -0.02732238     0.02890830     0.00891992     0.00001193    -0.00002500     0.00014259
N        -0.04229460    -0.06644642     1.29857373    -0.00019448    -0.00012105    -0.00017332
H         0.87345070    -0.02391704    -0.51589703    -0.00000727     0.00047759     0.00042674
H         0.82088645    -0.08894689     1.87093547     0.00096652     0.00059631     0.00102391
H        -0.97742391     0.00177975     1.89107109     0.00188444     0.00078197    -0.00030103
H        -1.01653539     0.02019613    -0.50579631    -0.00028324     0.00012412    -0.00044034
     6
  Step:     2            Position(A)                                  Velocity(au)
C        -0.02739299     0.02870476     0.01017222    -0.00002446    -0.00001204     0.00008318
N        -0.04459803    -0.06781527     1.29723686    -0.00021916    -0.00012991    -0.00006823
H         0.87584317    -0.01886163    -0.51339047     0.00043684     0.00044928     0.00003421
H         0.83134700    -0.08234255     1.88235769     0.00088957     0.00061281     0.00101738
H        -0.95424461     0.01028781     1.88634239     0.00229571     0.00077763    -0.00053076
H        -1.01971668     0.02147559    -0.51134161    -0.00028508     0.00010905    -0.00056394
     6
  Step:     3            Position(A)                                  Velocity(au)
C        -0.02785751     0.02864492     0.01073962    -0.00005808     0.00000107     0.00001796
N        -0.04708917    -0.06928852     1.29708115    -0.00022781    -0.00014019     0.00003911
H         0.88300741    -0.01408817    -0.51514867     0.00083984     0.00042709    -0.00033687
H         0.84034756    -0.07554055     1.89319262     0.00071249     0.00063093     0.00092468
H        -0.92720076     0.01879196     1.87945972     0.00256582     0.00078516    -0.00067694
H        -1.02277209     0.02258172    -0.51813358    -0.00026027     0.00009231    -0.00066850
     6
  Step:     4            Position(A)                                  Velocity(au)
C        -0.02866370     0.02872806     0.01056517    -0.00008554     0.00001394    -0.00005144
N        -0.04958178    -0.07088230     1.29809255    -0.00021844    -0.00015212     0.00014142
H         0.89421618    -0.00951827    -0.52076021     0.00115809     0.00041238    -0.00065839
H         0.84693403    -0.06853984     1.90258694     0.00046227     0.00064793     0.00076368
H        -0.89811232     0.02746479     1.87153311     0.00264401     0.00081379    -0.00070275
H        -1.02541060     0.02349513    -0.52596639    -0.00020952     0.00007371    -0.00075483
     6
  Step:     5            Position(A)                                  Velocity(au)
C        -0.02972884     0.02894981     0.00961426    -0.00010485     0.00002630    -0.00012264
N        -0.05186799    -0.07261641     1.30017496    -0.00018955    -0.00016611     0.00023161
H         0.90834288    -0.00506662    -0.52955218     0.00136463     0.00040517    -0.00091205
H         0.85046065    -0.06136590     1.90989962     0.00016679     0.00066174     0.00055411
H        -0.86935802     0.03659521     1.86408571     0.00248665     0.00087490    -0.00057489
H        -1.02735577     0.02419436    -0.53464702    -0.00013463     0.00005307    -0.00082436
     6
  Step:     6            Position(A)                                  Velocity(au)
C        -0.03095739     0.02930338     0.00788225    -0.00011559     0.00003798    -0.00019273
N        -0.05372857    -0.07451618     1.30315939    -0.00014136    -0.00018262     0.00030421
H         0.92407002    -0.00065431    -0.54071315     0.00145105     0.00040453    -0.00109054
H         0.85058286    -0.05406290     1.91470916    -0.00014727     0.00067105     0.00031583
H        -0.84371206     0.04660492     1.85895626     0.00207625     0.00097947    -0.00027729
H        -1.02835584     0.02465604    -0.54400074    -0.00003818     0.00003019    -0.00087887
     6
  Step:     7            Position(A)                                  Velocity(au)
C        -0.03225763     0.02978067     0.00539800    -0.00011863     0.00004890    -0.00025872
N        -0.05496056    -0.07661166     1.30683006    -0.00007735    -0.00020186     0.00035675
H         0.94008729     0.00378327    -0.55340993     0.00142434     0.00040903    -0.00119563
H         0.84723891    -0.04668548     1.91680906    -0.00045447     0.00067523     0.00006845
H        -0.82393599     0.05802299     1.85801936     0.00144209     0.00113315     0.00017288
H        -1.02819112     0.02485486    -0.55387397     0.00007661     0.00000495    -0.00092036
     6
  Step:     8            Position(A)                                  Velocity(au)
C        -0.03355274     0.03037319     0.00222220    -0.00011557     0.00005906    -0.00031799
N        -0.05542077    -0.07893218     1.31096404    -0.00000496    -0.00022332     0.00039046
H         0.95523021     0.00829397    -0.56686988     0.00130111     0.00041722    -0.00123478
H         0.84064037    -0.03929097     1.91620656    -0.00072973     0.00067460    -0.00016821
H        -0.81216360     0.07139469     1.86273833     0.00066857     0.00133061     0.00071701
H        -1.02667983     0.02476423    -0.56413539     0.00020605    -0.00002285    -0.00095086
     6
  Step:     9            Position(A)                                  Velocity(au)
C        -0.03478589     0.03107276    -0.00155870    -0.00010821     0.00006851    -0.00036851
N        -0.05506900    -0.08149727     1.31537216     0.00006542    -0.00024571     0.00040949
H         0.96855160     0.01291076    -0.58042306     0.00110205     0.00042788    -0.00121796
H         0.83127470    -0.03192731     1.91312922    -0.00094742     0.00067058    -0.00037356
H        -0.80930967     0.08713263     1.87370532    -0.00012015     0.00155306     0.00126450
H        -1.02368337     0.02435496    -0.57467576     0.00034583    -0.00005339    -0.00097236
     6
  Step:    10            Position(A)                                  Velocity(au)
C        -0.03591996     0.03187194    -0.00583961    -0.00009819     0.00007731    -0.00040886
N        -0.05398961    -0.08430758     1.31992252     0.00012303    -0.00026716     0.00041890
H         0.97933977     0.01765469    -0.59351498     0.00084811     0.00044010    -0.00115549
H         0.81991381    -0.02462070     1.90803422    -0.00108178     0.00066583    -0.00052668
H        -0.81479206     0.10537083     1.89040165    -0.00079686     0.00177214     0.00171975
H        -1.01911409     0.02359612    -0.58540761     0.00049085    -0.00008684    -0.00098686
     6
  Step:    11            Position(A)                                  Velocity(au)
C        -0.03693396     0.03276412    -0.01050326    -0.00008674     0.00008555    -0.00043821
N        -0.05237740    -0.08734182     1.32453643     0.00015972    -0.00028589     0.00042242
H         0.98710562     0.02253874    -0.60570154     0.00055815     0.00045331    -0.00105676
H         0.80760870    -0.01736106     1.90160715    -0.00110908     0.00066424    -0.00060792
H        -0.82674261     0.12590163     1.91132808    -0.00127014     0.00195923     0.00201253
H        -1.01294500     0.02245511    -0.59626517     0.00063510    -0.00012337    -0.00099632
     6
  Step:    12            Position(A)                                  Velocity(au)
C        -0.03781754     0.03374345    -0.01542629    -0.00007459     0.00009328    -0.00045622
N        -0.05049535    -0.09056193     1.32916384     0.00017157    -0.00030083     0.00042149
H         0.99155038     0.02757178    -0.61663352     0.00024827     0.00046737    -0.00092985
H         0.79565049    -0.01008928     1.89473487    -0.00101223     0.00067056    -0.00060245
H        -0.84257884     0.14823281     1.93442950    -0.00150295     0.00209429     0.00211409
H        -1.00522015     0.02089715    -0.60720392     0.00077157    -0.00016325    -0.00100271
     6
  Step:    13            Position(A)                                  Velocity(au)
C        -0.03856576     0.03480475    -0.02048397    -0.00006204     0.00010056    -0.00046300
N        -0.04862402    -0.09392310     1.33375742     0.00015891    -0.00031181     0.00041579
H         0.99253710     0.03276335    -0.62604377    -0.00006794     0.00048256    -0.00078171
H         0.78546416    -0.00269121     1.88842745    -0.00078712     0.00068938    -0.00050496
H        -0.85962262     0.17171816     1.95757775    -0.00150646     0.00216971     0.00203373
H        -0.99606543     0.01888364    -0.61820145     0.00089256    -0.00020696    -0.00100801
     6
  Step:    14            Position(A)                                  Velocity(au)
C        -0.03917486     0.03594350    -0.02555520    -0.00004909     0.00010747    -0.00045909
N        -0.04701884    -0.09738339     1.33826005     0.00012540    -0.00031932     0.00040463
H         0.99006396     0.03812876    -0.63373497    -0.00037897     0.00049974    -0.00061837
H         0.77843066     0.00499213     1.88368800    -0.00044865     0.00072336    -0.00032392
H        -0.87553561     0.19569932     1.97892120    -0.00132019     0.00218894     0.00180383
H        -0.98569369     0.01636960    -0.62925601     0.00099026    -0.00025525    -0.00101389
     6
  Step:    15            Position(A)                                  Velocity(au)
C        -0.03963978     0.03715594    -0.03052744    -0.00003561     0.00011409    -0.00044552
N        -0.04588070    -0.10090894     1.34260941     0.00007676    -0.00032414     0.00038821
H         0.98424634     0.04369608    -0.63957187    -0.00067450     0.00052051    -0.00044533
H         0.77564908     0.01313361     1.88134113    -0.00003323     0.00077151    -0.00008317
H        -0.88850441     0.21960534     1.99703990    -0.00099215     0.00216227     0.00146413
H        -0.97440161     0.01329953    -0.64038226     0.00105761    -0.00030940    -0.00102146
     6
  Step:    16            Position(A)                                  Velocity(au)
C        -0.03995395     0.03843933    -0.03530189    -0.00002153     0.00012050    -0.00042375
N        -0.04533962    -0.10447452     1.34675284     0.00001962    -0.00032694     0.00036810
H         0.97530791     0.04951582    -0.64347751    -0.00094466     0.00054774    -0.00026794
H         0.77770365     0.02187036     1.88186851     0.00040557     0.00082795     0.00018139
H        -0.89724077     0.24300306     2.01095187    -0.00056619     0.00210318     0.00105157
H        -0.96255648     0.00960091    -0.65160249     0.00108919    -0.00037158    -0.00103082
     6
  Step:    17            Position(A)                                  Velocity(au)
C        -0.04011087     0.03979218    -0.03979785    -0.00000630     0.00012973    -0.00045060
N        -0.04545139    -0.10806129     1.35066225    -0.00004076    -0.00033317     0.00038945
H         0.96358011     0.05567886    -0.64543346    -0.00122309     0.00070129    -0.00003455
H         0.78452165     0.03124654     1.88530936     0.00079704     0.00077519     0.00042619
H        -0.90089081     0.26561640     2.02004497    -0.00004117     0.00213480     0.00055715
H        -0.95057345     0.00517055    -0.66293341     0.00110873    -0.00052724    -0.00099140
     6
  Step:    18            Position(A)                                  Velocity(au)
C        -0.04009169     0.04127741    -0.04515960     0.00001019     0.00014133    -0.00053676
N        -0.04623143    -0.11176336     1.35527278    -0.00009847    -0.00034118     0.00046457
H         0.94855056     0.06485793    -0.64423342    -0.00149885     0.00097052     0.00024881
H         0.79514038     0.03882921     1.89119214     0.00108360     0.00060928     0.00059649
H        -0.89814140     0.28970588     2.02314068     0.00054983     0.00223368    -0.00000601
H        -0.93830080    -0.00193345    -0.67329118     0.00111248    -0.00075641    -0.00089918
     6
  Step:    19            Position(A)                                  Velocity(au)
C        -0.03988804     0.04288406    -0.05154039     0.00002601     0.00015153    -0.00062605
N        -0.04760567    -0.11552528     1.36082562    -0.00014815    -0.00034417     0.00055240
H         0.93078986     0.07691080    -0.63999028    -0.00170475     0.00123113     0.00050768
H         0.80822756     0.04457568     1.89835872     0.00124501     0.00043425     0.00066781
H        -0.88886227     0.31448236     2.01991354     0.00114093     0.00227517    -0.00058230
H        -0.92623588    -0.01137743    -0.68260469     0.00106769    -0.00096339    -0.00080949
     6
  Step:    20            Position(A)                                  Velocity(au)
C        -0.03952270     0.04459233    -0.05885568     0.00003837     0.00015957    -0.00070370
N        -0.04947254    -0.11929283     1.36735753    -0.00018783    -0.00034234     0.00064002
H         0.91125591     0.09179121    -0.63312692    -0.00180728     0.00149068     0.00071648
H         0.82237730     0.04832936     1.90580171     0.00128053     0.00024230     0.00065271
H        -0.87318132     0.33947966     2.01040183     0.00170847     0.00228256    -0.00114279
H        -0.91494306    -0.02300944    -0.69100027     0.00097121    -0.00115971    -0.00073511
     6
  Step:    21            Position(A)                                  Velocity(au)
C        -0.03904865     0.04637507    -0.06693520     0.00004438     0.00016477    -0.00076361
N        -0.05171475    -0.12301471     1.37482737    -0.00021636    -0.00033626     0.00072138
H         0.89125215     0.10952218    -0.62431588    -0.00177586     0.00175607     0.00085341
H         0.83624165     0.04987639     1.91263795     0.00120114     0.00003011     0.00056503
H        -0.85148619     0.36441779     1.99491280     0.00222698     0.00227397    -0.00166246
H        -0.90498875    -0.03674837    -0.69868673     0.00082549    -0.00135078    -0.00068130
     6
  Step:    22            Position(A)                                  Velocity(au)
C        -0.03855178     0.04819706    -0.07556115     0.00004119     0.00016632    -0.00080262
N        -0.05420575    -0.12664923     1.38313903    -0.00023297    -0.00032725     0.00079187
H         0.87240558     0.13020870    -0.61445692    -0.00158568     0.00203583     0.00090091
H         0.84865446     0.04898816     1.91816275     0.00102678    -0.00020225     0.00042249
H        -0.82446189     0.38922715     1.97403240     0.00266702     0.00227228    -0.00211456
H        -0.89688384    -0.05256039    -0.70590511     0.00063851    -0.00154022    -0.00064888
     6
  Step:    23            Position(A)                                  Velocity(au)
C        -0.03814744     0.05001365    -0.08449403     0.00002684     0.00016333    -0.00081992
N        -0.05681150    -0.13017385     1.39215095    -0.00023704    -0.00031740     0.00084769
H         0.85656245     0.15405995    -0.60460678    -0.00122783     0.00233939     0.00085155
H         0.85870447     0.04545169     1.92188064     0.00078203    -0.00045268     0.00024436
H        -0.79313992     0.41412831     1.94865271     0.00299610     0.00230785    -0.00247096
H        -0.89102023    -0.07044364    -0.71288228     0.00042382    -0.00173015    -0.00063461
     6
  Step:    24            Position(A)                                  Velocity(au)
C        -0.03796462     0.05177031    -0.09349846     0.00000134     0.00015502    -0.00081711
N        -0.05939135    -0.13359299     1.40168387    -0.00022819    -0.00030942     0.00088587
H         0.84554443     0.18138736    -0.59582766    -0.00072152     0.00267420     0.00071478
H         0.86576288     0.03908486     1.92350865     0.00049316    -0.00071791     0.00004971
H        -0.75891637     0.43971585     1.91997551     0.00318390     0.00241722    -0.00270633
H        -0.88761187    -0.09041082    -0.71978844     0.00019950    -0.00192089    -0.00063189
     6
  Step:    25            Position(A)                                  Velocity(au)
C        -0.03811805     0.05340500    -0.10236977    -0.00003250     0.00014100    -0.00079801
N        -0.06180363    -0.13694307     1.41153100    -0.00020707    -0.00030602     0.00090463
H         0.84077784     0.21256313    -0.58896953    -0.00012104     0.00304120     0.00051988
H         0.86949339     0.02974605     1.92296813     0.00018709    -0.00099405    -0.00014331
H        -0.72348601     0.46700968     1.88944656     0.00321285     0.00263583    -0.00280641
H        -0.88665573    -0.11246676    -0.72670606    -0.00001410    -0.00211059    -0.00063204
     6
  Step:    26            Position(A)                                  Velocity(au)
C        -0.03867566     0.05485489    -0.11095657    -0.00006939     0.00012165    -0.00076801
N        -0.06392133    -0.14028770     1.42147431    -0.00017620    -0.00030874     0.00090392
H         0.84289643     0.24791950    -0.58445424     0.00048974     0.00343039     0.00031117
H         0.86985581     0.01733813     1.92037337    -0.00010886    -0.00127699    -0.00031750
H        -0.68862909     0.49737973     1.85858000     0.00309159     0.00298278    -0.00277731
H        -0.88792043    -0.13658412    -0.73361562    -0.00019703    -0.00229532    -0.00062592
     6
  Step:    27            Position(A)                                  Velocity(au)
C        -0.03963615     0.05606626    -0.11917141    -0.00010300     0.00009820    -0.00073264
N        -0.06565832    -0.14369745     1.43130587    -0.00014062    -0.00031665     0.00088557
H         0.85149182     0.28760952    -0.58216204     0.00101752     0.00381993     0.00013562
H         0.86711192     0.00180945     1.91602215    -0.00036684    -0.00156272    -0.00045648
H        -0.65585165     0.53226371     1.82868752     0.00286318     0.00344233    -0.00264971
H        -0.89096604    -0.16268129    -0.74039928    -0.00033230    -0.00246941    -0.00060541
     6
  Step:    28            Position(A)                                  Velocity(au)
C        -0.04092907     0.05700323    -0.12698456    -0.00012804     0.00007243    -0.00069634
N        -0.06699770    -0.14721506     1.44084777    -0.00010735    -0.00032551     0.00085273
H         0.86515658     0.33148775    -0.58148726     0.00138562     0.00418065     0.00002881
H         0.86183041    -0.01684942     1.91038698    -0.00055925    -0.00184782    -0.00054498
H        -0.62599159     0.57268723     1.80061249     0.00259900     0.00395374    -0.00247157
H        -0.89519006    -0.19060723    -0.74686013    -0.00040788    -0.00262630    -0.00056460
     6
  Step:    29            Position(A)                                  Velocity(au)
C        -0.04243718     0.05765086    -0.13440509    -0.00014167     0.00004611    -0.00066162
N        -0.06800681    -0.15081858     1.44996100    -0.00008360    -0.00032854     0.00080868
H         0.88180494     0.37906926    -0.58153178     0.00155214     0.00448386     0.00000689
H         0.85487717    -0.03861512     1.90409959    -0.00066102    -0.00213007    -0.00056997
H        -0.59899361     0.61875934     1.77461730     0.00237634     0.00442174    -0.00229051
H        -0.89988924    -0.22013658    -0.75275103    -0.00041749    -0.00275946    -0.00050034
     6
  Step:    30            Position(A)                                  Velocity(au)
C        -0.04402845     0.05801195    -0.14145868    -0.00014380     0.00002053    -0.00062921
N        -0.06882664    -0.15440251     1.45853921    -0.00007451    -0.00031856     0.00075570
H         0.89911257     0.42958086    -0.58133655     0.00151241     0.00470803     0.00006744
H         0.84736928    -0.06344884     1.89791785    -0.00065436    -0.00240934    -0.00052284
H        -0.57400464     0.66942123     1.75050321     0.00225131     0.00474678    -0.00213617
H        -0.90432343    -0.25097563    -0.75780600    -0.00036036    -0.00286326    -0.00041219
     6
  Step:    31            Position(A)                                  Velocity(au)
C        -0.04558302     0.05809994    -0.14817035    -0.00013617    -0.00000362    -0.00059867
N        -0.06963695    -0.15778768     1.46649335    -0.00008164    -0.00029033     0.00069485
H         0.91489190     0.48206643    -0.58005644     0.00128895     0.00484144     0.00019611
H         0.84056169    -0.09132412     1.89266141    -0.00053512    -0.00268815    -0.00040245
H        -0.54974194     0.72260418     1.72788449     0.00224376     0.00485798    -0.00201358
H        -0.90777284    -0.28277588    -0.76176849    -0.00024046    -0.00293371    -0.00030218
     6
  Step:    32            Position(A)                                  Velocity(au)
C        -0.04700735     0.05793285    -0.15455576    -0.00012130    -0.00002608    -0.00056906
N        -0.07061272    -0.16075396     1.47374033    -0.00010277    -0.00024175     0.00062664
H         0.92731075     0.53549673    -0.57704634     0.00091729     0.00488102     0.00037405
H         0.83566245    -0.12225723     1.88911355    -0.00031882    -0.00297122    -0.00021768
H        -0.52491804     0.77569877     1.70645229     0.00234031     0.00472927    -0.00190927
H        -0.90958403    -0.31515622    -0.76441685    -0.00006525    -0.00296880    -0.00017424
     6
  Step:    33            Position(A)                                  Velocity(au)
C        -0.04823666     0.05752937    -0.16061957    -0.00010162    -0.00004685    -0.00053945
N        -0.07188522    -0.16307651     1.48020227    -0.00013275    -0.00017367     0.00055191
H         0.93495944     0.58884818    -0.57187336     0.00043479     0.00482928     0.00058312
H         0.83358694    -0.15632527     1.88789933    -0.00004328    -0.00326359     0.00001175
H        -0.49854315     0.82606610     1.68611555     0.00250852     0.00437435    -0.00180282
H        -0.90920023    -0.34772413    -0.76558037     0.00015563    -0.00296843    -0.00003349
     6
  Step:    34            Position(A)                                  Velocity(au)
C        -0.04923039     0.05690800    -0.16635727    -0.00007904    -0.00006589    -0.00050912
N        -0.07351694    -0.16455335     1.48581437    -0.00016489    -0.00008889     0.00047228
H         0.93682263     0.64114650    -0.56428956    -0.00012513     0.00469168     0.00080800
H         0.83471555    -0.19365460     1.88937057     0.00023540    -0.00356737     0.00025755
H        -0.47003927     0.87139610     1.66701225     0.00271172     0.00383033    -0.00167616
H        -0.90617942    -0.38009630    -0.76514958     0.00041120    -0.00293426     0.00011419
     6
  Step:    35            Position(A)                                  Velocity(au)
C        -0.04996582     0.05608782    -0.17175747    -0.00005496    -0.00008312    -0.00047750
N        -0.07549243    -0.16502109     1.49053441    -0.00019233     0.00000874     0.00039008
H         0.93222193     0.69148767    -0.55419683    -0.00073408     0.00447514     0.00103636
H         0.83873687    -0.23436837     1.89353365     0.00045403    -0.00387853     0.00048806
H        -0.43921899     0.90986201     1.64944635     0.00291778     0.00314172    -0.00151785
H        -0.90020448    -0.41191660    -0.76308223     0.00068988    -0.00286941     0.00026260
     6
  Step:    36            Position(A)                                  Velocity(au)
C        -0.05043283     0.05508965    -0.17680345    -0.00003035    -0.00009828    -0.00044416
N        -0.07772443    -0.16436207     1.49434808    -0.00020932     0.00011494     0.00030781
H         0.92076318     0.73904869    -0.54161718    -0.00136800     0.00418706     0.00125834
H         0.84464829    -0.27850492     1.90004790     0.00055697    -0.00418564     0.00067466
H        -0.40620720     0.94012716     1.63380639     0.00310167     0.00235052    -0.00132330
H        -0.89108697    -0.44287006    -0.75940473     0.00097982    -0.00277805     0.00040554
     6
  Step:    37            Position(A)                                  Velocity(au)
C        -0.05062979     0.05393765    -0.18147443    -0.00000585    -0.00011100    -0.00040881
N        -0.08007170    -0.16250655     1.49726830    -0.00021199     0.00022532     0.00022776
H         0.90229438     0.78308760    -0.52666829    -0.00200566     0.00383435     0.00146597
H         0.85092158    -0.32593720     1.90829306     0.00050862    -0.00447112     0.00079655
H        -0.37136397     0.96128414     1.62049663     0.00324382     0.00149314    -0.00109330
H        -0.87876905    -0.47269169    -0.75421022     0.00126881    -0.00266476     0.00053716
     6
  Step:    38            Position(A)                                  Velocity(au)
C        -0.05056072     0.05266123    -0.18574698     0.00001814    -0.00012065    -0.00037122
N        -0.08236214    -0.15943282     1.49933071    -0.00019860     0.00033537     0.00015181
H         0.87688562     0.82293237    -0.50954636    -0.00262597     0.00342202     0.00165226
H         0.85577525    -0.37631917     1.91747405     0.00029998    -0.00471333     0.00084215
H        -0.33524245     0.97279235     1.60988846     0.00332621     0.00060190    -0.00083277
H        -0.86332931    -0.50116669    -0.74765342     0.00154343    -0.00253332     0.00065218
     6
  Step:    39            Position(A)                                  Velocity(au)
C        -0.05023293     0.05129821    -0.18959566     0.00004155    -0.00012616    -0.00033082
N        -0.08441639    -0.15516978     1.50058951    -0.00016972     0.00043964     0.00008159
H         0.84484630     0.85795089    -0.49052197    -0.00320343     0.00295135     0.00180893
H         0.85748416    -0.42905028     1.92671675    -0.00004877    -0.00488426     0.00080551
H        -0.29859683     0.97445195     1.60227820     0.00332896    -0.00028882    -0.00055210
H        -0.84500361    -0.52811287    -0.73994245     0.00178660    -0.00238437     0.00074594
     6
  Step:    40            Position(A)                                  Velocity(au)
C        -0.04965166     0.04990117    -0.19298431     0.00006514    -0.00012608    -0.00028472
N        -0.08607508    -0.14981479     1.50111555    -0.00012952     0.00052984     0.00001792
H         0.80680442     0.88749888    -0.46997254    -0.00370620     0.00242383     0.00192171
H         0.85470826    -0.48317179     1.93509623    -0.00048734    -0.00494032     0.00068036
H        -0.26241511     0.96647390     1.59781020     0.00324122    -0.00112914    -0.00027072
H        -0.82424399    -0.55332945    -0.73133452     0.00197596    -0.00221479     0.00081238
     6
  Step:    41            Position(A)                                  Velocity(au)
C        -0.04880777     0.04853986    -0.19582447     0.00008990    -0.00012030    -0.00022782
N        -0.08724992    -0.14357856     1.50098147    -0.00008511     0.00059662    -0.00004072
H         0.76376600     0.91097691    -0.44848081    -0.00411312     0.00186121     0.00197426
H         0.84682256    -0.53712934     1.94160095    -0.00095945    -0.00484186     0.00046781
H        -0.22768898     0.94974980     1.59635573     0.00308781    -0.00184675    -0.00000379
H        -0.80177577    -0.57656566    -0.72217007     0.00209624    -0.00203004     0.00084218
     6
  Step:    42            Position(A)                                  Velocity(au)
C        -0.04768485     0.04726947    -0.19796826     0.00011502    -0.00011128    -0.00015857
N        -0.08793710    -0.13676258     1.50022481    -0.00004090     0.00063533    -0.00009717
H         0.71682200     0.92821645    -0.42678184    -0.00442376     0.00130751     0.00196247
H         0.83371849    -0.58909672     1.94533040    -0.00143895    -0.00459579     0.00018898
H        -0.19486331     0.92607272     1.59772728     0.00290888    -0.00236420     0.00025982
H        -0.77838466    -0.59774043    -0.71291016     0.00215162    -0.00185025     0.00082851
     6
  Step:    43            Position(A)                                  Velocity(au)
C        -0.04629142     0.04610535    -0.19929342     0.00013793    -0.00010246    -0.00008012
N        -0.08814473    -0.12967956     1.49885567     0.00000286     0.00064468    -0.00015319
H         0.66698782     0.93958114    -0.40554800    -0.00463819     0.00080578     0.00189251
H         0.81534273    -0.63767113     1.94573515    -0.00192036    -0.00424078    -0.00012740
H        -0.16405174     0.89802835     1.60203977     0.00272102    -0.00260889     0.00054655
H        -0.75470504    -0.61704339    -0.70404484     0.00215426    -0.00169401     0.00077186
     6
  Step:    44            Position(A)                                  Velocity(au)
C        -0.04466742     0.04502805    -0.19972104     0.00015585    -0.00009700     0.00000428
N        -0.08787455    -0.12265895     1.49687340     0.00004610     0.00062280    -0.00020973
H         0.61535261     0.94584453    -0.38537951    -0.00474588     0.00039397     0.00176883
H         0.79170698    -0.68187184     1.94254339    -0.00239399    -0.00380935    -0.00045996
H        -0.13533575     0.86899816     1.60968410     0.00252837    -0.00251414     0.00087759
H        -0.73125618    -0.63480015    -0.69602433     0.00211365    -0.00156928     0.00067702
     6