    14
  Step:     0            Position(A)                                  Velocity(au)
C        -6.04190298    -0.81659573    -0.17013431     0.00054345    -0.00013737     0.00027391
C        -4.68894561    -0.70184584     0.16363604    -0.00011824    -0.00013572     0.00001289
H        -6.46782498     0.13360192    -0.60200115    -0.00024290     0.00033258    -0.00064172
H        -6.63174967    -1.77160211    -0.16922849     0.00066916     0.00053436    -0.00057115
H        -4.18593876    -1.56608437     0.57318572     0.00010406     0.00071899    -0.00042526
C        -3.91284752     0.49412451     0.03214332    -0.00025308     0.00020959    -0.00009434
C        -2.53168107     0.48572873     0.18494633    -0.00015196     0.00036031    -0.00004514
H        -4.45492754     1.36704372    -0.20297131     0.00008334    -0.00087151    -0.00019435
H        -1.99804625    -0.41009620     0.55742255    -0.00046902     0.00019500    -0.00069700
C        -1.84673617     1.71420622    -0.02447501    -0.00029324    -0.00010966    -0.00018958
H        -2.40783876     2.56681450    -0.32263648     0.00049160     0.00124887     0.00043930
N        -0.51864050     1.77411468     0.16883068     0.00029548    -0.00021103     0.00031929
H         0.02932971     2.63586503     0.02654460    -0.00048193    -0.00050735    -0.00087275
H         0.01942782     1.02288781     0.58955622    -0.00100659    -0.00094838    -0.00097055
    14
  Step:     1            Position(A)                                  Velocity(au)
C        -6.03596263    -0.81799069    -0.16722165     0.00053901    -0.00011457     0.00025623
C        -4.69025271    -0.70334874     0.16381053    -0.00011813    -0.00013600     0.00001887
H        -6.47073944     0.13581115    -0.60855348    -0.00027484     0.00005125    -0.00054239
H        -6.62371210    -1.76458516    -0.17522652     0.00078844     0.00072488    -0.00052176
H        -4.18444915    -1.55873963     0.56847006     0.00018080     0.00059841    -0.00042464
C        -3.91602203     0.49615476     0.03111238    -0.00032523     0.00015821    -0.00009324
C        -2.53299492     0.48980949     0.18451300    -0.00009029     0.00038508    -0.00003466
H        -4.45443910     1.35913261    -0.20563525    -0.00001798    -0.00053661    -0.00030250
H        -2.00349202    -0.40740114     0.54936788    -0.00051886     0.00029035    -0.00077053
C        -1.84997284     1.71276391    -0.02649577    -0.00029517    -0.00014993    -0.00018003
H        -2.40255477     2.58152727    -0.31824685     0.00048408     0.00141230     0.00037095
N        -0.51524373     1.77192338     0.17232353     0.00031914    -0.00018996     0.00031784
H         0.02336424     2.62972275     0.01708573    -0.00058503    -0.00059627    -0.00085607
H         0.00809192     1.01231328     0.57881250    -0.00103811    -0.00100606    -0.00097875
    14
  Step:     2            Position(A)                                  Velocity(au)
C        -6.03011117    -0.81910227    -0.16452871     0.00052753    -0.00008590     0.00023411
C        -4.69152995    -0.70482112     0.16404894    -0.00011229    -0.00013027     0.00002473
H        -6.47383754     0.13472321    -0.61386686    -0.00027953    -0.00026079    -0.00041909
H        -6.61450107    -1.75574395    -0.18064295     0.00087965     0.00086111    -0.00046531
H        -4.18198333    -1.55299299     0.56389594     0.00027975     0.00043210    -0.00040196
C        -3.91996249     0.49758573     0.03010348    -0.00039406     0.00010134    -0.00009068
C        -2.53365629     0.49415314     0.18418799    -0.00003267     0.00040876    -0.00002546
H        -4.45532093     1.35530437    -0.20958917    -0.00015781    -0.00014255    -0.00042567
H        -2.00939724    -0.40374433     0.54056575    -0.00055038     0.00036705    -0.00083176
C        -1.85319366     1.71092630    -0.02841358    -0.00029074    -0.00018151    -0.00017084
H        -2.39724866     2.59771117    -0.31452119     0.00049781     0.00151164     0.00031930
N        -0.51165879     1.76995905     0.17578404     0.00032990    -0.00017020     0.00031373
H         0.01653101     2.62282048     0.00781644    -0.00063657    -0.00064003    -0.00084036
H        -0.00328287     1.00087823     0.56814429    -0.00101606    -0.00110296    -0.00095945
    14
  Step:     3            Position(A)                                  Velocity(au)
C        -6.02442189    -0.81986984    -0.16210012     0.00050977    -0.00005208     0.00020831
C        -4.69270921    -0.70619854     0.16435158    -0.00009980    -0.00011913     0.00003085
H        -6.47685465     0.13010586    -0.61772180    -0.00026325    -0.00058482    -0.00027967
H        -6.60446807    -1.74574664    -0.18540599     0.00093531     0.00093058    -0.00040293
H        -4.17832918    -1.54928665     0.55967644     0.00039365     0.00023324    -0.00036344
C        -3.92464289     0.49837172     0.02912855    -0.00046141     0.00004211    -0.00008751
C        -2.53370960     0.49875193     0.18395591     0.00002072     0.00043196    -0.00001776
H        -4.45789153     1.35601401    -0.21494759    -0.00031460     0.00027129    -0.00055343
H        -2.01553270    -0.39937114     0.53117155    -0.00055886     0.00041818    -0.00087745
C        -1.85633333     1.70879305    -0.03023331    -0.00028068    -0.00020378    -0.00016212
H        -2.39166412     2.61459737    -0.31126148     0.00053489     0.00153822     0.00028587
N        -0.50802656     1.76819989     0.17918692     0.00032831    -0.00015317     0.00030778
H         0.00943806     2.61572091    -0.00129872    -0.00063086    -0.00062916    -0.00082986
H        -0.01413638     0.98818390     0.55782263    -0.00094790    -0.00122953    -0.00091989
    14
  Step:     4            Position(A)                                  Velocity(au)
C        -6.01895901    -0.82024161    -0.15997147     0.00048658    -0.00001410     0.00017971
C        -4.69371332    -0.70742738     0.16472395    -0.00007998    -0.00010389     0.00003777
H        -6.47959659     0.12192925    -0.61998521    -0.00023271    -0.00090247    -0.00013214
H        -6.59403942    -1.73538575    -0.18945789     0.00094992     0.00092408    -0.00033598
H        -4.17337159    -1.54789049     0.55594509     0.00051252     0.00001919    -0.00031692
C        -3.93005669     0.49850695     0.02818900    -0.00052868    -0.00001565    -0.00008470
C        -2.53320307     0.50360316     0.18379939     0.00006925     0.00045490    -0.00001169
H        -4.46220339     1.36123932    -0.22169644    -0.00046399     0.00066114    -0.00067378
H        -2.02162336    -0.39459585     0.52136979    -0.00054090     0.00043848    -0.00090564
C        -1.85933417     1.70646822    -0.03196018    -0.00026557    -0.00021646    -0.00015384
H        -2.38554698     2.63136257    -0.30826714     0.00059335     0.00149035     0.00026992
N        -0.50447640     1.76660812     0.18251731     0.00031584    -0.00014027     0.00030099
H         0.00272982     2.60905637    -0.01033837    -0.00056749    -0.00056145    -0.00082777
H        -0.02401994     0.97397988     0.54802002    -0.00084570    -0.00136891    -0.00087013
    14
  Step:     5            Position(A)                                  Velocity(au)
C        -6.01377700    -0.82017826    -0.15816853     0.00045885     0.00002666     0.00014925
C        -4.69445900    -0.70847142     0.16517778    -0.00005247    -0.00008634     0.00004602
H        -6.48194554     0.11036271    -0.62061260    -0.00019525    -0.00119555     0.00001522
H        -6.58368679    -1.72553052    -0.19275622     0.00092123     0.00083765    -0.00026579
H        -4.16711689    -1.54886683     0.55274327     0.00062495    -0.00019081    -0.00027076
C        -3.93620881     0.49802939     0.02727565    -0.00059631    -0.00006811    -0.00008311
C        -2.53219468     0.50870379     0.18370016     0.00011174     0.00047723    -0.00000726
H        -4.46804224     1.37047774    -0.22968786    -0.00058430     0.00098713    -0.00077546
H        -2.02736584    -0.38977858     0.51135889    -0.00049493     0.00042525    -0.00091581
C        -1.86214321     1.70405765    -0.03359895    -0.00024563    -0.00021942    -0.00014597
H        -2.37868348     2.64720162    -0.30535645     0.00066831     0.00137249     0.00026904
N        -0.50111690     1.76513130     0.18577158     0.00029465    -0.00013259     0.00029429
H        -0.00297686     2.60343809    -0.01940771    -0.00045209    -0.00044353    -0.00083531
H        -0.03263759     0.95823638     0.53878686    -0.00072399    -0.00149934    -0.00082139
    14
  Step:     6            Position(A)                                  Velocity(au)
C        -6.00892074    -0.81965828    -0.15670645     0.00042742     0.00006825     0.00011791
C        -4.69486122    -0.70931616     0.16573083    -0.00001737    -0.00006848     0.00005611
H        -6.48386811     0.09577423    -0.61965226    -0.00015909    -0.00144585     0.00015366
H        -6.57388576    -1.71706057    -0.19527252     0.00085147     0.00067441    -0.00019347
H        -4.15969953    -1.55206476     0.55002165     0.00071988    -0.00037840    -0.00023256
C        -3.94310217     0.49701689     0.02637085    -0.00066351    -0.00011209    -0.00008336
C        -2.53075854     0.51404350     0.18364045     0.00014658     0.00049800    -0.00000438
H        -4.47498598     1.38283462    -0.23866109    -0.00066088     0.00122018    -0.00084996
H        -2.03245101    -0.38529279     0.50133463    -0.00042164     0.00037904    -0.00090895
C        -1.86470771     1.70166798    -0.03515354    -0.00022069    -0.00021263    -0.00013841
H        -2.37092641     2.66138833    -0.30238144     0.00075312     0.00119379     0.00027980
N        -0.49803032     1.76370736     0.18895553     0.00026723    -0.00013067     0.00028838
H        -0.00716051     2.59935333    -0.02861231    -0.00029614    -0.00029116    -0.00085107
H        -0.03985868     0.94117888     0.53005051    -0.00059712    -0.00159814    -0.00078390
    14
  Step:     7            Position(A)                                  Velocity(au)
C        -6.00442628    -0.81868523    -0.15558894     0.00039303     0.00010799     0.00008679
C        -4.69483911    -0.70996962     0.16640533     0.00002469    -0.00005225     0.00006832
H        -6.48542587     0.07873204    -0.61725088    -0.00013347    -0.00163503     0.00027380
H        -6.56505920    -1.71077648    -0.19698881     0.00074812     0.00044603    -0.00011966
H        -4.15136813    -1.55714500     0.54765552     0.00078821    -0.00052861    -0.00020813
C        -3.95072436     0.49557730     0.02545207    -0.00072850    -0.00014540    -0.00008571
C        -2.52898790     0.51959841     0.18360440     0.00017213     0.00051577    -0.00000279
H        -4.48250017     1.39717150    -0.24828228    -0.00068789     0.00134519    -0.00089257
H        -2.03658994    -0.38148644     0.49147387    -0.00032410     0.00030423    -0.00088741
C        -1.86697116     1.69940597    -0.03662690    -0.00019031    -0.00019616    -0.00013107
H        -2.36220755     2.67331815    -0.29923540     0.00084045     0.00096662     0.00029826
N        -0.49527067     1.76227272     0.19208038     0.00023611    -0.00013420     0.00028351
H        -0.00945546     2.59706849    -0.03802643    -0.00011569    -0.00012752    -0.00087083
H        -0.04570075     0.92327394     0.52163758    -0.00047690    -0.00164595    -0.00076515
    14
  Step:     8            Position(A)                                  Velocity(au)
C        -6.00032235    -0.81729579    -0.15480772     0.00035629     0.00014262     0.00005698
C        -4.69432107    -0.71045933     0.16722548     0.00007263    -0.00003921     0.00008270
H        -6.48678792     0.06000479    -0.61366244    -0.00012850    -0.00174541     0.00036582
H        -6.55751931    -1.70730273    -0.19789036     0.00062351     0.00017236    -0.00004443
H        -4.14245599    -1.56362922     0.54546835     0.00082404    -0.00063154    -0.00020088
C        -3.95903951     0.49383606     0.02449571    -0.00078899    -0.00016697    -0.00009014
C        -2.52699290     0.52532694     0.18357948     0.00018710     0.00052885    -0.00000214
H        -4.49003484     1.41226314    -0.25818784    -0.00066744     0.00136034    -0.00090241
H        -2.03954132    -0.37863722     0.48192082    -0.00020777     0.00020903    -0.00085468
C        -1.86887105     1.69737658    -0.03802097    -0.00015397    -0.00017033    -0.00012385
H        -2.35254003     2.68253488    -0.29585633     0.00092300     0.00070534     0.00032037
N        -0.49286506     1.76077146     0.19515779     0.00020358    -0.00014216     0.00027952
H        -0.00969134     2.59656355    -0.04766336     0.00007110     0.00002058    -0.00088820
H        -0.05029168     0.90517053     0.51331148    -0.00037123    -0.00163003    -0.00076893
    14
  Step:     9            Position(A)                                  Velocity(au)
C        -5.99663167    -0.81556511    -0.15434230     0.00031772     0.00016858     0.00002958
C        -4.69325020    -0.71082734     0.16821449     0.00012491    -0.00003042     0.00009903
H        -6.48823712     0.04054796    -0.60924793    -0.00015447    -0.00176138     0.00042042
H        -6.55141872    -1.70700571    -0.19796084     0.00049339    -0.00012080     0.00003243
H        -4.13334070    -1.57096105     0.54326096     0.00082516    -0.00068273    -0.00021162
C        -3.96798511     0.49192447     0.02348007    -0.00084261    -0.00017666    -0.00009638
C        -2.52489464     0.53116810     0.18355750     0.00019085     0.00053553    -0.00000203
H        -4.49710165     1.42693164    -0.26802413    -0.00060720     0.00127400    -0.00088162
H        -2.04113538    -0.37691361     0.47277605    -0.00007993     0.00010464    -0.00081499
C        -1.87033960     1.69567973    -0.03933647    -0.00011130    -0.00013579    -0.00011663
H        -2.34201521     2.68874871    -0.29222679     0.00099389     0.00042569     0.00034209
N        -0.49081696     1.75916278     0.19819546     0.00017158    -0.00015297     0.00027593
H        -0.00790010     2.59751877    -0.05745753     0.00024683     0.00012771    -0.00089591
H        -0.05382204     0.88761381     0.50481583    -0.00028378    -0.00154585    -0.00079528
    14
  Step:    10            Position(A)                                  Velocity(au)
C        -5.99337151    -0.81360777    -0.15416070     0.00027780     0.00018256     0.00000551
C        -4.69158849    -0.71112477     0.16939197     0.00017967    -0.00002649     0.00011690
H        -6.49016728     0.02147133    -0.60446489    -0.00022029    -0.00167219     0.00043026
H        -6.54672545    -1.70994551    -0.19718089     0.00037421    -0.00040552     0.00011113
H        -4.12440400    -1.57856529     0.54083865     0.00079275    -0.00068275    -0.00023902
C        -3.97747327     0.48997126     0.02238724    -0.00088722    -0.00017495    -0.00010404
C        -2.52281777     0.53704260     0.18353500     0.00018335     0.00053427    -0.00000204
H        -4.50331853     1.44013425    -0.27747498    -0.00051770     0.00110065    -0.00083435
H        -2.04129004    -0.37634798     0.46409133     0.00005116     0.00000389    -0.00077271
C        -1.87130591     1.69440594    -0.04057249    -0.00006211    -0.00009362    -0.00010923
H        -2.33079670     2.69184768    -0.28837238     0.00104685     0.00014430     0.00035959
N        -0.48911147     1.75742494     0.20119422     0.00014149    -0.00016491     0.00027205
H        -0.00429146     2.59935740    -0.06726320     0.00039749     0.00017432    -0.00088732
H        -0.05649985     0.87135202     0.49591312    -0.00021450    -0.00139689    -0.00084121
    14
  Step:    11            Position(A)                                  Velocity(au)
C        -5.99055416    -0.81157122    -0.15422174     0.00023696     0.00018221    -0.00001457
C        -4.68931964    -0.71140681     0.17077189     0.00023486    -0.00002759     0.00013572
H        -6.49305632     0.00396571    -0.59983514    -0.00033103    -0.00147568     0.00039212
H        -6.54323219    -1.71587722    -0.19552956     0.00028015    -0.00065618     0.00019157
H        -4.11599770    -1.58589758     0.53803187     0.00073078    -0.00063619    -0.00028009
C        -3.98739480     0.48809707     0.02120396    -0.00092110    -0.00016274    -0.00011269
C        -2.52088352     0.54285629     0.18351284     0.00016517     0.00052397    -0.00000182
H        -4.50842732     1.45101049    -0.28627710    -0.00041030     0.00085787    -0.00076577
H        -2.04001617    -0.37682842     0.45587155     0.00017727    -0.00008060    -0.00073176
C        -1.87169832     1.69363165    -0.04172609    -0.00000643    -0.00004531    -0.00010144
H        -2.31911341     2.69190562    -0.28436000     0.00107620    -0.00012159     0.00036917
N        -0.48772168     1.75555509     0.20414718     0.00011411    -0.00017638     0.00026723
H         0.00079583     2.60133243    -0.07686931     0.00051396     0.00014968    -0.00085764
H        -0.05851463     0.85705422     0.48641276    -0.00016060    -0.00119320    -0.00090168
    14
  Step:    12            Position(A)                                  Velocity(au)
C        -5.98818758    -0.80962157    -0.15447938     0.00019548     0.00016672    -0.00003049
C        -4.68645052    -0.71172844     0.17236115     0.00028835    -0.00003357     0.00015482
H        -6.49740929    -0.01081206    -0.59588656    -0.00048515    -0.00118183     0.00030910
H        -6.54059671    -1.72430080    -0.19298982     0.00022090    -0.00085316     0.00027305
H        -4.10841688    -1.59248317     0.53471124     0.00064523    -0.00055058    -0.00033076
C        -3.99762409     0.48641104     0.01992202    -0.00094301    -0.00014117    -0.00012186
C        -2.51920444     0.54850554     0.18349529     0.00013731     0.00050411    -0.00000112
H        -4.51229458     1.45890188    -0.29422775    -0.00029599     0.00056431    -0.00068152
H        -2.03741197    -0.37811133     0.44808262     0.00029108    -0.00013821    -0.00069515
C        -1.87144660     1.69341471    -0.04279178     0.00005546     0.00000722    -0.00009301
H        -2.30725270     2.68918761    -0.28029611     0.00107698    -0.00035448     0.00036734
N        -0.48661517     1.75356632     0.20704039     0.00008970    -0.00018613     0.00026090
H         0.00695242     2.60263199    -0.08602571     0.00059244     0.00005256    -0.00080476
H        -0.06001332     0.84524838     0.47618715    -0.00011758    -0.00094947    -0.00097069
    14
  Step:    13            Position(A)                                  Velocity(au)
C        -5.98627774    -0.80792381    -0.15488885     0.00015336     0.00013716    -0.00004271
C        -4.68301140    -0.71214126     0.17415886     0.00033808    -0.00004398     0.00017347
H        -6.50366991    -0.02188915    -0.59307308    -0.00067229    -0.00081445     0.00019195
H        -6.53839962    -1.73454183    -0.18955602     0.00020069    -0.00098474     0.00035421
H        -4.10188204    -1.59794267     0.53079592     0.00054337    -0.00043534    -0.00038646
C        -4.00802488     0.48500866     0.01853808    -0.00095219    -0.00011161    -0.00013111
C        -2.51787958     0.55388465     0.18348843     0.00010114     0.00047485     0.00000014
H        -4.51490265     1.46335588    -0.30118674    -0.00018489     0.00023874    -0.00058736
H        -2.03364832    -0.37985207     0.44066388     0.00038686    -0.00016162    -0.00066466
C        -1.87048509     1.69378957    -0.04376089     0.00012302     0.00006167    -0.00008362
H        -2.29555242     2.68415065    -0.27632377     0.00104499    -0.00053715     0.00035092
N        -0.48575924     1.75148323     0.20985484     0.00006811    -0.00019330     0.00025270
H         0.01375666     2.60248225    -0.09447495     0.00063397    -0.00010977    -0.00072936
H        -0.06108681     0.83628265     0.46517712    -0.00008001    -0.00068315    -0.00104203
    14
  Step:    14            Position(A)                                  Velocity(au)
C        -5.98483254    -0.80662084    -0.15541367     0.00011026     0.00009631    -0.00005221
C        -4.67905442    -0.71269062     0.17615624     0.00038215    -0.00005812     0.00019098
H        -6.51211682    -0.02862969    -0.59168734    -0.00087333    -0.00040932     0.00005839
H        -6.53620633    -1.74584379    -0.18524079     0.00021847    -0.00104725     0.00043318
H        -4.09652951    -1.60200709     0.52625665     0.00043314    -0.00030099    -0.00044246
C        -4.01845512     0.48396942     0.01705365    -0.00094834    -0.00007564    -0.00014000
C        -2.51699178     0.55889384     0.18349839     0.00005824     0.00043709     0.00000189
H        -4.51633936     1.46412474    -0.30707727    -0.00008626    -0.00010004    -0.00048914
H        -2.02894869    -0.38164700     0.43354201     0.00046078    -0.00014749    -0.00064087
C        -1.86875533     1.69476384    -0.04462114     0.00019547     0.00011551    -0.00007294
H        -2.28439153     2.67743640    -0.27261913     0.00097710    -0.00065373     0.00031717
N        -0.48512514     1.74933762     0.21256863     0.00004884    -0.00019738     0.00024247
H         0.02082179     2.60023056    -0.10198183     0.00064329    -0.00032365    -0.00063456
H        -0.06176364     0.83030310     0.45339065    -0.00004216    -0.00041304    -0.00110987
    14
  Step:    15            Position(A)                                  Velocity(au)
C        -5.98386569    -0.80581684    -0.15603106     0.00006558     0.00004805    -0.00006034
C        -4.67465124    -0.71341281     0.17833684     0.00041890    -0.00007506     0.00020664
H        -6.52277577    -0.03084391    -0.59179570    -0.00106344    -0.00000837    -0.00007009
H        -6.53362017    -1.75745253    -0.18007929     0.00026916    -0.00104374     0.00050788
H        -4.09240625    -1.60452748     0.52111637     0.00032276    -0.00015876    -0.00049403
C        -4.02877169     0.48335388     0.01547522    -0.00093151    -0.00003514    -0.00014806
C        -2.51660550     0.56344692     0.18352979     0.00001032     0.00039237     0.00000393
H        -4.51678964     1.46116735    -0.31188763    -0.00000870    -0.00043288    -0.00039298
H        -2.02356778    -0.38307880     0.42664362     0.00051088    -0.00009646    -0.00062336
C        -1.86620875     1.69631651    -0.04535649     0.00027176     0.00016618    -0.00006064
H        -2.27417650     2.66984905    -0.26938502     0.00087183    -0.00069166     0.00026422
N        -0.48469083     1.74716509     0.21515924     0.00003121    -0.00019817     0.00023024
H         0.02782984     2.59540177    -0.10835709     0.00062772    -0.00057132    -0.00052536
H        -0.06200910     0.82724652     0.44089652     0.00000160    -0.00015804    -0.00116909
    14
  Step:    16            Position(A)                                  Velocity(au)
C        -5.98339781    -0.80556970    -0.15673378     0.00001884    -0.00000347    -0.00006841
C        -4.66989019    -0.71433266     0.18067678     0.00044696    -0.00009363     0.00021980
H        -6.53538169    -0.02881289    -0.59322070    -0.00121730     0.00034844    -0.00017287
H        -6.53031788    -1.76867763    -0.17413003     0.00034506    -0.00098200     0.00057623
H        -4.08946843    -1.60548020     0.51544878     0.00022046    -0.00002016    -0.00053669
C        -4.03883372     0.48320056     0.01381464    -0.00090203     0.00000771    -0.00015475
C        -2.51676600     0.56747766     0.18358435    -0.00004085     0.00034271     0.00000596
H        -4.51652962     1.45465464    -0.31567438     0.00003960    -0.00074000    -0.00030531
H        -2.01777223    -0.38375723     0.41990492     0.00053682    -0.00001256    -0.00061092
C        -1.86281013     1.69839943    -0.04594767     0.00035047     0.00021144    -0.00004649
H        -2.26531848     2.66230505    -0.26683887     0.00073018    -0.00064419     0.00019150
N        -0.48444240     1.74500237     0.21760552     0.00001448    -0.00019565     0.00021623
H         0.03455427     2.58773175    -0.11347511     0.00059625    -0.00083276    -0.00040815
H        -0.06172866     0.82684571     0.42781463     0.00005636     0.00006406    -0.00121556
    14
  Step:    17            Position(A)                                  Velocity(au)
C        -5.98345359    -0.80589278    -0.15752767    -0.00003006    -0.00005459    -0.00007735
C        -4.66487318    -0.71546120     0.18314532     0.00046523    -0.00011250     0.00022986
H        -6.54940648    -0.02322110    -0.59557752    -0.00131465     0.00063040    -0.00023448
H        -6.52607131    -1.77893575    -0.16747314     0.00043705    -0.00087299     0.00063643
H        -4.08758328    -1.60496851     0.50937526     0.00013412     0.00010333    -0.00056629
C        -4.04850522     0.48352249     0.01208972    -0.00086040     0.00005043    -0.00015951
C        -2.51749921     0.57094442     0.18366010    -0.00009355     0.00029050     0.00000761
H        -4.51592323     1.44497847    -0.31856689     0.00005070    -0.00100073    -0.00023306
H        -2.01182391    -0.38335350     0.41327848     0.00053963     0.00009744    -0.00060192
C        -1.85854151     1.70094217    -0.04637349     0.00042983     0.00024964    -0.00003041
H        -2.25820233     2.65575627    -0.26519555     0.00055650    -0.00051311     0.00010037
N        -0.48437414     1.74288489     0.21988960    -0.00000206    -0.00019007     0.00020081
H         0.04087404     2.57718350    -0.11728607     0.00055890    -0.00108708    -0.00029018
H        -0.06077621     0.82864795     0.41430388     0.00012619     0.00023782    -0.00124637
    14
  Step:    18            Position(A)                                  Velocity(au)
C        -5.98405536    -0.80676391    -0.15842597    -0.00008056    -0.00010258    -0.00008755
C        -4.65971233    -0.71679382     0.18570541     0.00047295    -0.00013018     0.00023629
H        -6.56414214    -0.01502175    -0.59835044    -0.00134385     0.00081985    -0.00024693
H        -6.52075648    -1.78777589    -0.16020681     0.00053562    -0.00072933     0.00068705
H        -4.08653432    -1.60321972     0.50306014     0.00007099     0.00020073    -0.00057920
C        -4.05765665     0.48430386     0.01032497    -0.00080729     0.00009032    -0.00016171
C        -2.51881259     0.57383286     0.18375084    -0.00014616     0.00023824     0.00000850
H        -4.51542053     1.43276175    -0.32077295     0.00001702    -0.00119414    -0.00018344
H        -2.00596679    -0.38162546     0.40673686     0.00052140     0.00022490    -0.00059445
C        -1.85340679     1.70386086    -0.04661293     0.00050761     0.00028007    -0.00001255
H        -2.25314388     2.65107978    -0.26464317     0.00035924    -0.00031082    -0.00000553
N        -0.48448751     1.74084424     0.22199866    -0.00001895    -0.00018192     0.00018453
H         0.04678128     2.56394979    -0.11982328     0.00052609    -0.00131368    -0.00017917
H        -0.05896798     0.83204858     0.40054790     0.00021356     0.00035171    -0.00125998
    14
  Step:    19            Position(A)                                  Velocity(au)
C        -5.98521590    -0.80813697    -0.15944298    -0.00013150    -0.00014575    -0.00009886
C        -4.65452654    -0.71830914     0.18831467     0.00046966    -0.00014516     0.00023866
H        -6.57880582    -0.00528531    -0.60097951    -0.00130255     0.00091216    -0.00020959
H        -6.51435349    -1.79489121    -0.15244261     0.00063143    -0.00056450     0.00072710
H        -4.08603022    -1.60057723     0.49670404     0.00003720     0.00026228    -0.00057258
C        -4.06616615     0.48549838     0.00855196    -0.00074344     0.00012462    -0.00016071
C        -2.52069675     0.57615645     0.18384613    -0.00019723     0.00018844     0.00000826
H        -4.51555082     1.41885445    -0.32258005    -0.00006801    -0.00130059    -0.00016351
H        -2.00041722    -0.37843336     0.40027384     0.00048498     0.00036009    -0.00058660
C        -1.84743656     1.70706929    -0.04664795     0.00058119     0.00030301     0.00000671
H        -2.25034329     2.64895649    -0.26531652     0.00015090    -0.00006015    -0.00012021
N        -0.48478870     1.73890503     0.22392653    -0.00003645    -0.00017200     0.00016805
H         0.05238317     2.54844417    -0.12120583     0.00050807    -0.00149343    -0.00008281
H        -0.05610408     0.83634227     0.38673934     0.00031856     0.00039974    -0.00125631
    14
  Step:    20            Position(A)                                  Velocity(au)
C        -5.98693224    -0.80995249    -0.16058872    -0.00018130    -0.00018320    -0.00011075
C        -4.64943767    -0.71996949     0.19092653     0.00045527    -0.00015607     0.00023666
H        -6.59263797     0.00493342    -0.60293564    -0.00119601     0.00091279    -0.00012749
H        -6.50694264    -1.80012540    -0.14430021     0.00071564    -0.00039235     0.00075608
H        -4.08572040    -1.59748186     0.49053377     0.00003705     0.00028060    -0.00054469
C        -4.07392086     0.48703022     0.00680909    -0.00066980     0.00015091    -0.00015597
C        -2.52312745     0.57795544     0.18393164    -0.00024552     0.00014343     0.00000656
H        -4.51690835     1.40430879    -0.32435004    -0.00020878    -0.00130490    -0.00017905
H        -1.99535693    -0.37374775     0.39390380     0.00043375     0.00049289    -0.00057659
C        -1.84069220     1.71048981    -0.04646618     0.00064763     0.00031960     0.00002673
H        -2.24984265     2.64976383    -0.26727293    -0.00005287     0.00020833    -0.00023590
N        -0.48528484     1.73708137     0.22567498    -0.00005440    -0.00016143     0.00015211