|===============================================================================
|
|  DFTB+ release 20.1
|
|  Copyright (C) 2006 - 2020  DFTB+ developers group
|
|===============================================================================
|
|  When publishing results obtained with DFTB+, please cite the following
|  reference:
|
|  * DFTB+, a software package for efficient approximate density functional
|    theory based atomistic simulations, J. Chem. Phys. 152, 124101 (2020).
|    [doi: 10.1063/1.5143190]
|
|  You should also cite additional publications crediting the parametrization
|  data you use. Please consult the documentation of the SK-files for the
|  references.
|
|===============================================================================

Reading input file 'dftb_in.hsd'
Parser version: 8

--------------------------------------------------------------------------------
Reading SK-files:
Done.


Processed input in HSD format written to 'dftb_pin.hsd'

Starting initialization...
--------------------------------------------------------------------------------
OpenMP threads:              1
Chosen random seed:          503920681
Mode:                        Static calculation
Self consistent charges:     Yes
SCC-tolerance:                 0.100000E-05
Max. scc iterations:                   1000
Shell resolved Hubbard:      No
Spin polarisation:           No
Nr. of up electrons:            16.000000
Nr. of down electrons:          16.000000
Periodic boundaries:         No
Electronic solver:           Relatively robust
Maximal SCC-cycles:                    1000
Initial charges:             Set automatically (system chrg:   0.100E+01)
Included shells:             C:  s, p
                             H:  s
                             N:  s, p
Spin coupling constants:     C   1(s)-1(s):  -0.455900E-01
                             C   1(s)-2(p):  -0.293000E-01
                             C   2(p)-1(s):  -0.293000E-01
                             C   2(p)-2(p):  -0.275500E-01
                             H   1(s)-1(s):  -0.792500E-01
                             N   1(s)-1(s):  -0.468700E-01
                             N   1(s)-2(p):  -0.317000E-01
                             N   2(p)-1(s):  -0.317000E-01
                             N   2(p)-2(p):  -0.307200E-01
Range separated hybrid:      Yes
  Screening parameter omega:   0.300000E+00
  Range separated algorithm:   MatrixBased
Extra options:
                             Mulliken analysis
                             Force calculation
Force type                   original
                             Eigenvector printing


REKS Calcuation:             Yes
SSR(2,2) Calcuation:         Yes
Energy Functional:           (PPS+OSS)/2
Number of Core Orbitals:                 15
Number of Active Orbitals:                2
Number of Basis:                         32
Number of States:                         2
State-Averaging Weight:          0.500000
                                 0.500000
State of Interest:                        1
Initial Guess:               Diagonalize H0 matrix
Newton-Raphson for FON opt:  Yes
NR max. Iterations:                      50
Level Shifting:              Yes
Shift Value:                     0.300000
W Scale Factor:              C  =    3.200000
                             H  =    3.200000
                             N  =    3.200000
Transition Dipole:           No
Gradient of Microstate:      No
CP-REKS Solver:              Preconditioned Conjugate-Gradient
CG max. Iterations:                     100
CG Tolerance:                  0.100000E-07
Memory for A and Hxc:        Direct Updating Without Saving
Non-Adiabatic Coupling:      Yes

--------------------------------------------------------------------------------

***  Geometry step: 0

  iSCC       reks energy        Diff energy         x_a       SCC error   
    1      -16.3938883842       0.0000000000     0.985626    1.25968727
    2      -16.4172926168      -0.0234042326     0.999267    0.06036037
    3      -16.4239870193      -0.0066944024     0.999907    0.03418127
    4      -16.4261946878      -0.0022076686     0.999974    0.02209922
    5      -16.4270458785      -0.0008511907     0.999988    0.01424609
    6      -16.4274355972      -0.0003897187     0.999992    0.00954200
    7      -16.4276413694      -0.0002057722     0.999994    0.00667580
    8      -16.4277622335      -0.0001208641     0.999995    0.00485534
    9      -16.4278392904      -0.0000770570     0.999996    0.00365424
   10      -16.4278919125      -0.0000526220     0.999996    0.00283760
   11      -16.4279301140      -0.0000382016     0.999996    0.00226887
   12      -16.4279594115      -0.0000292975     0.999996    0.00186463
   13      -16.4279829828      -0.0000235713     0.999996    0.00157196
   14      -16.4280027224      -0.0000197396     0.999996    0.00135627
   15      -16.4280197920      -0.0000170695     0.999996    0.00119452
   16      -16.4280349220      -0.0000151301     0.999996    0.00107102
   17      -16.4280485838      -0.0000136618     0.999996    0.00097500
   18      -16.4280610890      -0.0000125052     0.999996    0.00089895
   19      -16.4280726497      -0.0000115607     0.999996    0.00083756
   20      -16.4280834145      -0.0000107648     0.999996    0.00080509
   21      -16.4280934911      -0.0000100767     0.999996    0.00079113
   22      -16.4281029605      -0.0000094693     0.999996    0.00078407
   23      -16.4281118852      -0.0000089248     0.999996    0.00077450
   24      -16.4281203158      -0.0000084306     0.999996    0.00076320
   25      -16.4281282939      -0.0000079781     0.999996    0.00075071
   26      -16.4281358550      -0.0000075611     0.999996    0.00073747
   27      -16.4281430298      -0.0000071748     0.999996    0.00072378
   28      -16.4281498454      -0.0000068156     0.999996    0.00070987
   29      -16.4281563262      -0.0000064808     0.999996    0.00069591
   30      -16.4281624941      -0.0000061679     0.999996    0.00068202
   31      -16.4281683690      -0.0000058750     0.999996    0.00066828
   32      -16.4281739695      -0.0000056004     0.999996    0.00065477
   33      -16.4281793122      -0.0000053427     0.999996    0.00064153
   34      -16.4281844128      -0.0000051006     0.999996    0.00062858
   35      -16.4281892857      -0.0000048729     0.999996    0.00061595
   36      -16.4281939442      -0.0000046585     0.999996    0.00060365
   37      -16.4281984008      -0.0000044566     0.999996    0.00059169
   38      -16.4282026671      -0.0000042663     0.999996    0.00058006
   39      -16.4282067537      -0.0000040866     0.999996    0.00056876
   40      -16.4282106708      -0.0000039171     0.999996    0.00055780
   41      -16.4282144277      -0.0000037569     0.999996    0.00054716
   42      -16.4282180331      -0.0000036054     0.999996    0.00053684
   43      -16.4282214952      -0.0000034621     0.999996    0.00052683
   44      -16.4282248217      -0.0000033265     0.999996    0.00051712
   45      -16.4282280196      -0.0000031980     0.999996    0.00050770
   46      -16.4282310958      -0.0000030762     0.999996    0.00049856
   47      -16.4282340565      -0.0000029607     0.999996    0.00048970
   48      -16.4282369076      -0.0000028511     0.999996    0.00048110
   49      -16.4282396547      -0.0000027470     0.999996    0.00047275
   50      -16.4282423028      -0.0000026481     0.999996    0.00046465
   51      -16.4282448569      -0.0000025541     0.999996    0.00045679
   52      -16.4282473216      -0.0000024647     0.999996    0.00044916
   53      -16.4282497012      -0.0000023796     0.999996    0.00044176
   54      -16.4282519998      -0.0000022986     0.999996    0.00043456
   55      -16.4282542212      -0.0000022214     0.999996    0.00042757
   56      -16.4282563689      -0.0000021478     0.999996    0.00042078
   57      -16.4282584465      -0.0000020776     0.999996    0.00041419
   58      -16.4282604571      -0.0000020106     0.999996    0.00040778
   59      -16.4282624038      -0.0000019467     0.999996    0.00040154
   60      -16.4282642894      -0.0000018856     0.999996    0.00039548
   61      -16.4282661166      -0.0000018272     0.999996    0.00038959
   62      -16.4282678880      -0.0000017714     0.999996    0.00038385
   63      -16.4282696060      -0.0000017180     0.999996    0.00037827
   64      -16.4282712729      -0.0000016669     0.999996    0.00037284
   65      -16.4282728908      -0.0000016180     0.999996    0.00036756
   66      -16.4282744620      -0.0000015711     0.999996    0.00036242
   67      -16.4282759882      -0.0000015262     0.999996    0.00035741
   68      -16.4282774713      -0.0000014831     0.999996    0.00035253
   69      -16.4282789131      -0.0000014418     0.999996    0.00034778
   70      -16.4282803154      -0.0000014022     0.999996    0.00034314
   71      -16.4282816795      -0.0000013642     0.999996    0.00033863
   72      -16.4282830071      -0.0000013276     0.999996    0.00033423
   73      -16.4282842997      -0.0000012925     0.999996    0.00032995
   74      -16.4282855585      -0.0000012588     0.999996    0.00032576
   75      -16.4282867848      -0.0000012263     0.999996    0.00032169
   76      -16.4282879800      -0.0000011951     0.999996    0.00031771
   77      -16.4282891451      -0.0000011651     0.999996    0.00031383
   78      -16.4282902813      -0.0000011362     0.999996    0.00031004
   79      -16.4282913897      -0.0000011084     0.999996    0.00030634
   80      -16.4282924713      -0.0000010816     0.999996    0.00030274
   81      -16.4282935270      -0.0000010557     0.999996    0.00029921
   82      -16.4282945578      -0.0000010308     0.999996    0.00029577
   83      -16.4282955647      -0.0000010068     0.999996    0.00029241
   84      -16.4282965483      -0.0000009837     0.999996    0.00028913
   85      -16.4282975096      -0.0000009613     0.999996    0.00028593
   86      -16.4282984494      -0.0000009397     0.999996    0.00028279
   87      -16.4282993683      -0.0000009189     0.999996    0.00027973
   88      -16.4283002670      -0.0000008988     0.999996    0.00027674
   89      -16.4283011464      -0.0000008793     0.999996    0.00027381
   90      -16.4283020069      -0.0000008605     0.999996    0.00027095
   91      -16.4283028493      -0.0000008424     0.999996    0.00026816
   92      -16.4283036741      -0.0000008248     0.999996    0.00026542
   93      -16.4283044819      -0.0000008078     0.999996    0.00026275
   94      -16.4283052733      -0.0000007914     0.999996    0.00026013
   95      -16.4283060487      -0.0000007755     0.999996    0.00025757
   96      -16.4283068088      -0.0000007600     0.999996    0.00025506
   97      -16.4283075539      -0.0000007451     0.999996    0.00025260
   98      -16.4283082845      -0.0000007307     0.999996    0.00025020
   99      -16.4283090012      -0.0000007167     0.999996    0.00024785
  100      -16.4283097043      -0.0000007031     0.999996    0.00024555
  101      -16.4283103942      -0.0000006899     0.999996    0.00024329
  102      -16.4283110714      -0.0000006772     0.999996    0.00024109
  103      -16.4283117362      -0.0000006648     0.999996    0.00023892
  104      -16.4283123890      -0.0000006528     0.999996    0.00023680
  105      -16.4283130301      -0.0000006411     0.999996    0.00023473
  106      -16.4283136599      -0.0000006298     0.999996    0.00023269
  107      -16.4283142787      -0.0000006188     0.999996    0.00023070
  108      -16.4283148869      -0.0000006082     0.999996    0.00022875
  109      -16.4283154847      -0.0000005978     0.999996    0.00022683
  110      -16.4283160725      -0.0000005878     0.999996    0.00022495
  111      -16.4283166505      -0.0000005780     0.999996    0.00022311
  112      -16.4283172189      -0.0000005685     0.999996    0.00022131
  113      -16.4283177782      -0.0000005592     0.999996    0.00021953
  114      -16.4283183284      -0.0000005502     0.999996    0.00021780
  115      -16.4283188699      -0.0000005415     0.999996    0.00021610
  116      -16.4283194029      -0.0000005330     0.999996    0.00021442
  117      -16.4283199277      -0.0000005247     0.999996    0.00021279
  118      -16.4283204444      -0.0000005167     0.999996    0.00021118
  119      -16.4283209532      -0.0000005089     0.999996    0.00020960
  120      -16.4283214545      -0.0000005012     0.999996    0.00020805
  121      -16.4283219483      -0.0000004938     0.999996    0.00020653
  122      -16.4283224348      -0.0000004866     0.999996    0.00020504
  123      -16.4283229144      -0.0000004795     0.999996    0.00020357
  124      -16.4283233870      -0.0000004727     0.999996    0.00020213
  125      -16.4283238530      -0.0000004660     0.999996    0.00020072
  126      -16.4283243125      -0.0000004595     0.999996    0.00019933
  127      -16.4283247656      -0.0000004531     0.999997    0.00019797
  128      -16.4283252125      -0.0000004469     0.999997    0.00019664
  129      -16.4283256533      -0.0000004409     0.999997    0.00019532
  130      -16.4283260883      -0.0000004350     0.999997    0.00019403
  131      -16.4283265175      -0.0000004292     0.999997    0.00019276
  132      -16.4283269412      -0.0000004236     0.999997    0.00019152
  133      -16.4283273593      -0.0000004181     0.999997    0.00019030
  134      -16.4283277721      -0.0000004128     0.999997    0.00018909
  135      -16.4283281797      -0.0000004076     0.999997    0.00018791
  136      -16.4283285822      -0.0000004025     0.999997    0.00018675
  137      -16.4283289798      -0.0000003975     0.999997    0.00018561
  138      -16.4283293725      -0.0000003927     0.999997    0.00018449
  139      -16.4283297604      -0.0000003880     0.999997    0.00018339
  140      -16.4283301438      -0.0000003833     0.999997    0.00018230
  141      -16.4283305226      -0.0000003788     0.999997    0.00018124
  142      -16.4283308970      -0.0000003744     0.999997    0.00018019
  143      -16.4283312670      -0.0000003701     0.999997    0.00017916
  144      -16.4283316329      -0.0000003659     0.999997    0.00017815
  145      -16.4283319946      -0.0000003617     0.999997    0.00017715
  146      -16.4283323523      -0.0000003577     0.999997    0.00017617
  147      -16.4283327061      -0.0000003538     0.999997    0.00017521
  148      -16.4283330560      -0.0000003499     0.999997    0.00017426
  149      -16.4283334021      -0.0000003461     0.999997    0.00017333
  150      -16.4283337446      -0.0000003425     0.999997    0.00017241
  151      -16.4283340834      -0.0000003388     0.999997    0.00017151
  152      -16.4283344188      -0.0000003353     0.999997    0.00017062
  153      -16.4283347506      -0.0000003319     0.999997    0.00016975
  154      -16.4283350791      -0.0000003285     0.999997    0.00016889
  155      -16.4283354043      -0.0000003252     0.999997    0.00016804
  156      -16.4283357262      -0.0000003219     0.999997    0.00016721
  157      -16.4283360450      -0.0000003188     0.999997    0.00016639
  158      -16.4283363607      -0.0000003157     0.999997    0.00016559
  159      -16.4283366733      -0.0000003126     0.999997    0.00016480
  160      -16.4283369830      -0.0000003097     0.999997    0.00016402
  161      -16.4283372898      -0.0000003068     0.999997    0.00016325
  162      -16.4283375937      -0.0000003039     0.999997    0.00016249
  163      -16.4283378948      -0.0000003011     0.999997    0.00016175
  164      -16.4283381931      -0.0000002984     0.999997    0.00016101
  165      -16.4283384888      -0.0000002957     0.999997    0.00016029
  166      -16.4283387819      -0.0000002931     0.999997    0.00015958
  167      -16.4283390724      -0.0000002905     0.999997    0.00015888
  168      -16.4283393603      -0.0000002880     0.999997    0.00015819
  169      -16.4283396458      -0.0000002855     0.999997    0.00015751
  170      -16.4283399289      -0.0000002831     0.999997    0.00015685
  171      -16.4283402096      -0.0000002807     0.999997    0.00015619
  172      -16.4283404879      -0.0000002784     0.999997    0.00015554
  173      -16.4283407640      -0.0000002761     0.999997    0.00015490
  174      -16.4283410378      -0.0000002738     0.999997    0.00015427
  175      -16.4283413095      -0.0000002716     0.999997    0.00015365
  176      -16.4283415790      -0.0000002695     0.999997    0.00015304
  177      -16.4283418463      -0.0000002674     0.999997    0.00015244
  178      -16.4283421116      -0.0000002653     0.999997    0.00015185
  179      -16.4283423749      -0.0000002633     0.999997    0.00015127
  180      -16.4283426362      -0.0000002613     0.999997    0.00015069
  181      -16.4283428955      -0.0000002593     0.999997    0.00015013
  182      -16.4283431528      -0.0000002574     0.999997    0.00014957
  183      -16.4283434083      -0.0000002555     0.999997    0.00014902
  184      -16.4283436620      -0.0000002537     0.999997    0.00014848
  185      -16.4283439138      -0.0000002518     0.999997    0.00014795
  186      -16.4283441639      -0.0000002501     0.999997    0.00014742
  187      -16.4283444122      -0.0000002483     0.999997    0.00014690
  188      -16.4283446588      -0.0000002466     0.999997    0.00014639
  189      -16.4283449037      -0.0000002449     0.999997    0.00014589
  190      -16.4283451469      -0.0000002432     0.999997    0.00014539
  191      -16.4283453885      -0.0000002416     0.999997    0.00014490
  192      -16.4283456285      -0.0000002400     0.999997    0.00014442
  193      -16.4283458670      -0.0000002384     0.999997    0.00014394
  194      -16.4283461039      -0.0000002369     0.999997    0.00014348
  195      -16.4283463393      -0.0000002354     0.999997    0.00014301
  196      -16.4283465732      -0.0000002339     0.999997    0.00014256
  197      -16.4283468057      -0.0000002325     0.999997    0.00014211
  198      -16.4283470367      -0.0000002310     0.999997    0.00014167
  199      -16.4283472663      -0.0000002296     0.999997    0.00014123
  200      -16.4283474945      -0.0000002282     0.999997    0.00014080
  201      -16.4283477214      -0.0000002269     0.999998    0.00014038
  202      -16.4283479469      -0.0000002255     0.999998    0.00013996
  203      -16.4283481711      -0.0000002242     0.999998    0.00013955
  204      -16.4283483940      -0.0000002229     0.999998    0.00013914
  205      -16.4283486157      -0.0000002217     0.999998    0.00013874
  206      -16.4283488361      -0.0000002204     0.999998    0.00013834
  207      -16.4283490552      -0.0000002192     0.999998    0.00013795
  208      -16.4283492732      -0.0000002180     0.999998    0.00013757
  209      -16.4283494900      -0.0000002168     0.999998    0.00013719
  210      -16.4283497056      -0.0000002156     0.999998    0.00013682
  211      -16.4283499201      -0.0000002145     0.999998    0.00013645
  212      -16.4283501335      -0.0000002133     0.999998    0.00013608
  213      -16.4283503457      -0.0000002122     0.999998    0.00013572
  214      -16.4283505568      -0.0000002112     0.999998    0.00013537
  215      -16.4283507669      -0.0000002101     0.999998    0.00013502
  216      -16.4283509760      -0.0000002090     0.999998    0.00013468
  217      -16.4283511839      -0.0000002080     0.999998    0.00013433
  218      -16.4283513909      -0.0000002070     0.999998    0.00013400
  219      -16.4283515969      -0.0000002060     0.999998    0.00013367
  220      -16.4283518019      -0.0000002050     0.999998    0.00013334
  221      -16.4283520059      -0.0000002040     0.999998    0.00013302
  222      -16.4283522089      -0.0000002031     0.999998    0.00013270
  223      -16.4283524110      -0.0000002021     0.999998    0.00013239
  224      -16.4283526122      -0.0000002012     0.999998    0.00013208
  225      -16.4283528125      -0.0000002003     0.999998    0.00013177
  226      -16.4283530119      -0.0000001994     0.999998    0.00013147
  227      -16.4283532104      -0.0000001985     0.999998    0.00013117
  228      -16.4283534080      -0.0000001976     0.999998    0.00013088
  229      -16.4283536048      -0.0000001968     0.999998    0.00013059
  230      -16.4283538008      -0.0000001959     0.999998    0.00013030
  231      -16.4283539959      -0.0000001951     0.999998    0.00013002
  232      -16.4283541902      -0.0000001943     0.999998    0.00012974
  233      -16.4283543837      -0.0000001935     0.999998    0.00012946
  234      -16.4283545764      -0.0000001927     0.999998    0.00012919
  235      -16.4283547683      -0.0000001919     0.999998    0.00012892
  236      -16.4283549595      -0.0000001912     0.999998    0.00012865
  237      -16.4283551499      -0.0000001904     0.999998    0.00012839
  238      -16.4283553395      -0.0000001897     0.999998    0.00012813
  239      -16.4283555285      -0.0000001889     0.999998    0.00012788
  240      -16.4283557167      -0.0000001882     0.999998    0.00012762
  241      -16.4283559042      -0.0000001875     0.999998    0.00012737
  242      -16.4283560910      -0.0000001868     0.999998    0.00012713
  243      -16.4283562771      -0.0000001861     0.999998    0.00012688
  244      -16.4283564625      -0.0000001854     0.999998    0.00012664
  245      -16.4283566473      -0.0000001848     0.999998    0.00012641
  246      -16.4283568314      -0.0000001841     0.999998    0.00012617
  247      -16.4283570149      -0.0000001835     0.999998    0.00012594
  248      -16.4283571977      -0.0000001828     0.999998    0.00012571
  249      -16.4283573799      -0.0000001822     0.999998    0.00012548
  250      -16.4283575614      -0.0000001816     0.999998    0.00012526
  251      -16.4283577424      -0.0000001809     0.999998    0.00012504
  252      -16.4283579227      -0.0000001803     0.999998    0.00012482
  253      -16.4283581025      -0.0000001797     0.999998    0.00012460
  254      -16.4283582816      -0.0000001792     0.999998    0.00012439
  255      -16.4283584602      -0.0000001786     0.999998    0.00012418
  256      -16.4283586382      -0.0000001780     0.999998    0.00012397
  257      -16.4283588157      -0.0000001774     0.999998    0.00012376
  258      -16.4283589925      -0.0000001769     0.999998    0.00012356
  259      -16.4283591689      -0.0000001763     0.999998    0.00012336
  260      -16.4283593447      -0.0000001758     0.999998    0.00012316
  261      -16.4283595199      -0.0000001753     0.999998    0.00012296
  262      -16.4283596947      -0.0000001747     0.999998    0.00012276
  263      -16.4283598689      -0.0000001742     0.999998    0.00012257
  264      -16.4283600426      -0.0000001737     0.999998    0.00012238
  265      -16.4283602158      -0.0000001732     0.999998    0.00012219
  266      -16.4283603885      -0.0000001727     0.999998    0.00012200
  267      -16.4283605607      -0.0000001722     0.999998    0.00012181
  268      -16.4283607324      -0.0000001717     0.999998    0.00012163
  269      -16.4283609036      -0.0000001712     0.999998    0.00012145
  270      -16.4283610744      -0.0000001708     0.999998    0.00012127
  271      -16.4283612447      -0.0000001703     0.999998    0.00012109
  272      -16.4283614145      -0.0000001698     0.999998    0.00012091
  273      -16.4283615839      -0.0000001694     0.999998    0.00012074
  274      -16.4283617528      -0.0000001689     0.999998    0.00012057
  275      -16.4283619213      -0.0000001685     0.999998    0.00012040
  276      -16.4283620893      -0.0000001680     0.999998    0.00012023
  277      -16.4283622569      -0.0000001676     0.999998    0.00012006
  278      -16.4283624240      -0.0000001672     0.999998    0.00011989
  279      -16.4283625908      -0.0000001667     0.999998    0.00011972
  280      -16.4283627571      -0.0000001663     0.999998    0.00011956
  281      -16.4283629230      -0.0000001659     0.999998    0.00011940
  282      -16.4283630884      -0.0000001655     0.999998    0.00011924
  283      -16.4283632535      -0.0000001651     0.999998    0.00011908
  284      -16.4283634182      -0.0000001647     0.999998    0.00011892
  285      -16.4283635824      -0.0000001643     0.999998    0.00011876
  286      -16.4283637463      -0.0000001639     0.999998    0.00011861
  287      -16.4283639098      -0.0000001635     0.999998    0.00011845
  288      -16.4283640729      -0.0000001631     0.999998    0.00011830
  289      -16.4283642356      -0.0000001627     0.999998    0.00011815
  290      -16.4283643979      -0.0000001623     0.999998    0.00011800
  291      -16.4283645598      -0.0000001619     0.999998    0.00011785
  292      -16.4283647214      -0.0000001616     0.999998    0.00011770
  293      -16.4283648826      -0.0000001612     0.999998    0.00011755
  294      -16.4283650435      -0.0000001608     0.999998    0.00011740
  295      -16.4283652040      -0.0000001605     0.999998    0.00011726
  296      -16.4283653641      -0.0000001601     0.999998    0.00011711
  297      -16.4283655238      -0.0000001598     0.999998    0.00011697
  298      -16.4283656832      -0.0000001594     0.999998    0.00011682
  299      -16.4283658423      -0.0000001591     0.999998    0.00011668
  300      -16.4283660010      -0.0000001587     0.999998    0.00011654
  301      -16.4283661594      -0.0000001584     0.999999    0.00011640
  302      -16.4283663174      -0.0000001580     0.999999    0.00011626
  303      -16.4283664751      -0.0000001577     0.999999    0.00011612
  304      -16.4283666324      -0.0000001573     0.999999    0.00011598
  305      -16.4283667895      -0.0000001570     0.999999    0.00011585
  306      -16.4283669461      -0.0000001567     0.999999    0.00011571
  307      -16.4283671025      -0.0000001564     0.999999    0.00011557
  308      -16.4283672585      -0.0000001560     0.999999    0.00011544
  309      -16.4283674142      -0.0000001557     0.999999    0.00011530
  310      -16.4283675696      -0.0000001554     0.999999    0.00011517
  311      -16.4283677246      -0.0000001551     0.999999    0.00011503
  312      -16.4283678794      -0.0000001547     0.999999    0.00011490
  313      -16.4283680338      -0.0000001544     0.999999    0.00011477
  314      -16.4283681879      -0.0000001541     0.999999    0.00011463
  315      -16.4283683417      -0.0000001538     0.999999    0.00011450
  316      -16.4283684952      -0.0000001535     0.999999    0.00011437
  317      -16.4283686483      -0.0000001532     0.999999    0.00011424
  318      -16.4283688012      -0.0000001529     0.999999    0.00011411
  319      -16.4283689537      -0.0000001525     0.999999    0.00011398
  320      -16.4283691059      -0.0000001522     0.999999    0.00011385
  321      -16.4283692579      -0.0000001519     0.999999    0.00011372
  322      -16.4283694095      -0.0000001516     0.999999    0.00011359
  323      -16.4283695608      -0.0000001513     0.999999    0.00011346
  324      -16.4283697118      -0.0000001510     0.999999    0.00011333
  325      -16.4283698626      -0.0000001507     0.999999    0.00011320
  326      -16.4283700130      -0.0000001504     0.999999    0.00011307
  327      -16.4283701631      -0.0000001501     0.999999    0.00011294
  328      -16.4283703129      -0.0000001498     0.999999    0.00011281
  329      -16.4283704624      -0.0000001495     0.999999    0.00011268
  330      -16.4283706116      -0.0000001492     0.999999    0.00011255
  331      -16.4283707606      -0.0000001489     0.999999    0.00011243
  332      -16.4283709092      -0.0000001486     0.999999    0.00011230
  333      -16.4283710575      -0.0000001483     0.999999    0.00011217
  334      -16.4283712055      -0.0000001480     0.999999    0.00011204
  335      -16.4283713533      -0.0000001477     0.999999    0.00011191
  336      -16.4283715007      -0.0000001474     0.999999    0.00011178
  337      -16.4283716479      -0.0000001471     0.999999    0.00011166
  338      -16.4283717947      -0.0000001469     0.999999    0.00011153
  339      -16.4283719413      -0.0000001466     0.999999    0.00011140
  340      -16.4283720875      -0.0000001463     0.999999    0.00011127
  341      -16.4283722335      -0.0000001460     0.999999    0.00011114
  342      -16.4283723792      -0.0000001457     0.999999    0.00011101
  343      -16.4283725245      -0.0000001454     0.999999    0.00011088
  344      -16.4283726696      -0.0000001451     0.999999    0.00011075
  345      -16.4283728144      -0.0000001448     0.999999    0.00011062
  346      -16.4283729589      -0.0000001445     0.999999    0.00011049
  347      -16.4283731031      -0.0000001442     0.999999    0.00011036
  348      -16.4283732470      -0.0000001439     0.999999    0.00011023
  349      -16.4283733906      -0.0000001436     0.999999    0.00011010
  350      -16.4283735339      -0.0000001433     0.999999    0.00010997
  351      -16.4283736769      -0.0000001430     0.999999    0.00010983
  352      -16.4283738196      -0.0000001427     0.999999    0.00010970
  353      -16.4283739620      -0.0000001424     0.999999    0.00010957
  354      -16.4283741041      -0.0000001421     0.999999    0.00010943
  355      -16.4283742459      -0.0000001418     0.999999    0.00010930
  356      -16.4283743874      -0.0000001415     0.999999    0.00010917
  357      -16.4283745286      -0.0000001412     0.999999    0.00010903
  358      -16.4283746695      -0.0000001409     0.999999    0.00010890
  359      -16.4283748101      -0.0000001406     0.999999    0.00010876
  360      -16.4283749504      -0.0000001403     0.999999    0.00010863
  361      -16.4283750904      -0.0000001400     0.999999    0.00010849
  362      -16.4283752301      -0.0000001397     0.999999    0.00010835
  363      -16.4283753695      -0.0000001394     0.999999    0.00010821
  364      -16.4283755085      -0.0000001391     0.999999    0.00010808
  365      -16.4283756473      -0.0000001388     0.999999    0.00010794
  366      -16.4283757857      -0.0000001384     0.999999    0.00010780
  367      -16.4283759239      -0.0000001381     0.999999    0.00010766
  368      -16.4283760617      -0.0000001378     0.999999    0.00010752
  369      -16.4283761992      -0.0000001375     0.999999    0.00010737
  370      -16.4283763364      -0.0000001372     0.999999    0.00010723
  371      -16.4283764732      -0.0000001369     0.999999    0.00010709
  372      -16.4283766098      -0.0000001366     0.999999    0.00010695
  373      -16.4283767460      -0.0000001362     0.999999    0.00010680
  374      -16.4283768819      -0.0000001359     0.999999    0.00010666
  375      -16.4283770175      -0.0000001356     0.999999    0.00010651
  376      -16.4283771528      -0.0000001353     0.999999    0.00010636
  377      -16.4283772877      -0.0000001349     0.999999    0.00010622
  378      -16.4283774223      -0.0000001346     0.999999    0.00010607
  379      -16.4283775566      -0.0000001343     0.999999    0.00010592
  380      -16.4283776906      -0.0000001339     0.999999    0.00010577
  381      -16.4283778242      -0.0000001336     0.999999    0.00010562
  382      -16.4283779575      -0.0000001333     0.999999    0.00010546
  383      -16.4283780904      -0.0000001329     0.999999    0.00010531
  384      -16.4283782230      -0.0000001326     0.999999    0.00010516
  385      -16.4283783553      -0.0000001323     0.999999    0.00010500
  386      -16.4283784872      -0.0000001319     0.999999    0.00010485
  387      -16.4283786188      -0.0000001316     0.999999    0.00010469
  388      -16.4283787500      -0.0000001312     0.999999    0.00010454
  389      -16.4283788809      -0.0000001309     0.999999    0.00010438
  390      -16.4283790115      -0.0000001305     0.999999    0.00010422
  391      -16.4283791416      -0.0000001302     0.999999    0.00010406
  392      -16.4283792715      -0.0000001298     0.999999    0.00010390
  393      -16.4283794010      -0.0000001295     0.999999    0.00010373
  394      -16.4283795301      -0.0000001291     0.999999    0.00010357
  395      -16.4283796589      -0.0000001288     0.999999    0.00010341
  396      -16.4283797873      -0.0000001284     0.999999    0.00010324
  397      -16.4283799153      -0.0000001280     0.999999    0.00010308
  398      -16.4283800430      -0.0000001277     0.999999    0.00010291
  399      -16.4283801703      -0.0000001273     0.999999    0.00010274
  400      -16.4283802972      -0.0000001269     0.999999    0.00010257
  401      -16.4283804238      -0.0000001266     0.999999    0.00010240
  402      -16.4283805500      -0.0000001262     0.999999    0.00010223
  403      -16.4283806758      -0.0000001258     0.999999    0.00010206
  404      -16.4283808013      -0.0000001254     0.999999    0.00010188
  405      -16.4283809263      -0.0000001251     0.999999    0.00010171
  406      -16.4283810510      -0.0000001247     0.999999    0.00010153
  407      -16.4283811753      -0.0000001243     0.999999    0.00010136
  408      -16.4283812992      -0.0000001239     0.999999    0.00010118
  409      -16.4283814227      -0.0000001235     0.999999    0.00010100
  410      -16.4283815459      -0.0000001231     0.999999    0.00010082
  411      -16.4283816686      -0.0000001227     0.999999    0.00010064
  412      -16.4283817910      -0.0000001223     0.999999    0.00010045
  413      -16.4283819129      -0.0000001219     0.999999    0.00010027
  414      -16.4283820345      -0.0000001216     0.999999    0.00010009
  415      -16.4283821556      -0.0000001211     0.999999    0.00009990
  416      -16.4283822764      -0.0000001207     0.999999    0.00009971
  417      -16.4283823967      -0.0000001203     0.999999    0.00009952
  418      -16.4283825166      -0.0000001199     0.999999    0.00009933
  419      -16.4283826362      -0.0000001195     0.999999    0.00009914
  420      -16.4283827553      -0.0000001191     0.999999    0.00009895
  421      -16.4283828740      -0.0000001187     0.999999    0.00009876
  422      -16.4283829922      -0.0000001183     0.999999    0.00009856
  423      -16.4283831101      -0.0000001179     0.999999    0.00009837
  424      -16.4283832275      -0.0000001174     0.999999    0.00009817
  425      -16.4283833445      -0.0000001170     0.999999    0.00009797
  426      -16.4283834611      -0.0000001166     0.999999    0.00009777
  427      -16.4283835773      -0.0000001162     0.999999    0.00009757
  428      -16.4283836930      -0.0000001157     0.999999    0.00009737
  429      -16.4283838083      -0.0000001153     0.999999    0.00009717
  430      -16.4283839232      -0.0000001149     0.999999    0.00009697
  431      -16.4283840376      -0.0000001144     0.999999    0.00009676
  432      -16.4283841516      -0.0000001140     0.999999    0.00009655
  433      -16.4283842651      -0.0000001135     0.999999    0.00009635
  434      -16.4283843782      -0.0000001131     0.999999    0.00009614
  435      -16.4283844909      -0.0000001127     0.999999    0.00009593
  436      -16.4283846031      -0.0000001122     0.999999    0.00009572
  437      -16.4283847149      -0.0000001118     0.999999    0.00009550
  438      -16.4283848262      -0.0000001113     0.999999    0.00009529
  439      -16.4283849371      -0.0000001109     0.999999    0.00009507
  440      -16.4283850475      -0.0000001104     0.999999    0.00009486
  441      -16.4283851574      -0.0000001099     0.999999    0.00009464
  442      -16.4283852669      -0.0000001095     0.999999    0.00009442
  443      -16.4283853759      -0.0000001090     0.999999    0.00009420
  444      -16.4283854845      -0.0000001086     0.999999    0.00009398
  445      -16.4283855926      -0.0000001081     0.999999    0.00009376
  446      -16.4283857002      -0.0000001076     0.999999    0.00009353
  447      -16.4283858074      -0.0000001072     0.999999    0.00009331
  448      -16.4283859141      -0.0000001067     0.999999    0.00009308
  449      -16.4283860203      -0.0000001062     0.999999    0.00009286
  450      -16.4283861260      -0.0000001057     0.999999    0.00009263
  451      -16.4283862313      -0.0000001053     0.999999    0.00009240
  452      -16.4283863361      -0.0000001048     0.999999    0.00009217
  453      -16.4283864404      -0.0000001043     0.999999    0.00009194
  454      -16.4283865442      -0.0000001038     0.999999    0.00009170
  455      -16.4283866476      -0.0000001033     0.999999    0.00009147
  456      -16.4283867505      -0.0000001029     0.999999    0.00009123
  457      -16.4283868528      -0.0000001024     0.999999    0.00009100
  458      -16.4283869547      -0.0000001019     0.999999    0.00009076
  459      -16.4283870561      -0.0000001014     0.999999    0.00009052
  460      -16.4283871570      -0.0000001009     0.999999    0.00009028
  461      -16.4283872574      -0.0000001004     0.999999    0.00009004
  462      -16.4283873574      -0.0000000999     0.999999    0.00008980
  463      -16.4283874568      -0.0000000994     0.999999    0.00008955
  464      -16.4283875557      -0.0000000989     0.999999    0.00008931
  465      -16.4283876542      -0.0000000984     0.999999    0.00008906
  466      -16.4283877521      -0.0000000979     0.999999    0.00008882
  467      -16.4283878495      -0.0000000974     0.999999    0.00008857
  468      -16.4283879464      -0.0000000969     0.999999    0.00008832
  469      -16.4283880429      -0.0000000964     0.999999    0.00008807
  470      -16.4283881388      -0.0000000959     0.999999    0.00008782
  471      -16.4283882342      -0.0000000954     0.999999    0.00008756
  472      -16.4283883291      -0.0000000949     0.999999    0.00008731
  473      -16.4283884235      -0.0000000944     0.999999    0.00008706
  474      -16.4283885174      -0.0000000939     0.999999    0.00008680
  475      -16.4283886108      -0.0000000934     0.999999    0.00008655
  476      -16.4283887036      -0.0000000929     0.999999    0.00008629
  477      -16.4283887960      -0.0000000924     0.999999    0.00008603
  478      -16.4283888878      -0.0000000918     0.999999    0.00008577
  479      -16.4283889791      -0.0000000913     0.999999    0.00008551
  480      -16.4283890700      -0.0000000908     0.999999    0.00008525
  481      -16.4283891602      -0.0000000903     0.999999    0.00008498
  482      -16.4283892500      -0.0000000898     0.999999    0.00008472
  483      -16.4283893393      -0.0000000893     0.999999    0.00008446
  484      -16.4283894280      -0.0000000887     0.999999    0.00008419
  485      -16.4283895162      -0.0000000882     0.999999    0.00008393
  486      -16.4283896039      -0.0000000877     0.999999    0.00008366
  487      -16.4283896911      -0.0000000872     0.999999    0.00008339
  488      -16.4283897778      -0.0000000867     0.999999    0.00008312
  489      -16.4283898639      -0.0000000861     0.999999    0.00008285
  490      -16.4283899495      -0.0000000856     0.999999    0.00008258
  491      -16.4283900346      -0.0000000851     0.999999    0.00008231
  492      -16.4283901192      -0.0000000846     1.000000    0.00008204
  493      -16.4283902032      -0.0000000840     1.000000    0.00008176
  494      -16.4283902868      -0.0000000835     1.000000    0.00008149
  495      -16.4283903698      -0.0000000830     1.000000    0.00008121
  496      -16.4283904522      -0.0000000825     1.000000    0.00008094
  497      -16.4283905342      -0.0000000819     1.000000    0.00008066
  498      -16.4283906156      -0.0000000814     1.000000    0.00008038
  499      -16.4283906965      -0.0000000809     1.000000    0.00008011
  500      -16.4283907769      -0.0000000804     1.000000    0.00007983
  501      -16.4283908567      -0.0000000799     1.000000    0.00007955
  502      -16.4283909361      -0.0000000793     1.000000    0.00007927
  503      -16.4283910149      -0.0000000788     1.000000    0.00007899
  504      -16.4283910931      -0.0000000783     1.000000    0.00007870
  505      -16.4283911709      -0.0000000778     1.000000    0.00007842
  506      -16.4283912481      -0.0000000772     1.000000    0.00007814
  507      -16.4283913248      -0.0000000767     1.000000    0.00007785
  508      -16.4283914010      -0.0000000762     1.000000    0.00007757
  509      -16.4283914767      -0.0000000757     1.000000    0.00007728
  510      -16.4283915518      -0.0000000751     1.000000    0.00007700
  511      -16.4283916264      -0.0000000746     1.000000    0.00007671
  512      -16.4283917005      -0.0000000741     1.000000    0.00007642
  513      -16.4283917741      -0.0000000736     1.000000    0.00007614
  514      -16.4283918471      -0.0000000730     1.000000    0.00007585
  515      -16.4283919196      -0.0000000725     1.000000    0.00007556
  516      -16.4283919916      -0.0000000720     1.000000    0.00007527
  517      -16.4283920631      -0.0000000715     1.000000    0.00007498
  518      -16.4283921341      -0.0000000710     1.000000    0.00007469
  519      -16.4283922045      -0.0000000704     1.000000    0.00007440
  520      -16.4283922744      -0.0000000699     1.000000    0.00007411
  521      -16.4283923439      -0.0000000694     1.000000    0.00007382
  522      -16.4283924128      -0.0000000689     1.000000    0.00007353
  523      -16.4283924811      -0.0000000684     1.000000    0.00007323
  524      -16.4283925490      -0.0000000679     1.000000    0.00007294
  525      -16.4283926163      -0.0000000674     1.000000    0.00007265
  526      -16.4283926832      -0.0000000668     1.000000    0.00007235
  527      -16.4283927495      -0.0000000663     1.000000    0.00007206
  528      -16.4283928153      -0.0000000658     1.000000    0.00007177
  529      -16.4283928806      -0.0000000653     1.000000    0.00007147
  530      -16.4283929454      -0.0000000648     1.000000    0.00007118
  531      -16.4283930097      -0.0000000643     1.000000    0.00007088
  532      -16.4283930735      -0.0000000638     1.000000    0.00007058
  533      -16.4283931368      -0.0000000633     1.000000    0.00007029
  534      -16.4283931996      -0.0000000628     1.000000    0.00006999
  535      -16.4283932619      -0.0000000623     1.000000    0.00006970
  536      -16.4283933236      -0.0000000618     1.000000    0.00006940
  537      -16.4283933849      -0.0000000613     1.000000    0.00006910
  538      -16.4283934457      -0.0000000608     1.000000    0.00006880
  539      -16.4283935060      -0.0000000603     1.000000    0.00006851
  540      -16.4283935658      -0.0000000598     1.000000    0.00006821
  541      -16.4283936251      -0.0000000593     1.000000    0.00006791
  542      -16.4283936839      -0.0000000588     1.000000    0.00006761
  543      -16.4283937422      -0.0000000583     1.000000    0.00006732
  544      -16.4283938000      -0.0000000578     1.000000    0.00006702
  545      -16.4283938573      -0.0000000573     1.000000    0.00006672
  546      -16.4283939142      -0.0000000568     1.000000    0.00006642
  547      -16.4283939705      -0.0000000564     1.000000    0.00006612
  548      -16.4283940264      -0.0000000559     1.000000    0.00006583
  549      -16.4283940818      -0.0000000554     1.000000    0.00006553
  550      -16.4283941368      -0.0000000549     1.000000    0.00006523
  551      -16.4283941912      -0.0000000544     1.000000    0.00006493
  552      -16.4283942452      -0.0000000540     1.000000    0.00006463
  553      -16.4283942987      -0.0000000535     1.000000    0.00006433
  554      -16.4283943517      -0.0000000530     1.000000    0.00006404
  555      -16.4283944043      -0.0000000526     1.000000    0.00006374
  556      -16.4283944564      -0.0000000521     1.000000    0.00006344
  557      -16.4283945080      -0.0000000516     1.000000    0.00006314
  558      -16.4283945591      -0.0000000512     1.000000    0.00006284
  559      -16.4283946098      -0.0000000507     1.000000    0.00006255
  560      -16.4283946601      -0.0000000502     1.000000    0.00006225
  561      -16.4283947099      -0.0000000498     1.000000    0.00006195
  562      -16.4283947592      -0.0000000493     1.000000    0.00006165
  563      -16.4283948081      -0.0000000489     1.000000    0.00006136
  564      -16.4283948565      -0.0000000484     1.000000    0.00006106
  565      -16.4283949045      -0.0000000480     1.000000    0.00006076
  566      -16.4283949520      -0.0000000475     1.000000    0.00006047
  567      -16.4283949991      -0.0000000471     1.000000    0.00006017
  568      -16.4283950457      -0.0000000466     1.000000    0.00005987
  569      -16.4283950919      -0.0000000462     1.000000    0.00005958
  570      -16.4283951377      -0.0000000458     1.000000    0.00005928
  571      -16.4283951830      -0.0000000453     1.000000    0.00005899
  572      -16.4283952279      -0.0000000449     1.000000    0.00005869
  573      -16.4283952724      -0.0000000445     1.000000    0.00005840
  574      -16.4283953164      -0.0000000440     1.000000    0.00005810
  575      -16.4283953601      -0.0000000436     1.000000    0.00005781
  576      -16.4283954032      -0.0000000432     1.000000    0.00005751
  577      -16.4283954460      -0.0000000428     1.000000    0.00005722
  578      -16.4283954884      -0.0000000423     1.000000    0.00005693
  579      -16.4283955303      -0.0000000419     1.000000    0.00005664
  580      -16.4283955718      -0.0000000415     1.000000    0.00005634
  581      -16.4283956129      -0.0000000411     1.000000    0.00005605
  582      -16.4283956536      -0.0000000407     1.000000    0.00005576
  583      -16.4283956939      -0.0000000403     1.000000    0.00005547
  584      -16.4283957338      -0.0000000399     1.000000    0.00005518
  585      -16.4283957733      -0.0000000395     1.000000    0.00005489
  586      -16.4283958124      -0.0000000391     1.000000    0.00005460
  587      -16.4283958511      -0.0000000387     1.000000    0.00005431
  588      -16.4283958893      -0.0000000383     1.000000    0.00005402
  589      -16.4283959273      -0.0000000379     1.000000    0.00005373
  590      -16.4283959648      -0.0000000375     1.000000    0.00005345
  591      -16.4283960019      -0.0000000371     1.000000    0.00005316
  592      -16.4283960386      -0.0000000367     1.000000    0.00005287
  593      -16.4283960750      -0.0000000364     1.000000    0.00005259
  594      -16.4283961110      -0.0000000360     1.000000    0.00005230
  595      -16.4283961466      -0.0000000356     1.000000    0.00005202
  596      -16.4283961818      -0.0000000352     1.000000    0.00005173
  597      -16.4283962167      -0.0000000349     1.000000    0.00005145
  598      -16.4283962512      -0.0000000345     1.000000    0.00005117
  599      -16.4283962853      -0.0000000341     1.000000    0.00005088
  600      -16.4283963191      -0.0000000338     1.000000    0.00005060
  601      -16.4283963525      -0.0000000334     1.000000    0.00005032
  602      -16.4283963855      -0.0000000330     1.000000    0.00005004
  603      -16.4283964182      -0.0000000327     1.000000    0.00004976
  604      -16.4283964505      -0.0000000323     1.000000    0.00004948
  605      -16.4283964825      -0.0000000320     1.000000    0.00004921
  606      -16.4283965142      -0.0000000316     1.000000    0.00004893
  607      -16.4283965454      -0.0000000313     1.000000    0.00004865
  608      -16.4283965764      -0.0000000310     1.000000    0.00004837
  609      -16.4283966070      -0.0000000306     1.000000    0.00004810
  610      -16.4283966373      -0.0000000303     1.000000    0.00004782
  611      -16.4283966672      -0.0000000299     1.000000    0.00004755
  612      -16.4283966968      -0.0000000296     1.000000    0.00004728
  613      -16.4283967261      -0.0000000293     1.000000    0.00004700
  614      -16.4283967551      -0.0000000290     1.000000    0.00004673
  615      -16.4283967837      -0.0000000286     1.000000    0.00004646
  616      -16.4283968120      -0.0000000283     1.000000    0.00004619
  617      -16.4283968400      -0.0000000280     1.000000    0.00004592
  618      -16.4283968676      -0.0000000277     1.000000    0.00004565
  619      -16.4283968950      -0.0000000274     1.000000    0.00004539
  620      -16.4283969221      -0.0000000270     1.000000    0.00004512
  621      -16.4283969488      -0.0000000267     1.000000    0.00004485
  622      -16.4283969752      -0.0000000264     1.000000    0.00004459
  623      -16.4283970014      -0.0000000261     1.000000    0.00004432
  624      -16.4283970272      -0.0000000258     1.000000    0.00004406
  625      -16.4283970527      -0.0000000255     1.000000    0.00004380
  626      -16.4283970779      -0.0000000252     1.000000    0.00004353
  627      -16.4283971029      -0.0000000249     1.000000    0.00004327
  628      -16.4283971275      -0.0000000247     1.000000    0.00004301
  629      -16.4283971519      -0.0000000244     1.000000    0.00004275
  630      -16.4283971760      -0.0000000241     1.000000    0.00004250
  631      -16.4283971998      -0.0000000238     1.000000    0.00004224
  632      -16.4283972233      -0.0000000235     1.000000    0.00004198
  633      -16.4283972465      -0.0000000232     1.000000    0.00004172
  634      -16.4283972695      -0.0000000230     1.000000    0.00004147
  635      -16.4283972922      -0.0000000227     1.000000    0.00004122
  636      -16.4283973146      -0.0000000224     1.000000    0.00004096
  637      -16.4283973368      -0.0000000222     1.000000    0.00004071
  638      -16.4283973586      -0.0000000219     1.000000    0.00004046
  639      -16.4283973803      -0.0000000216     1.000000    0.00004021
  640      -16.4283974016      -0.0000000214     1.000000    0.00003996
  641      -16.4283974227      -0.0000000211     1.000000    0.00003971
  642      -16.4283974436      -0.0000000209     1.000000    0.00003946
  643      -16.4283974642      -0.0000000206     1.000000    0.00003922
  644      -16.4283974845      -0.0000000203     1.000000    0.00003897
  645      -16.4283975046      -0.0000000201     1.000000    0.00003873
  646      -16.4283975245      -0.0000000199     1.000000    0.00003848
  647      -16.4283975441      -0.0000000196     1.000000    0.00003824
  648      -16.4283975635      -0.0000000194     1.000000    0.00003800
  649      -16.4283975826      -0.0000000191     1.000000    0.00003776
  650      -16.4283976015      -0.0000000189     1.000000    0.00003752
  651      -16.4283976202      -0.0000000187     1.000000    0.00003728
  652      -16.4283976386      -0.0000000184     1.000000    0.00003704
  653      -16.4283976568      -0.0000000182     1.000000    0.00003681
  654      -16.4283976748      -0.0000000180     1.000000    0.00003657
  655      -16.4283976925      -0.0000000178     1.000000    0.00003633
  656      -16.4283977101      -0.0000000175     1.000000    0.00003610
  657      -16.4283977274      -0.0000000173     1.000000    0.00003587
  658      -16.4283977445      -0.0000000171     1.000000    0.00003564
  659      -16.4283977613      -0.0000000169     1.000000    0.00003541
  660      -16.4283977780      -0.0000000167     1.000000    0.00003518
  661      -16.4283977944      -0.0000000165     1.000000    0.00003495
  662      -16.4283978107      -0.0000000162     1.000000    0.00003472
  663      -16.4283978267      -0.0000000160     1.000000    0.00003449
  664      -16.4283978426      -0.0000000158     1.000000    0.00003427
  665      -16.4283978582      -0.0000000156     1.000000    0.00003404
  666      -16.4283978736      -0.0000000154     1.000000    0.00003382
  667      -16.4283978888      -0.0000000152     1.000000    0.00003360
  668      -16.4283979039      -0.0000000150     1.000000    0.00003337
  669      -16.4283979187      -0.0000000148     1.000000    0.00003315
  670      -16.4283979334      -0.0000000146     1.000000    0.00003293
  671      -16.4283979478      -0.0000000145     1.000000    0.00003272
  672      -16.4283979621      -0.0000000143     1.000000    0.00003250
  673      -16.4283979762      -0.0000000141     1.000000    0.00003228
  674      -16.4283979901      -0.0000000139     1.000000    0.00003207
  675      -16.4283980038      -0.0000000137     1.000000    0.00003185
  676      -16.4283980174      -0.0000000135     1.000000    0.00003164
  677      -16.4283980307      -0.0000000134     1.000000    0.00003143
  678      -16.4283980439      -0.0000000132     1.000000    0.00003121
  679      -16.4283980569      -0.0000000130     1.000000    0.00003100
  680      -16.4283980698      -0.0000000128     1.000000    0.00003079
  681      -16.4283980824      -0.0000000127     1.000000    0.00003059
  682      -16.4283980950      -0.0000000125     1.000000    0.00003038
  683      -16.4283981073      -0.0000000123     1.000000    0.00003017
  684      -16.4283981195      -0.0000000122     1.000000    0.00002997
  685      -16.4283981315      -0.0000000120     1.000000    0.00002976
  686      -16.4283981433      -0.0000000119     1.000000    0.00002956
  687      -16.4283981550      -0.0000000117     1.000000    0.00002936
  688      -16.4283981666      -0.0000000115     1.000000    0.00002916
  689      -16.4283981780      -0.0000000114     1.000000    0.00002896
  690      -16.4283981892      -0.0000000112     1.000000    0.00002876
  691      -16.4283982003      -0.0000000111     1.000000    0.00002856
  692      -16.4283982112      -0.0000000109     1.000000    0.00002837
  693      -16.4283982220      -0.0000000108     1.000000    0.00002817
  694      -16.4283982326      -0.0000000106     1.000000    0.00002797
  695      -16.4283982431      -0.0000000105     1.000000    0.00002778
  696      -16.4283982535      -0.0000000104     1.000000    0.00002759
  697      -16.4283982637      -0.0000000102     1.000000    0.00002740
  698      -16.4283982738      -0.0000000101     1.000000    0.00002721
  699      -16.4283982837      -0.0000000099     1.000000    0.00002702
  700      -16.4283982935      -0.0000000098     1.000000    0.00002683
  701      -16.4283983032      -0.0000000097     1.000000    0.00002664
  702      -16.4283983127      -0.0000000095     1.000000    0.00002645
  703      -16.4283983221      -0.0000000094     1.000000    0.00002627
  704      -16.4283983314      -0.0000000093     1.000000    0.00002608
  705      -16.4283983405      -0.0000000091     1.000000    0.00002590
  706      -16.4283983495      -0.0000000090     1.000000    0.00002572
  707      -16.4283983584      -0.0000000089     1.000000    0.00002554
  708      -16.4283983672      -0.0000000088     1.000000    0.00002536
  709      -16.4283983759      -0.0000000086     1.000000    0.00002518
  710      -16.4283983844      -0.0000000085     1.000000    0.00002500
  711      -16.4283983928      -0.0000000084     1.000000    0.00002482
  712      -16.4283984011      -0.0000000083     1.000000    0.00002465
  713      -16.4283984093      -0.0000000082     1.000000    0.00002447
  714      -16.4283984173      -0.0000000081     1.000000    0.00002430
  715      -16.4283984253      -0.0000000080     1.000000    0.00002412
  716      -16.4283984331      -0.0000000078     1.000000    0.00002395
  717      -16.4283984409      -0.0000000077     1.000000    0.00002378
  718      -16.4283984485      -0.0000000076     1.000000    0.00002361
  719      -16.4283984560      -0.0000000075     1.000000    0.00002344
  720      -16.4283984634      -0.0000000074     1.000000    0.00002327
  721      -16.4283984707      -0.0000000073     1.000000    0.00002310
  722      -16.4283984779      -0.0000000072     1.000000    0.00002294
  723      -16.4283984850      -0.0000000071     1.000000    0.00002277
  724      -16.4283984920      -0.0000000070     1.000000    0.00002261
  725      -16.4283984989      -0.0000000069     1.000000    0.00002244
  726      -16.4283985057      -0.0000000068     1.000000    0.00002228
  727      -16.4283985124      -0.0000000067     1.000000    0.00002212
  728      -16.4283985190      -0.0000000066     1.000000    0.00002196
  729      -16.4283985255      -0.0000000065     1.000000    0.00002180
  730      -16.4283985319      -0.0000000064     1.000000    0.00002164
  731      -16.4283985383      -0.0000000063     1.000000    0.00002148
  732      -16.4283985445      -0.0000000062     1.000000    0.00002133
  733      -16.4283985506      -0.0000000061     1.000000    0.00002117
  734      -16.4283985567      -0.0000000061     1.000000    0.00002102
  735      -16.4283985627      -0.0000000060     1.000000    0.00002086
  736      -16.4283985686      -0.0000000059     1.000000    0.00002071
  737      -16.4283985744      -0.0000000058     1.000000    0.00002056
  738      -16.4283985801      -0.0000000057     1.000000    0.00002041
  739      -16.4283985857      -0.0000000056     1.000000    0.00002026
  740      -16.4283985913      -0.0000000056     1.000000    0.00002011
  741      -16.4283985968      -0.0000000055     1.000000    0.00001996
  742      -16.4283986021      -0.0000000054     1.000000    0.00001981
  743      -16.4283986075      -0.0000000053     1.000000    0.00001967
  744      -16.4283986127      -0.0000000052     1.000000    0.00001952
  745      -16.4283986179      -0.0000000052     1.000000    0.00001938
  746      -16.4283986229      -0.0000000051     1.000000    0.00001923
  747      -16.4283986280      -0.0000000050     1.000000    0.00001909
  748      -16.4283986329      -0.0000000049     1.000000    0.00001895
  749      -16.4283986378      -0.0000000049     1.000000    0.00001881
  750      -16.4283986426      -0.0000000048     1.000000    0.00001867
  751      -16.4283986473      -0.0000000047     1.000000    0.00001853
  752      -16.4283986519      -0.0000000047     1.000000    0.00001839
  753      -16.4283986565      -0.0000000046     1.000000    0.00001825
  754      -16.4283986611      -0.0000000045     1.000000    0.00001812
  755      -16.4283986655      -0.0000000045     1.000000    0.00001798
  756      -16.4283986699      -0.0000000044     1.000000    0.00001785
  757      -16.4283986742      -0.0000000043     1.000000    0.00001771
  758      -16.4283986785      -0.0000000043     1.000000    0.00001758
  759      -16.4283986827      -0.0000000042     1.000000    0.00001745
  760      -16.4283986868      -0.0000000041     1.000000    0.00001732
  761      -16.4283986909      -0.0000000041     1.000000    0.00001719
  762      -16.4283986949      -0.0000000040     1.000000    0.00001706
  763      -16.4283986988      -0.0000000040     1.000000    0.00001693
  764      -16.4283987027      -0.0000000039     1.000000    0.00001680
  765      -16.4283987066      -0.0000000038     1.000000    0.00001668
  766      -16.4283987104      -0.0000000038     1.000000    0.00001655
  767      -16.4283987141      -0.0000000037     1.000000    0.00001642
  768      -16.4283987177      -0.0000000037     1.000000    0.00001630
  769      -16.4283987214      -0.0000000036     1.000000    0.00001618
  770      -16.4283987249      -0.0000000036     1.000000    0.00001605
  771      -16.4283987284      -0.0000000035     1.000000    0.00001593
  772      -16.4283987319      -0.0000000035     1.000000    0.00001581
  773      -16.4283987353      -0.0000000034     1.000000    0.00001569
  774      -16.4283987386      -0.0000000033     1.000000    0.00001557
  775      -16.4283987419      -0.0000000033     1.000000    0.00001545
  776      -16.4283987452      -0.0000000032     1.000000    0.00001534
  777      -16.4283987484      -0.0000000032     1.000000    0.00001522
  778      -16.4283987515      -0.0000000032     1.000000    0.00001510
  779      -16.4283987546      -0.0000000031     1.000000    0.00001499
  780      -16.4283987577      -0.0000000031     1.000000    0.00001487
  781      -16.4283987607      -0.0000000030     1.000000    0.00001476
  782      -16.4283987637      -0.0000000030     1.000000    0.00001465
  783      -16.4283987666      -0.0000000029     1.000000    0.00001453
  784      -16.4283987695      -0.0000000029     1.000000    0.00001442
  785      -16.4283987723      -0.0000000028     1.000000    0.00001431
  786      -16.4283987751      -0.0000000028     1.000000    0.00001420
  787      -16.4283987778      -0.0000000027     1.000000    0.00001409
  788      -16.4283987806      -0.0000000027     1.000000    0.00001398
  789      -16.4283987832      -0.0000000027     1.000000    0.00001388
  790      -16.4283987858      -0.0000000026     1.000000    0.00001377
  791      -16.4283987884      -0.0000000026     1.000000    0.00001366
  792      -16.4283987910      -0.0000000025     1.000000    0.00001356
  793      -16.4283987935      -0.0000000025     1.000000    0.00001345
  794      -16.4283987959      -0.0000000025     1.000000    0.00001335
  795      -16.4283987984      -0.0000000024     1.000000    0.00001324
  796      -16.4283988008      -0.0000000024     1.000000    0.00001314
  797      -16.4283988031      -0.0000000024     1.000000    0.00001304
  798      -16.4283988055      -0.0000000023     1.000000    0.00001294
  799      -16.4283988077      -0.0000000023     1.000000    0.00001284
  800      -16.4283988100      -0.0000000023     1.000000    0.00001274
  801      -16.4283988122      -0.0000000022     1.000000    0.00001264
  802      -16.4283988144      -0.0000000022     1.000000    0.00001254
  803      -16.4283988165      -0.0000000021     1.000000    0.00001244
  804      -16.4283988186      -0.0000000021     1.000000    0.00001235
  805      -16.4283988207      -0.0000000021     1.000000    0.00001225
  806      -16.4283988228      -0.0000000021     1.000000    0.00001216
  807      -16.4283988248      -0.0000000020     1.000000    0.00001206
  808      -16.4283988268      -0.0000000020     1.000000    0.00001197
  809      -16.4283988287      -0.0000000020     1.000000    0.00001187
  810      -16.4283988307      -0.0000000019     1.000000    0.00001178
  811      -16.4283988326      -0.0000000019     1.000000    0.00001169
  812      -16.4283988344      -0.0000000019     1.000000    0.00001160
  813      -16.4283988363      -0.0000000018     1.000000    0.00001151
  814      -16.4283988381      -0.0000000018     1.000000    0.00001142
  815      -16.4283988399      -0.0000000018     1.000000    0.00001133
  816      -16.4283988416      -0.0000000018     1.000000    0.00001124
  817      -16.4283988433      -0.0000000017     1.000000    0.00001115
  818      -16.4283988450      -0.0000000017     1.000000    0.00001106
  819      -16.4283988467      -0.0000000017     1.000000    0.00001098
  820      -16.4283988484      -0.0000000016     1.000000    0.00001089
  821      -16.4283988500      -0.0000000016     1.000000    0.00001080
  822      -16.4283988516      -0.0000000016     1.000000    0.00001072
  823      -16.4283988532      -0.0000000016     1.000000    0.00001063
  824      -16.4283988547      -0.0000000015     1.000000    0.00001055
  825      -16.4283988562      -0.0000000015     1.000000    0.00001047
  826      -16.4283988577      -0.0000000015     1.000000    0.00001038
  827      -16.4283988592      -0.0000000015     1.000000    0.00001030
  828      -16.4283988607      -0.0000000015     1.000000    0.00001022
  829      -16.4283988621      -0.0000000014     1.000000    0.00001014
  830      -16.4283988635      -0.0000000014     1.000000    0.00001006
  831      -16.4283988649      -0.0000000014     1.000000    0.00000998
  832      -16.4283988663      -0.0000000014     1.000000    0.00000990
  833      -16.4283988676      -0.0000000013     1.000000    0.00000982
  834      -16.4283988689      -0.0000000013     1.000000    0.00000975
  835      -16.4283988702      -0.0000000013     1.000000    0.00000967
  836      -16.4283988715      -0.0000000013     1.000000    0.00000959
  837      -16.4283988728      -0.0000000013     1.000000    0.00000951
  838      -16.4283988740      -0.0000000012     1.000000    0.00000944
  839      -16.4283988752      -0.0000000012     1.000000    0.00000936
  840      -16.4283988764      -0.0000000012     1.000000    0.00000929
  841      -16.4283988776      -0.0000000012     1.000000    0.00000922
  842      -16.4283988788      -0.0000000012     1.000000    0.00000914
  843      -16.4283988799      -0.0000000011     1.000000    0.00000907
  844      -16.4283988810      -0.0000000011     1.000000    0.00000900
  845      -16.4283988822      -0.0000000011     1.000000    0.00000893
  846      -16.4283988832      -0.0000000011     1.000000    0.00000885
  847      -16.4283988843      -0.0000000011     1.000000    0.00000878
  848      -16.4283988854      -0.0000000011     1.000000    0.00000871
  849      -16.4283988864      -0.0000000010     1.000000    0.00000864
  850      -16.4283988874      -0.0000000010     1.000000    0.00000858
  851      -16.4283988885      -0.0000000010     1.000000    0.00000851
  852      -16.4283988895      -0.0000000010     1.000000    0.00000844
  853      -16.4283988904      -0.0000000010     1.000000    0.00000837
  854      -16.4283988914      -0.0000000010     1.000000    0.00000830
  855      -16.4283988923      -0.0000000009     1.000000    0.00000824
  856      -16.4283988933      -0.0000000009     1.000000    0.00000817
  857      -16.4283988942      -0.0000000009     1.000000    0.00000811
  858      -16.4283988951      -0.0000000009     1.000000    0.00000804
  859      -16.4283988960      -0.0000000009     1.000000    0.00000798
  860      -16.4283988968      -0.0000000009     1.000000    0.00000791
  861      -16.4283988977      -0.0000000009     1.000000    0.00000785
  862      -16.4283988986      -0.0000000008     1.000000    0.00000779
  863      -16.4283988994      -0.0000000008     1.000000    0.00000772
  864      -16.4283989002      -0.0000000008     1.000000    0.00000766
  865      -16.4283989010      -0.0000000008     1.000000    0.00000760
  866      -16.4283989018      -0.0000000008     1.000000    0.00000754
  867      -16.4283989026      -0.0000000008     1.000000    0.00000748
  868      -16.4283989034      -0.0000000008     1.000000    0.00000742
  869      -16.4283989041      -0.0000000008     1.000000    0.00000736
  870      -16.4283989049      -0.0000000007     1.000000    0.00000730
  871      -16.4283989056      -0.0000000007     1.000000    0.00000724
  872      -16.4283989063      -0.0000000007     1.000000    0.00000718
  873      -16.4283989070      -0.0000000007     1.000000    0.00000712
  874      -16.4283989077      -0.0000000007     1.000000    0.00000707
  875      -16.4283989084      -0.0000000007     1.000000    0.00000701
  876      -16.4283989091      -0.0000000007     1.000000    0.00000695
  877      -16.4283989097      -0.0000000007     1.000000    0.00000690
  878      -16.4283989104      -0.0000000007     1.000000    0.00000684
  879      -16.4283989110      -0.0000000006     1.000000    0.00000679
  880      -16.4283989117      -0.0000000006     1.000000    0.00000673
  881      -16.4283989123      -0.0000000006     1.000000    0.00000668
  882      -16.4283989129      -0.0000000006     1.000000    0.00000662
  883      -16.4283989135      -0.0000000006     1.000000    0.00000657
  884      -16.4283989141      -0.0000000006     1.000000    0.00000652
  885      -16.4283989147      -0.0000000006     1.000000    0.00000646
  886      -16.4283989153      -0.0000000006     1.000000    0.00000641
  887      -16.4283989158      -0.0000000006     1.000000    0.00000636
  888      -16.4283989164      -0.0000000006     1.000000    0.00000631
  889      -16.4283989169      -0.0000000005     1.000000    0.00000626
  890      -16.4283989175      -0.0000000005     1.000000    0.00000621
  891      -16.4283989180      -0.0000000005     1.000000    0.00000616
  892      -16.4283989185      -0.0000000005     1.000000    0.00000611
  893      -16.4283989190      -0.0000000005     1.000000    0.00000606
  894      -16.4283989195      -0.0000000005     1.000000    0.00000601
  895      -16.4283989200      -0.0000000005     1.000000    0.00000596
  896      -16.4283989205      -0.0000000005     1.000000    0.00000591
  897      -16.4283989210      -0.0000000005     1.000000    0.00000586
  898      -16.4283989215      -0.0000000005     1.000000    0.00000581
  899      -16.4283989219      -0.0000000005     1.000000    0.00000577
  900      -16.4283989224      -0.0000000005     1.000000    0.00000572
  901      -16.4283989228      -0.0000000005     1.000000    0.00000567
  902      -16.4283989233      -0.0000000004     1.000000    0.00000563
  903      -16.4283989237      -0.0000000004     1.000000    0.00000558
  904      -16.4283989242      -0.0000000004     1.000000    0.00000554
  905      -16.4283989246      -0.0000000004     1.000000    0.00000549
  906      -16.4283989250      -0.0000000004     1.000000    0.00000545
  907      -16.4283989254      -0.0000000004     1.000000    0.00000540
  908      -16.4283989258      -0.0000000004     1.000000    0.00000536
  909      -16.4283989262      -0.0000000004     1.000000    0.00000531
  910      -16.4283989266      -0.0000000004     1.000000    0.00000527
  911      -16.4283989270      -0.0000000004     1.000000    0.00000523
  912      -16.4283989273      -0.0000000004     1.000000    0.00000518
  913      -16.4283989277      -0.0000000004     1.000000    0.00000514
  914      -16.4283989281      -0.0000000004     1.000000    0.00000510
  915      -16.4283989284      -0.0000000004     1.000000    0.00000506
  916      -16.4283989288      -0.0000000004     1.000000    0.00000502
  917      -16.4283989291      -0.0000000003     1.000000    0.00000498
  918      -16.4283989295      -0.0000000003     1.000000    0.00000494
  919      -16.4283989298      -0.0000000003     1.000000    0.00000489
  920      -16.4283989301      -0.0000000003     1.000000    0.00000485
  921      -16.4283989305      -0.0000000003     1.000000    0.00000482
  922      -16.4283989308      -0.0000000003     1.000000    0.00000478
  923      -16.4283989311      -0.0000000003     1.000000    0.00000474
  924      -16.4283989314      -0.0000000003     1.000000    0.00000470
  925      -16.4283989317      -0.0000000003     1.000000    0.00000466
  926      -16.4283989320      -0.0000000003     1.000000    0.00000462
  927      -16.4283989323      -0.0000000003     1.000000    0.00000458
  928      -16.4283989326      -0.0000000003     1.000000    0.00000455
  929      -16.4283989329      -0.0000000003     1.000000    0.00000451
  930      -16.4283989332      -0.0000000003     1.000000    0.00000447
  931      -16.4283989334      -0.0000000003     1.000000    0.00000443
  932      -16.4283989337      -0.0000000003     1.000000    0.00000440
  933      -16.4283989340      -0.0000000003     1.000000    0.00000436
  934      -16.4283989342      -0.0000000003     1.000000    0.00000433
  935      -16.4283989345      -0.0000000003     1.000000    0.00000429
  936      -16.4283989348      -0.0000000003     1.000000    0.00000426
  937      -16.4283989350      -0.0000000002     1.000000    0.00000422
  938      -16.4283989352      -0.0000000002     1.000000    0.00000419
  939      -16.4283989355      -0.0000000002     1.000000    0.00000415
  940      -16.4283989357      -0.0000000002     1.000000    0.00000412
  941      -16.4283989360      -0.0000000002     1.000000    0.00000408
  942      -16.4283989362      -0.0000000002     1.000000    0.00000405
  943      -16.4283989364      -0.0000000002     1.000000    0.00000402
  944      -16.4283989366      -0.0000000002     1.000000    0.00000398
  945      -16.4283989369      -0.0000000002     1.000000    0.00000395
  946      -16.4283989371      -0.0000000002     1.000000    0.00000392
  947      -16.4283989373      -0.0000000002     1.000000    0.00000389
  948      -16.4283989375      -0.0000000002     1.000000    0.00000385
  949      -16.4283989377      -0.0000000002     1.000000    0.00000382
  950      -16.4283989379      -0.0000000002     1.000000    0.00000379
  951      -16.4283989381      -0.0000000002     1.000000    0.00000376
  952      -16.4283989383      -0.0000000002     1.000000    0.00000373
  953      -16.4283989385      -0.0000000002     1.000000    0.00000370
  954      -16.4283989387      -0.0000000002     1.000000    0.00000367
  955      -16.4283989389      -0.0000000002     1.000000    0.00000364
  956      -16.4283989390      -0.0000000002     1.000000    0.00000361
  957      -16.4283989392      -0.0000000002     1.000000    0.00000358
  958      -16.4283989394      -0.0000000002     1.000000    0.00000355
  959      -16.4283989396      -0.0000000002     1.000000    0.00000352
  960      -16.4283989397      -0.0000000002     1.000000    0.00000349
  961      -16.4283989399      -0.0000000002     1.000000    0.00000346
  962      -16.4283989401      -0.0000000002     1.000000    0.00000343
  963      -16.4283989402      -0.0000000002     1.000000    0.00000340
  964      -16.4283989404      -0.0000000002     1.000000    0.00000338
  965      -16.4283989406      -0.0000000002     1.000000    0.00000335
  966      -16.4283989407      -0.0000000002     1.000000    0.00000332
  967      -16.4283989409      -0.0000000002     1.000000    0.00000329
  968      -16.4283989410      -0.0000000001     1.000000    0.00000327
  969      -16.4283989412      -0.0000000001     1.000000    0.00000324
  970      -16.4283989413      -0.0000000001     1.000000    0.00000321
  971      -16.4283989414      -0.0000000001     1.000000    0.00000319
  972      -16.4283989416      -0.0000000001     1.000000    0.00000316
  973      -16.4283989417      -0.0000000001     1.000000    0.00000313
  974      -16.4283989419      -0.0000000001     1.000000    0.00000311
  975      -16.4283989420      -0.0000000001     1.000000    0.00000308
  976      -16.4283989421      -0.0000000001     1.000000    0.00000306
  977      -16.4283989423      -0.0000000001     1.000000    0.00000303
  978      -16.4283989424      -0.0000000001     1.000000    0.00000301
  979      -16.4283989425      -0.0000000001     1.000000    0.00000298
  980      -16.4283989426      -0.0000000001     1.000000    0.00000296
  981      -16.4283989427      -0.0000000001     1.000000    0.00000293
  982      -16.4283989429      -0.0000000001     1.000000    0.00000291
  983      -16.4283989430      -0.0000000001     1.000000    0.00000288
  984      -16.4283989431      -0.0000000001     1.000000    0.00000286
  985      -16.4283989432      -0.0000000001     1.000000    0.00000284
  986      -16.4283989433      -0.0000000001     1.000000    0.00000281
  987      -16.4283989434      -0.0000000001     1.000000    0.00000279
  988      -16.4283989435      -0.0000000001     1.000000    0.00000277
  989      -16.4283989436      -0.0000000001     1.000000    0.00000274
  990      -16.4283989438      -0.0000000001     1.000000    0.00000272
  991      -16.4283989439      -0.0000000001     1.000000    0.00000270
  992      -16.4283989440      -0.0000000001     1.000000    0.00000267
  993      -16.4283989441      -0.0000000001     1.000000    0.00000265
  994      -16.4283989441      -0.0000000001     1.000000    0.00000263
  995      -16.4283989442      -0.0000000001     1.000000    0.00000261
  996      -16.4283989443      -0.0000000001     1.000000    0.00000259
  997      -16.4283989444      -0.0000000001     1.000000    0.00000257
  998      -16.4283989445      -0.0000000001     1.000000    0.00000254
  999      -16.4283989446      -0.0000000001     1.000000    0.00000252
 1000      -16.4283989447      -0.0000000001     1.000000    0.00000250

Total Energy:                      -16.4283989447 H         -447.0395 eV
Extrapolated to 0:                 -16.3995839562 H         -446.2554 eV

----------------------------------------------------------------------------------
 Solving CP-REKS equation for  1 state vector...
----------------------------------------------------------------------------------
  CG solver: Constructing Y initial guess
  CG solver: Iteration    1    eps =    0.021349265748
  CG solver: Iteration    2    eps =    0.004189200846
  CG solver: Iteration    3    eps =    0.000386581679
  CG solver: Iteration    4    eps =    0.000094966461
  CG solver: Iteration    5    eps =    0.000055091760
  CG solver: Iteration    6    eps =    0.000094418481
  CG solver: Iteration    7    eps =    0.000373258567
  CG solver: Iteration    8    eps =    0.000187819880
  CG solver: Iteration    9    eps =    0.000031293340
  CG solver: Iteration   10    eps =    0.000001985137
  CG solver: Iteration   11    eps =    0.000000343939
  CG solver: Iteration   12    eps =    0.000000048306
  CG solver: Iteration   13    eps =    0.000000005421
  Convergence reached in CG solver after   13 iterations
  CG solver: Calculating converged R, Z, Q2 matrix
----------------------------------------------------------------------------------

----------------------------------------------------------------------------------
 Solving CP-REKS equation for SI between  1 and  2 state vectors...
----------------------------------------------------------------------------------
  CG solver: Constructing Y initial guess
  CG solver: Iteration    1    eps =    0.018615686994
  CG solver: Iteration    2    eps =    0.003917004098
  CG solver: Iteration    3    eps =    0.007866642498
  CG solver: Iteration    4    eps =    0.057476976655
  CG solver: Iteration    5    eps =    0.008427095433
  CG solver: Iteration    6    eps =    0.003838590741
  CG solver: Iteration    7    eps =    0.002418754034
  CG solver: Iteration    8    eps =    0.000249421015
  CG solver: Iteration    9    eps =    0.000028779715
  CG solver: Iteration   10    eps =    0.000005924397
  CG solver: Iteration   11    eps =    0.000000568301
  CG solver: Iteration   12    eps =    0.000000039952
  CG solver: Iteration   13    eps =    0.000000005095
  Convergence reached in CG solver after   13 iterations
  CG solver: Calculating converged R, Z, Q2 matrix
----------------------------------------------------------------------------------

--------------------------------------------------
 Gradient Information
--------------------------------------------------
           1 st state (SSR)
     0.00000000     0.00000000     0.00000000
     0.00000000     0.00000000     0.00000000
     0.00000000     0.00000000     0.00000000
     0.00000000     0.00000000     0.00000000
     0.00000000     0.00000000     0.00000000
     0.00000000     0.00000000     0.00000000
     0.00000000     0.00000000     0.00000000
     0.00000000     0.00000000     0.00000000
     0.00000000     0.00000000     0.00000000
     0.00000000     0.00000000     0.00000000
     0.00000000     0.00000000     0.00000000
     0.00000000     0.00000000     0.00000000
     0.00000000     0.00000000     0.00000000
     0.00000000     0.00000000     0.00000000

           2 st state (SSR)
     0.00000000     0.00000000     0.00000000
     0.00000000     0.00000000     0.00000000
     0.00000000     0.00000000     0.00000000
     0.00000000     0.00000000     0.00000000
     0.00000000     0.00000000     0.00000000
     0.00000000     0.00000000     0.00000000
     0.00000000     0.00000000     0.00000000
     0.00000000     0.00000000     0.00000000
     0.00000000     0.00000000     0.00000000
     0.00000000     0.00000000     0.00000000
     0.00000000     0.00000000     0.00000000
     0.00000000     0.00000000     0.00000000
     0.00000000     0.00000000     0.00000000
     0.00000000     0.00000000     0.00000000
--------------------------------------------------
 Coupling Information
--------------------------------------------------
 between  1 and  2 states
--------------------------------------------------
 g vector - difference gradient
     0.01033960    -0.06669524     0.05153295
     0.03539999     0.16075046    -0.07294370
    -0.04150762    -0.00355416    -0.00763576
    -0.00138599     0.02527767     0.02758361
    -0.08021416    -0.02342165    -0.01123381
     0.05375871    -0.16118071    -0.06505143
     0.12326230     0.17063000    -0.26356604
    -0.03523916     0.04754885     0.06154928
     0.00258086    -0.13519275     0.15746508
    -0.35228817    -0.10190298     0.07058080
    -0.02721017     0.16071437     0.07654631
     0.31683033    -0.08115734    -0.04694092
     0.04456146    -0.04237022    -0.02324696
    -0.04888798     0.05055369     0.04536060

 h vector - derivative coupling
     0.06589120     0.32956923    -0.03445247
    -0.01146406    -0.47142781    -0.04169347
    -0.04880670    -0.00583397     0.00266604
    -0.01999624     0.00348933     0.01074883
    -0.06824050     0.03697123     0.05571561
    -0.12519783     0.03414825    -0.07631249
     0.19139645    -0.02095969     0.14288179
     0.00948588     0.06132533    -0.05614821
     0.03543134    -0.03423068     0.01487527
    -0.03042882     0.08223334    -0.01972738
    -0.01730089    -0.01190225     0.00062433
     0.00264094    -0.00183448     0.00326349
     0.01774951    -0.02559591     0.00443357
    -0.00116027     0.02404806    -0.00687491

 G vector - GDV
     0.00000000     0.00000000     0.00000000
     0.00000000     0.00000000     0.00000000
     0.00000000     0.00000000     0.00000000
     0.00000000     0.00000000     0.00000000
     0.00000000     0.00000000     0.00000000
     0.00000000     0.00000000     0.00000000
     0.00000000     0.00000000     0.00000000
     0.00000000     0.00000000     0.00000000
     0.00000000     0.00000000     0.00000000
     0.00000000     0.00000000     0.00000000
     0.00000000     0.00000000     0.00000000
     0.00000000     0.00000000     0.00000000
     0.00000000     0.00000000     0.00000000
     0.00000000     0.00000000     0.00000000

 H vector - DCV - non-adiabatic coupling
     0.00000000     0.00000000     0.00000000
     0.00000000     0.00000000     0.00000000
     0.00000000     0.00000000     0.00000000
     0.00000000     0.00000000     0.00000000
     0.00000000     0.00000000     0.00000000
     0.00000000     0.00000000     0.00000000
     0.00000000     0.00000000     0.00000000
     0.00000000     0.00000000     0.00000000
     0.00000000     0.00000000     0.00000000
     0.00000000     0.00000000     0.00000000
     0.00000000     0.00000000     0.00000000
     0.00000000     0.00000000     0.00000000
     0.00000000     0.00000000     0.00000000
     0.00000000     0.00000000     0.00000000
--------------------------------------------------

WARNING!
-> SCC is NOT converged, maximal SCC iterations exceeded

--------------------------------------------------------------------------------
DFTB+ running times                          cpu [s]             wall clock [s]
--------------------------------------------------------------------------------
SCC                                    +     1.57  ( 81.2%)      1.57  ( 81.1%)
      Sparse to dense                        0.08  (  3.9%)      0.07  (  3.7%)
      Dense to sparse                        0.26  ( 13.5%)      0.25  ( 13.1%)
      Range separated Hamiltonian            0.12  (  6.5%)      0.13  (  6.5%)
  Density matrix creation                    0.16  (  8.2%)      0.16  (  8.0%)
  Force calculation                          0.36  ( 18.6%)      0.36  ( 18.6%)
--------------------------------------------------------------------------------
Missing                                +     0.36  ( 18.8%)      0.37  ( 18.9%)
Total                                  =     1.93  (100.0%)      1.94  (100.0%)
--------------------------------------------------------------------------------
