    14
  Step:   600            Position(A)                                  Velocity(au)
C        -6.02246827    -0.78668969    -0.11377763    -0.00059751     0.00052492    -0.00015511
C        -4.78656719    -0.51120074     0.41002325     0.00030767    -0.00023071     0.00005048
H        -6.22635602    -0.74284014    -1.18908497    -0.00048786    -0.00062773     0.00133407
H        -6.86911744    -1.10730520     0.54080396    -0.00069181    -0.00028700    -0.00005861
H        -4.64034358    -1.01379915     1.33586571     0.00097771    -0.00224934    -0.00096303
C        -3.81036139     0.21404348    -0.33109305     0.00060456    -0.00009858    -0.00014225
C        -2.40939598     0.50397319    -0.15339114    -0.00035529    -0.00005558     0.00076499
H        -4.15102208     0.34911724    -1.35564555     0.00195385     0.00207255     0.00050663
H        -1.89842602     0.51352406    -1.12738346     0.00076772    -0.00187509    -0.00035078
C        -1.88120847     1.61172116     0.41656943     0.00009374    -0.00000958    -0.00044404
H        -2.66163319     2.46395338     0.73318205     0.00069254    -0.00338777     0.00063706
N        -0.57566000     1.89972031     0.19557742    -0.00036876     0.00036641    -0.00026513
H        -0.00497602     2.45470913     0.88055796    -0.00022943    -0.00045461     0.00025042
H        -0.18886302     1.02897806    -0.24392824     0.00150823     0.00016250     0.00144589
