    14
  Step:     0            Position(A)                                  Velocity(au)
C        -6.02870071    -0.55117198    -0.13529293     0.00022286     0.00001237     0.00010919
C        -4.69816789    -0.80586903     0.12809094    -0.00035851     0.00002045    -0.00011365
H        -6.25540945     0.45081685    -0.55114607     0.00068820    -0.00013203    -0.00020900
H        -6.88030093    -1.29899704    -0.00140084     0.00034817     0.00178637    -0.00116937
H        -4.36411296    -1.71505430     0.60259698     0.00046698     0.00028369     0.00021360
C        -3.79878634     0.25841652    -0.05377682     0.00016694    -0.00020406     0.00001453
C        -2.44991660     0.39916073     0.30644160     0.00036405    -0.00001454     0.00027311
H        -4.31030821     1.14518184    -0.48578832    -0.00038493     0.00139572    -0.00022829
H        -1.80288335    -0.41112544     0.67714939     0.00051348    -0.00020592    -0.00028425
C        -1.89762796     1.67311569    -0.04721756    -0.00049885    -0.00029331    -0.00001721
H        -2.54253329     2.43924401    -0.47830725    -0.00038871     0.00126569     0.00035758
N        -0.63222253     1.90468464     0.17999395    -0.00005331     0.00003614    -0.00020600
H        -0.16871201     2.76454362    -0.02534933     0.00079227    -0.00020069     0.00042420
H         0.03060304     1.19601196     0.41245905    -0.00006115     0.00101386     0.00058875
    14
  Step:     1            Position(A)                                  Velocity(au)
C        -6.02650592    -0.55107565    -0.13416552     0.00017826     0.00000848     0.00009534
C        -4.70194822    -0.80562946     0.12692299    -0.00032866     0.00002230    -0.00009859
H        -6.24817623     0.44866885    -0.55316500     0.00063373    -0.00025238    -0.00016174
H        -6.87503833    -1.27826451    -0.01427516     0.00058268     0.00196687    -0.00117342
H        -4.35896406    -1.71257084     0.60492269     0.00046669     0.00017496     0.00020673
C        -3.79745441     0.25611853    -0.05370958     0.00007531    -0.00021271    -0.00000342
C        -2.44555488     0.39921677     0.30938754     0.00043049     0.00002323     0.00026496
H        -4.31376252     1.16024454    -0.48814509    -0.00022517     0.00131533    -0.00018433
H        -1.79776655    -0.41299469     0.67402853     0.00042373    -0.00013459    -0.00028557
C        -1.90334680     1.66963594    -0.04734993    -0.00054273    -0.00033771    -0.00000730
H        -2.54649861     2.45319687    -0.47423485    -0.00032252     0.00125268     0.00039859
N        -0.63254294     1.90519065     0.17775975    -0.00000836     0.00005750    -0.00020341
H        -0.15999225     2.76343659    -0.02107453     0.00079025    -0.00000470     0.00035645
H         0.03018818     1.20605098     0.41935826    -0.00000097     0.00079798     0.00067911
    14
  Step:     2            Position(A)                                  Velocity(au)
C        -6.02480093    -0.55098648    -0.13320724     0.00013450     0.00001145     0.00007839
C        -4.70535794    -0.80538113     0.12593409    -0.00029093     0.00002194    -0.00008093
H        -6.24154539     0.44529564    -0.55468444     0.00057760    -0.00035205    -0.00011936
H        -6.86755369    -1.25596804    -0.02707166     0.00074211     0.00206301    -0.00115444
H        -4.35390317    -1.71122680     0.60711949     0.00045042     0.00007808     0.00018897
C        -3.79713876     0.25376318    -0.05385168    -0.00001793    -0.00021526    -0.00002320
C        -2.44049876     0.39966885     0.31223805     0.00049037     0.00005777     0.00025558
H        -4.31523423     1.17395720    -0.48982099    -0.00002943     0.00115771    -0.00010877
H        -1.79361346    -0.41406989     0.67090191     0.00034028    -0.00006346    -0.00028411
C        -1.90950121     1.66572766    -0.04737729    -0.00057755    -0.00037153     0.00000219
H        -2.54958899     2.46664868    -0.46958724    -0.00023235     0.00117684     0.00046035
N        -0.63240544     1.90594267     0.17554400     0.00003079     0.00008073    -0.00020258
H        -0.15142381     2.76444077    -0.01755131     0.00076189     0.00017739     0.00028865
H         0.03058191     1.21346930     0.42731584     0.00007813     0.00054655     0.00077889
    14
  Step:     3            Position(A)                                  Velocity(au)
C        -6.02356337    -0.55082514    -0.13245049     0.00009412     0.00002196     0.00005870
C        -4.70831286    -0.80514946     0.12515253    -0.00024601     0.00001916    -0.00006076
H        -6.23554020     0.44096698    -0.55577630     0.00051895    -0.00042352    -0.00008512
H        -6.85880317    -1.23313224    -0.03953068     0.00080238     0.00205736    -0.00111162
H        -4.34911033    -1.71086259     0.60905674     0.00041773    -0.00000262     0.00015882
C        -3.79784670     0.25140941    -0.05421717    -0.00011066    -0.00021297    -0.00004373
C        -2.43482700     0.40048055     0.31497880     0.00054227     0.00008874     0.00024481
H        -4.31440641     1.18557167    -0.49052467     0.00018860     0.00094035    -0.00001122
H        -1.79032219    -0.41438304     0.66781309     0.00026889     0.00000215    -0.00027756
C        -1.91598189     1.66150803    -0.04730208    -0.00060167    -0.00039457     0.00001160
H        -2.55158168     2.47894254    -0.46416390    -0.00012609     0.00104518     0.00053751
N        -0.63186931     1.90695677     0.17332785     0.00006517     0.00010481    -0.00020327
H        -0.14332441     2.76731744    -0.01475985     0.00070302     0.00033175     0.00022401
H         0.03189740     1.21800788     0.43639807     0.00015738     0.00028491     0.00088024
    14
  Step:     4            Position(A)                                  Velocity(au)
C        -6.02274190    -0.55050600    -0.13192317     0.00005960     0.00004033     0.00003674
C        -4.71073992    -0.80496195     0.12460479    -0.00019520     0.00001380    -0.00003832
H        -6.23019240     0.43603024    -0.55654670     0.00045712    -0.00046039    -0.00006190
H        -6.85000012    -1.21095943    -0.05139057     0.00074337     0.00193708    -0.00104566
H        -4.34476460    -1.71128402     0.61059408     0.00036923    -0.00006510     0.00011603
C        -3.79955967     0.24910414    -0.05480846    -0.00020033    -0.00020679    -0.00006398
C        -2.42863555     0.40161020     0.31759369     0.00058452     0.00011552     0.00023250
H        -4.31110823     1.19452909    -0.49006644     0.00041603     0.00068021     0.00009942
H        -1.78773099    -0.41402278     0.66482972     0.00021455     0.00005743    -0.00026389
C        -1.92266386     1.65709562    -0.04712349    -0.00061383    -0.00040674     0.00002118
H        -2.55234737     2.48951404    -0.45782828    -0.00001246     0.00086711     0.00062405
N        -0.63097977     1.90823561     0.17109701     0.00009610     0.00012841    -0.00020495
H        -0.13604393     2.77169854    -0.01265071     0.00061218     0.00044906     0.00016468
H         0.03402496     1.21970217     0.44657270     0.00021684     0.00003941     0.00097374
    14
  Step:     5            Position(A)                                  Velocity(au)
C        -6.02225951    -0.54994281    -0.13164680     0.00003275     0.00006615     0.00001317
C        -4.71258325    -0.80484766     0.12431415    -0.00014026     0.00000574    -0.00001396
H        -6.22553977     0.43089507    -0.55713050     0.00039171    -0.00045797    -0.00005193
H        -6.84254057    -1.19075498    -0.06240658     0.00055576     0.00169902    -0.00095907
H        -4.34103273    -1.71228675     0.61159509     0.00030655    -0.00010947     0.00006156
C        -3.80222930     0.24688550    -0.05561687    -0.00028417    -0.00019743    -0.00008295
C        -2.42203951     0.40300785     0.32006520     0.00061543     0.00013728     0.00021856
H        -4.30530492     1.20045266    -0.48834967     0.00064088     0.00039367     0.00021495
H        -1.78562847    -0.41312675     0.66203994     0.00018117     0.00009839    -0.00024149
C        -1.92941060     1.65260991    -0.04683879    -0.00061319    -0.00040800     0.00003104
H        -2.55185429     2.49791226    -0.45051166     0.00009967     0.00065370     0.00071377
N        -0.62976694     1.90976604     0.16884407     0.00012483     0.00015012    -0.00020697
H        -0.12993185     2.77714152    -0.01115715     0.00049092     0.00052512     0.00011174
H         0.03664117     1.21886995     0.45770043     0.00023938    -0.00016670     0.00105005
    14
  Step:     6            Position(A)                                  Velocity(au)
C        -6.02202539    -0.54905890    -0.13163505     0.00001393     0.00009792    -0.00001125
C        -4.71380839    -0.80483636     0.12429948    -0.00008322    -0.00000500     0.00001188
H        -6.22162290     0.42601132    -0.55768276     0.00032264    -0.00041391    -0.00005653
H        -6.83784172    -1.17379011    -0.07237205     0.00024852     0.00135481    -0.00085618
H        -4.33805814    -1.71367881     0.61194084     0.00023223    -0.00013766    -0.00000251
C        -3.80577646     0.24478499    -0.05662326    -0.00035947    -0.00018549    -0.00009975
C        -2.41517182     0.40461345     0.32237516     0.00063357     0.00015306     0.00020299
H        -4.29708777     1.20314140    -0.48536405     0.00085195     0.00009684     0.00032764
H        -1.78376748    -0.41187034     0.65954676     0.00017120     0.00012236    -0.00020935
C        -1.93607864     1.64816994    -0.04644446    -0.00059928    -0.00039848     0.00004123
H        -2.55016691     2.50381498    -0.44221309     0.00020169     0.00041724     0.00080058
N        -0.62824895     1.91151971     0.16656919     0.00015219     0.00016867    -0.00020866
H        -0.12530403     2.78318663    -0.01020627     0.00034361     0.00056070     0.00006531
H         0.03926185     1.21605522     0.46954465     0.00021391    -0.00031655     0.00110150
    14
  Step:     7            Position(A)                                  Velocity(au)
C        -6.02195471    -0.54780052    -0.13189289     0.00000156     0.00013297    -0.00003574
C        -4.71440391    -0.80495715     0.12457414    -0.00002617    -0.00001831     0.00003867
H        -6.21848147     0.42183994    -0.55836719     0.00025016    -0.00032879    -0.00007585
H        -6.83710371    -1.16111601    -0.08113723    -0.00014669     0.00093316    -0.00074263
H        -4.33595234    -1.71529828     0.61154009     0.00014946    -0.00015302    -0.00007331
C        -3.81009334     0.24282748    -0.05779911    -0.00042382    -0.00017168    -0.00011356
C        -2.40817892     0.40635624     0.32450604     0.00063804     0.00016193     0.00018592
H        -4.28666685     1.20257113    -0.48118189     0.00103857    -0.00019371     0.00042992
H        -1.78188315    -0.41044979     0.65745991     0.00018532     0.00012836    -0.00016732
C        -1.94252111     1.64389228    -0.04593680    -0.00057195    -0.00037860     0.00005177
H        -2.54744192     2.50704025    -0.43299742     0.00028544     0.00017095     0.00087860
N        -0.62643754     1.91345596     0.16427917     0.00017847     0.00018312    -0.00020952
H        -0.12241465     2.78940785    -0.00972836     0.00017683     0.00056071     0.00002482
H         0.04132084     1.21194487     0.48179778     0.00013679    -0.00040118     0.00112317
    14
  Step:     8            Position(A)                                  Velocity(au)
C        -6.02199118    -0.54614987    -0.13241699    -0.00000774     0.00016770    -0.00005964
C        -4.71438094    -0.80523684     0.12514538     0.00002891    -0.00003387     0.00006581
H        -6.21615020     0.41881840    -0.55934214     0.00017495    -0.00020660    -0.00010863
H        -6.84105075    -1.15337554    -0.08861855    -0.00057792     0.00047698    -0.00062432
H        -4.33478849    -1.71702642     0.61033697     0.00006193    -0.00015989    -0.00014739
C        -3.81504829     0.24102926    -0.05910750    -0.00047529    -0.00015689    -0.00012364
C        -2.40121353     0.40815596     0.32644249     0.00062861     0.00016311     0.00016760
H        -4.27436704     1.19890365    -0.47595869     0.00119038    -0.00046029     0.00051405
H        -1.77971322    -0.40906212     0.65588622     0.00022233     0.00011731    -0.00011613
C        -1.94859107     1.63988742    -0.04531189    -0.00053131    -0.00034906     0.00006269
H        -2.54392231     2.50755489    -0.42299206     0.00034334    -0.00007131     0.00094229
N        -0.62434455     1.91552582     0.16198561     0.00020341     0.00019292    -0.00020920
H        -0.12143559     2.79545318    -0.00966333    -0.00000137     0.00053320    -0.00001081
H         0.04225437     1.20727860     0.49411608     0.00001164    -0.00041954     0.00111345
    14
  Step:     9            Position(A)                                  Velocity(au)
C        -6.02212402    -0.54413184    -0.13319754    -0.00001830     0.00019835    -0.00008246
C        -4.71377136    -0.80569819     0.12601385     0.00008025    -0.00005126     0.00009271
H        -6.21465410     0.41732018    -0.56074357     0.00009812    -0.00005504    -0.00015201
H        -6.84974692    -1.15068113    -0.09479533    -0.00098369     0.00003489    -0.00050635
H        -4.33459760    -1.71879623     0.60831561    -0.00002645    -0.00016321    -0.00022101
C        -3.82049124     0.23939512    -0.06050387    -0.00051248    -0.00014236    -0.00012933
C        -2.39442697     0.40992466     0.32817257     0.00060575     0.00015603     0.00014839
H        -4.26062501     1.19250147    -0.46993606     0.00129740    -0.00068384     0.00057202
H        -1.77701934    -0.40788334     0.65491930     0.00027910     0.00009213    -0.00005743
C        -1.95414460     1.63625584    -0.04456525    -0.00047780    -0.00031100     0.00007408
H        -2.53993062     2.50548021    -0.41238299     0.00036853    -0.00029537     0.00098655
N        -0.62198746     1.91767643     0.15970252     0.00022633     0.00019788    -0.00020759
H        -0.12244468     2.80107254    -0.00996479    -0.00018221     0.00048817    -0.00004289
H         0.04157538     1.20276670     0.50615652    -0.00015210    -0.00037719     0.00107389
    14
  Step:    10            Position(A)                                  Velocity(au)
C        -6.02239162    -0.54181068    -0.13422103    -0.00003412     0.00022191    -0.00010402
C        -4.71262534    -0.80635830     0.12717349     0.00012627    -0.00006990     0.00011874
H        -6.21400368     0.41761427    -0.56266756     0.00002119     0.00011478    -0.00020165
H        -6.86257093    -1.15261226    -0.09969590    -0.00130800    -0.00034975    -0.00039243
H        -4.33536718    -1.72059688     0.60550206    -0.00011174    -0.00016812    -0.00029036
C        -3.82625969     0.23791483    -0.06193683    -0.00053448    -0.00012958    -0.00013004
C        -2.38796158     0.41156944     0.32968877     0.00057056     0.00014037     0.00012870
H        -4.24598383     1.18394331    -0.46344460     0.00135041    -0.00084421     0.00059572
H        -1.77360734    -0.40704664     0.65462983     0.00035084     0.00005753     0.00000632
C        -1.95904380     1.63308377    -0.04369129    -0.00041205    -0.00026587     0.00008606
H        -2.53585990     2.50109317    -0.40140929     0.00035508    -0.00048724     0.00100688
N        -0.61939307     1.91985479     0.15744415     0.00024627     0.00019813    -0.00020476
H        -0.12542174     2.80613288    -0.01060172    -0.00035691     0.00043650    -0.00007285
H         0.03892692     1.19902686     0.51760937    -0.00034111    -0.00028456     0.00100870
    14
  Step:    11            Position(A)                                  Velocity(au)
C        -6.02287052    -0.53927714    -0.13547312    -0.00005779     0.00023675    -0.00012432
C        -4.71100891    -0.80722741     0.12861161     0.00016565    -0.00008912     0.00014334
H        -6.21419044     0.41983118    -0.56515503    -0.00005394     0.00028929    -0.00025208
H        -6.87836195    -1.15833268    -0.10338056    -0.00151273    -0.00064724    -0.00028485
H        -4.33704222    -1.72247412     0.60196346    -0.00019023    -0.00017963    -0.00035185
C        -3.83218400     0.23656035    -0.06334879    -0.00054091    -0.00012020    -0.00012527
C        -2.38194479     0.41299557     0.33098823     0.00052461     0.00011614     0.00010896
H        -4.23108211     1.17403269    -0.45690354     0.00134178    -0.00092162     0.00057755
H        -1.76934404    -0.40662485     0.65505761     0.00043148     0.00001950     0.00007208
C        -1.96315900     1.63043939    -0.04268260    -0.00033493    -0.00021545     0.00009881
H        -2.53216250     2.49482097    -0.39035565     0.00029837    -0.00063402     0.00099962
N        -0.61659980     1.92201087     0.15522298     0.00026213     0.00019406    -0.00020095
H        -0.13025286     2.81062190    -0.01155852    -0.00051742     0.00038888    -0.00010201
H         0.03411297     1.19654146     0.52822369    -0.00054005    -0.00015524     0.00092414
    14
  Step:    12            Position(A)                                  Velocity(au)
C        -6.02365579    -0.53663134    -0.13694083    -0.00009005     0.00024272    -0.00014355
C        -4.70900134    -0.80830793     0.13030923     0.00019731    -0.00010819     0.00016594
H        -6.21518381     0.42394300    -0.56818229    -0.00012524     0.00045396    -0.00029733
H        -6.89566485    -1.16677183    -0.10592751    -0.00158253    -0.00084443    -0.00018483
H        -4.33952888    -1.72452662     0.59780459    -0.00025865    -0.00020220    -0.00040234
C        -3.83809321     0.23528520    -0.06467739    -0.00053194    -0.00011575    -0.00011470
C        -2.37648464     0.41411012     0.33207258     0.00046978     0.00008367     0.00008954
H        -4.21662991     1.16378101    -0.45080963     0.00126693    -0.00089995     0.00051178
H        -1.76416787    -0.40662011     0.65620677     0.00051432    -0.00001546     0.00013655
C        -1.96637105     1.62837032    -0.04152957    -0.00024753    -0.00016165     0.00011254
H        -2.52933249     2.48722278    -0.37954073     0.00019587    -0.00072542     0.00096252
N        -0.61365838     1.92410022     0.15304808     0.00027282     0.00018630    -0.00019652
H        -0.13674123     2.81464047    -0.01283333    -0.00065692     0.00035481    -0.00013147
H         0.02711236     1.19563075     0.53782671    -0.00073288    -0.00000470     0.00082799
    14
  Step:    13            Position(A)                                  Velocity(au)
C        -6.02484053    -0.53396717    -0.13861351    -0.00013006     0.00024084    -0.00016191
C        -4.70669234    -0.80959429     0.13224176     0.00022043    -0.00012641     0.00018607
H        -6.21693030     0.42976248    -0.57165975    -0.00019070     0.00059510    -0.00033174
H        -6.91298275    -1.17680625    -0.10742400    -0.00152204    -0.00094253    -0.00009299
H        -4.34270068    -1.72689770     0.59316156    -0.00031443    -0.00023931    -0.00043936
C        -3.84382118     0.23402800    -0.06585809    -0.00050832    -0.00011720    -0.00009833
C        -2.37166737     0.41482604     0.33294703     0.00040812     0.00004373     0.00007069
H        -4.20336564     1.15434456    -0.44570742     0.00112609    -0.00077142     0.00039641
H        -1.75809237    -0.40696305     0.65804480     0.00059266    -0.00004121     0.00019649
C        -1.96857416     1.62690305    -0.04022056    -0.00015122    -0.00010632     0.00012739
H        -2.52787752     2.47895104    -0.36929876     0.00004805    -0.00075552     0.00089522
N        -0.61063131     1.92608647     0.15092371     0.00027733     0.00017569    -0.00019198
H        -0.14462418     2.81838411    -0.01443463    -0.00077041     0.00034160    -0.00016195
H         0.01807978     1.19643862     0.54633745    -0.00090393     0.00015072     0.00072902
    14
  Step:    14            Position(A)                                  Velocity(au)
C        -6.02650109    -0.53136243    -0.14048290    -0.00017593     0.00023275    -0.00017958
C        -4.70417896    -0.81107337     0.13437994     0.00023450    -0.00014314     0.00020338
H        -6.21935572     0.43696203    -0.57543973    -0.00024866     0.00070150    -0.00035069
H        -6.92896249    -1.18739149    -0.10796192    -0.00134900    -0.00095206    -0.00000968
H        -4.34640756    -1.72976205     0.58819277    -0.00035592    -0.00029299    -0.00046141
C        -3.84921371     0.23272113    -0.06682863    -0.00047148    -0.00012449    -0.00007665
C        -2.36755634     0.41506669     0.33361916     0.00034167    -0.00000256     0.00005258
H        -4.19199446     1.14690463    -0.44213736     0.00092574    -0.00054185     0.00023519
H        -1.75120231    -0.40752175     0.66050547     0.00066045    -0.00005283     0.00024913
C        -1.96967924     1.62604431    -0.03874260    -0.00004771    -0.00005110     0.00014343
H        -2.52828141     2.47069433    -0.35995609    -0.00014063    -0.00072466     0.00079982
N        -0.60759126     1.92794387     0.14884812     0.00027485     0.00016333    -0.00018791
H        -0.15359552     2.82211360    -0.01637621    -0.00085512     0.00035343    -0.00019362
H         0.00733708     1.19892810     0.55377548    -0.00103871     0.00029475     0.00063660
    14
  Step:    15            Position(A)                                  Velocity(au)
C        -6.02868941    -0.52887531    -0.14254225    -0.00022535     0.00022018    -0.00019666
C        -4.70156219    -0.81272574     0.13669117     0.00023932    -0.00015789     0.00021763
H        -6.22237020     0.44510905    -0.57933184    -0.00029801     0.00076559    -0.00035120
H        -6.94249461    -1.19763438    -0.10763573    -0.00108712    -0.00088801     0.00006494
H        -4.35048709    -1.73330733     0.58306732    -0.00038258    -0.00036338    -0.00046811
C        -3.85413578     0.23130452    -0.06753502    -0.00042347    -0.00013622    -0.00005071
C        -2.36419268     0.41477010     0.33409742     0.00027241    -0.00005366     0.00003522
H        -4.18311324     1.14249049    -0.44056224     0.00067898    -0.00023401     0.00003881
H        -1.74364375    -0.40811872     0.66349490     0.00071273    -0.00004714     0.00029229
C        -1.96961789     1.62578517    -0.03708286     0.00006090     0.00000285     0.00016053
H        -2.53095404     2.46309770    -0.35180128    -0.00036083    -0.00064086     0.00068118
N        -0.60461853     1.92965969     0.14681275     0.00026483     0.00015049    -0.00018496
H        -0.16333147     2.82611616    -0.01867053    -0.00091064     0.00039069    -0.00022603
H        -0.00464401     1.20288682     0.56026420    -0.00112478     0.00041219     0.00055999
    14
  Step:    16            Position(A)                                  Velocity(au)
C        -6.03143102    -0.52654552    -0.14478514    -0.00027595     0.00020468    -0.00021310
C        -4.69894347    -0.81452753     0.13914095     0.00023500    -0.00017035     0.00022870
H        -6.22587533     0.45371067    -0.58312289    -0.00033833     0.00078393    -0.00033210
H        -6.95274521    -1.20681839    -0.10654134    -0.00076142    -0.00076659     0.00013078
H        -4.35477728    -1.73771177     0.57795189    -0.00039505    -0.00044851    -0.00046031
C        -3.85847795     0.22974117    -0.06793797    -0.00036681    -0.00014970    -0.00002207
C        -2.36159682     0.41389282     0.33438965     0.00020214    -0.00010775     0.00001848
H        -4.17714041     1.14178522    -0.44128833     0.00040422     0.00011349    -0.00017558
H        -1.73560991    -0.40855306     0.66689985     0.00074592    -0.00002310     0.00032463
C        -1.96834701     1.62610670    -0.03523061     0.00017209     0.00005487     0.00017844
H        -2.53617522     2.45667436    -0.34505400    -0.00059834    -0.00051966     0.00054677
N        -0.60179749     1.93123611     0.14480184     0.00024714     0.00013856    -0.00018374
H        -0.17351751     2.83066067    -0.02132109    -0.00093894     0.00044964    -0.00025801
H        -0.01726966     1.20794558     0.56602638    -0.00115280     0.00049033     0.00050760
    14
  Step:    17            Position(A)                                  Velocity(au)
C        -6.03472624    -0.52439747    -0.14720430    -0.00032554     0.00018748    -0.00022880
C        -4.69642117    -0.81645257     0.14169448     0.00022198    -0.00018042     0.00023665
H        -6.22977181     0.46225901    -0.58659708    -0.00036986     0.00075701    -0.00029398
H        -6.95915222    -1.21440507    -0.10477470    -0.00039579    -0.00060360     0.00018791
H        -4.35912948    -1.74311928     0.57299709    -0.00039507    -0.00054408    -0.00044006
C        -3.86216045     0.22802944    -0.06801788    -0.00030424    -0.00016156     0.00000739
C        -2.35977055     0.41241288     0.33450180     0.00013244    -0.00016278     0.00000216
H        -4.17427015     1.14497325    -0.44440349     0.00012225     0.00045280    -0.00038707
H        -1.72732526    -0.40862401     0.67059683     0.00075787     0.00001831     0.00034561
C        -1.96585316     1.62698549    -0.03317906     0.00028300     0.00010471     0.00019673
H        -2.54404386     2.45172912    -0.33983961    -0.00083502    -0.00038223     0.00040587
N        -0.59921181     1.93269094     0.14279299     0.00022209     0.00012890    -0.00018480
H        -0.18387265     2.83595286    -0.02431498    -0.00094391     0.00052281    -0.00028777
H        -0.02986370     1.21361363     0.57136898    -0.00111775     0.00052069     0.00048573
    14
  Step:    18            Position(A)                                  Velocity(au)
C        -6.03855283    -0.52244403    -0.14979052    -0.00037217     0.00016949    -0.00024353
C        -4.69408722    -0.81847460     0.14431811     0.00020098    -0.00018816     0.00024162
H        -6.23396663     0.47027169    -0.58955422    -0.00039345     0.00068869    -0.00023895
H        -6.96140391    -1.22002328    -0.10243033    -0.00001230    -0.00041398     0.00023658
H        -4.36342012    -1.74961466     0.56832481    -0.00038534    -0.00064378    -0.00041040
C        -3.86513370     0.22620671    -0.06777629    -0.00023839    -0.00016852     0.00003586
C        -2.35869951     0.41033169     0.33443700     0.00006468    -0.00021659    -0.00001403
H        -4.17446606     1.15169110    -0.44975616    -0.00014732     0.00073716    -0.00057498
H        -1.71903004    -0.40815249     0.67446079     0.00074779     0.00007429     0.00035545
C        -1.96215577     1.62839753    -0.03092669     0.00039059     0.00015237     0.00021491
H        -2.55444295     2.44831233    -0.33617490    -0.00105082    -0.00025179     0.00026829
N        -0.59693886     1.93405614     0.14075894     0.00019054     0.00012263    -0.00018843
H        -0.19416732     2.84209809    -0.02761667    -0.00093065     0.00060000    -0.00031311
H        -0.04172268     1.21933665     0.57665270    -0.00102024     0.00050109     0.00049716
    14
  Step:    19            Position(A)                                  Velocity(au)
C        -6.04286825    -0.52068956    -0.15253205    -0.00041406     0.00015140    -0.00025706
C        -4.69202424    -0.82056898     0.14698044     0.00017296    -0.00019376     0.00024386
H        -6.23837921     0.47732546    -0.59182465    -0.00041045     0.00058550    -0.00017030
H        -6.95942132    -1.22346172    -0.09959896     0.00036830    -0.00021223     0.00027727
H        -4.36755955    -1.75720329     0.56401870    -0.00036918    -0.00073980    -0.00037507
C        -3.86737561     0.22434284    -0.06723331    -0.00017156    -0.00016826     0.00006191
C        -2.35835559     0.40767463     0.33419497     0.00000001    -0.00026701    -0.00003040
H        -4.17749305     1.16109999    -0.45698237    -0.00038891     0.00093070    -0.00072288
H        -1.71096591    -0.40699882     0.67837290     0.00071612     0.00014064     0.00035499
C        -1.95730823     1.63031888    -0.02847751     0.00049181     0.00019773     0.00023250
H        -2.56703265     2.44622068    -0.33397014    -0.00122650    -0.00014936     0.00014298
N        -0.59504328     1.93537373     0.13867075     0.00015395     0.00012038    -0.00019458
H        -0.20423236     2.84907901    -0.03116480    -0.00090465     0.00066987    -0.00033167
H        -0.05218343     1.22457595     0.58224538    -0.00086718     0.00043706     0.00053991
    14
  Step:    20            Position(A)                                  Velocity(au)
C        -6.04761126    -0.51913180    -0.15541415    -0.00044954     0.00013380    -0.00026910
C        -4.69030341    -0.82271347     0.14965295     0.00013902    -0.00019743     0.00024362
H        -6.24294593     0.48308070    -0.59327981    -0.00042254     0.00045582    -0.00009206
H        -6.95334667    -1.22466630    -0.09636453     0.00072590    -0.00001295     0.00031077
H        -4.37149665    -1.76579912     0.56011938    -0.00035011    -0.00082372    -0.00033796
C        -3.86888698     0.22252580    -0.06642191    -0.00010564    -0.00015988     0.00008466
C        -2.35869923     0.40449043     0.33377195    -0.00006060    -0.00031199    -0.00004726
H        -4.18297421     1.17205202    -0.46557049    -0.00059235     0.00101399    -0.00082078
H        -1.70336364    -0.40507571     0.68222688     0.00066430     0.00021223     0.00034561
C        -1.95139659     1.63272322    -0.02584038     0.00058382     0.00024037     0.00024911
H        -2.58127489     2.44504484    -0.33304684    -0.00134620    -0.00009019     0.00003677
N        -0.59357091     1.93668964     0.13650212     0.00011426     0.00012217    -0.00020280