 Fermi distribution function

Calculation with static geometry


********************************************************************************
 iSCC Total electronic   Diff electronic      SCC error    
   13   -0.52745211E+01   -0.26461171E-08    0.99589417E-07
********************************************************************************

 Total charge:     1.00000000

 Atomic gross charges (e)
 Atom           Charge
    1       0.32177816
    2      -0.20935150
    3       0.17335514
    4       0.26042606
    5       0.27292111
    6       0.18087103

Nr. of electrons (up):     12.00000000
Atom populations (up)
 Atom       Population
    1       3.67822184
    2       5.20935150
    3       0.82664486
    4       0.73957394
    5       0.72707889
    6       0.81912897

l-shell populations (up)
 Atom Sh.   l       Population
    1   1   0       1.39679063
    1   2   1       2.28143121
    2   1   0       1.51737487
    2   2   1       3.69197663
    3   1   0       0.82664486
    4   1   0       0.73957394
    5   1   0       0.72707889
    6   1   0       0.81912897

Orbital populations (up)
 Atom Sh.   l   m       Population  Label
    1   1   0   0       1.39679063  s
    1   2   1  -1       0.44020724  p_y
    1   2   1   0       0.86529441  p_z
    1   2   1   1       0.97592956  p_x
    2   1   0   0       1.51737487  s
    2   2   1  -1       1.36781737  p_y
    2   2   1   0       1.06439410  p_z
    2   2   1   1       1.25976515  p_x
    3   1   0   0       0.82664486  s
    4   1   0   0       0.73957394  s
    5   1   0   0       0.72707889  s
    6   1   0   0       0.81912897  s

Fermi level:                        -0.5128218188 H          -13.9546 eV
Band energy:                        -8.6658639560 H         -235.8102 eV
TS:                                  0.0000000000 H            0.0000 eV
Band free energy (E-TS):            -8.6658639560 H         -235.8102 eV
Extrapolated E(0K):                 -8.6658639560 H         -235.8102 eV
Input / Output electrons (q):     12.0000000000     12.0000000000

Energy H0:                          -5.4108682961 H         -147.2372 eV
Energy SCC:                          0.1363472332 H            3.7102 eV
Total Electronic energy:            -5.2745210629 H         -143.5270 eV
Repulsive energy:                    0.1387655855 H            3.7760 eV
Total energy:                       -5.1357554775 H         -139.7510 eV
Extrapolated to 0:                  -5.1357554775 H         -139.7510 eV
Total Mermin free energy:           -5.1357554775 H         -139.7510 eV
Force related energy:               -5.1357554775 H         -139.7510 eV

SCC converged

Excitation Energy:                   0.0899410614 H            2.4474 eV

Total Forces
    1      0.004363627553     -0.000570202410      0.053556346528
    2      0.009081664092      0.007706157557     -0.049212749965
    3     -0.002745382806      0.009447824918      0.002323408754
    4     -0.014127645979     -0.014052220534     -0.005934565612
    5      0.006270756789      0.011411767200      0.002502817308
    6     -0.002843019649     -0.013943326731     -0.003235257012

Maximal derivative component:        0.535563E-01 au


