|===============================================================================
|
|  DFTB+ release 20.1
|
|  Copyright (C) 2006 - 2020  DFTB+ developers group
|
|===============================================================================
|
|  When publishing results obtained with DFTB+, please cite the following
|  reference:
|
|  * DFTB+, a software package for efficient approximate density functional
|    theory based atomistic simulations, J. Chem. Phys. 152, 124101 (2020).
|    [doi: 10.1063/1.5143190]
|
|  You should also cite additional publications crediting the parametrization
|  data you use. Please consult the documentation of the SK-files for the
|  references.
|
|===============================================================================

Reading input file 'dftb_in.hsd'
Parser version: 8

--------------------------------------------------------------------------------
Reading SK-files:
Done.


Processed input in HSD format written to 'dftb_pin.hsd'

Starting initialization...
--------------------------------------------------------------------------------
OpenMP threads:              1
Chosen random seed:          503467430
Mode:                        Static calculation
Self consistent charges:     Yes
SCC-tolerance:                 0.100000E-05
Max. scc iterations:                   1000
Shell resolved Hubbard:      No
Spin polarisation:           No
Nr. of up electrons:            16.000000
Nr. of down electrons:          16.000000
Periodic boundaries:         No
Electronic solver:           Relatively robust
Maximal SCC-cycles:                    1000
Initial charges:             Set automatically (system chrg:   0.100E+01)
Included shells:             C:  s, p
                             H:  s
                             N:  s, p
Spin coupling constants:     C   1(s)-1(s):  -0.455900E-01
                             C   1(s)-2(p):  -0.293000E-01
                             C   2(p)-1(s):  -0.293000E-01
                             C   2(p)-2(p):  -0.275500E-01
                             H   1(s)-1(s):  -0.792500E-01
                             N   1(s)-1(s):  -0.468700E-01
                             N   1(s)-2(p):  -0.317000E-01
                             N   2(p)-1(s):  -0.317000E-01
                             N   2(p)-2(p):  -0.307200E-01
Range separated hybrid:      Yes
  Screening parameter omega:   0.300000E+00
  Range separated algorithm:   MatrixBased
Extra options:
                             Mulliken analysis
                             Force calculation
Force type                   original
                             Eigenvector printing


REKS Calcuation:             Yes
SSR(2,2) Calcuation:         Yes
Energy Functional:           (PPS+OSS)/2
Number of Core Orbitals:                 15
Number of Active Orbitals:                2
Number of Basis:                         32
Number of States:                         2
State-Averaging Weight:          0.500000
                                 0.500000
State of Interest:                        1
Initial Guess:               Diagonalize H0 matrix
Newton-Raphson for FON opt:  Yes
NR max. Iterations:                      50
Level Shifting:              Yes
Shift Value:                     0.300000
W Scale Factor:              C  =    3.200000
                             H  =    3.200000
                             N  =    3.200000
Transition Dipole:           No
Gradient of Microstate:      No
CP-REKS Solver:              Preconditioned Conjugate-Gradient
CG max. Iterations:                     100
CG Tolerance:                  0.100000E-07
Memory for A and Hxc:        Direct Updating Without Saving
Non-Adiabatic Coupling:      Yes

--------------------------------------------------------------------------------

***  Geometry step: 0

  iSCC       reks energy        Diff energy         x_a       SCC error   
    1      -16.3465703965       0.0000000000     0.998082    1.22965997
    2      -16.3677872916      -0.0212168951     0.999766    0.06314408
    3      -16.3732375631      -0.0054502715     0.999940    0.03129281
    4      -16.3753021734      -0.0020646103     0.999976    0.01651011
    5      -16.3762449650      -0.0009427915     0.999987    0.00960676
    6      -16.3767322316      -0.0004872666     0.999992    0.00714167
    7      -16.3770073492      -0.0002751176     0.999995    0.00539464
    8      -16.3771734925      -0.0001661434     0.999996    0.00411810
    9      -16.3772795703      -0.0001060778     0.999997    0.00317023
   10      -16.3773506743      -0.0000711040     0.999997    0.00246009
   11      -16.3774004437      -0.0000497694     0.999997    0.00192509
   12      -16.3774366470      -0.0000362034     0.999998    0.00152040
   13      -16.3774638952      -0.0000272482     0.999998    0.00121323
   14      -16.3774850301      -0.0000211348     0.999998    0.00097931
   15      -16.3775018652      -0.0000168351     0.999998    0.00080060
   16      -16.3775155954      -0.0000137303     0.999998    0.00068442
   17      -16.3775270309      -0.0000114355     0.999998    0.00060222
   18      -16.3775367348      -0.0000097039     0.999998    0.00058283
   19      -16.3775451075      -0.0000083727     0.999998    0.00057955
   20      -16.3775524393      -0.0000073317     0.999998    0.00057095
   21      -16.3775589439      -0.0000065046     0.999998    0.00055902
   22      -16.3775647815      -0.0000058376     0.999998    0.00054515
   23      -16.3775700737      -0.0000052921     0.999998    0.00053027
   24      -16.3775749136      -0.0000048399     0.999998    0.00051504
   25      -16.3775793739      -0.0000044603     0.999998    0.00049989
   26      -16.3775835117      -0.0000041378     0.999998    0.00048509
   27      -16.3775873723      -0.0000038606     0.999998    0.00047083
   28      -16.3775909923      -0.0000036200     0.999998    0.00045719
   29      -16.3775944013      -0.0000034090     0.999998    0.00044424
   30      -16.3775976237      -0.0000032225     0.999998    0.00043199
   31      -16.3776006799      -0.0000030561     0.999998    0.00042043
   32      -16.3776035866      -0.0000029067     0.999998    0.00040953
   33      -16.3776063583      -0.0000027717     0.999998    0.00039927
   34      -16.3776090072      -0.0000026489     0.999998    0.00038960
   35      -16.3776115439      -0.0000025367     0.999998    0.00038050
   36      -16.3776139776      -0.0000024336     0.999998    0.00037192
   37      -16.3776163162      -0.0000023386     0.999998    0.00036382
   38      -16.3776185667      -0.0000022505     0.999998    0.00035617
   39      -16.3776207355      -0.0000021687     0.999998    0.00034892
   40      -16.3776228279      -0.0000020925     0.999998    0.00034206
   41      -16.3776248491      -0.0000020212     0.999998    0.00033555
   42      -16.3776268034      -0.0000019543     0.999998    0.00032936
   43      -16.3776286949      -0.0000018915     0.999998    0.00032347
   44      -16.3776305272      -0.0000018323     0.999998    0.00031786
   45      -16.3776323035      -0.0000017763     0.999998    0.00031250
   46      -16.3776340269      -0.0000017234     0.999998    0.00030737
   47      -16.3776357001      -0.0000016732     0.999998    0.00030246
   48      -16.3776373256      -0.0000016255     0.999998    0.00029775
   49      -16.3776389058      -0.0000015802     0.999998    0.00029323
   50      -16.3776404427      -0.0000015369     0.999998    0.00028889
   51      -16.3776419383      -0.0000014956     0.999998    0.00028470
   52      -16.3776433944      -0.0000014561     0.999998    0.00028067
   53      -16.3776448127      -0.0000014183     0.999998    0.00027678
   54      -16.3776461947      -0.0000013821     0.999998    0.00027303
   55      -16.3776475420      -0.0000013473     0.999998    0.00026939
   56      -16.3776488558      -0.0000013138     0.999998    0.00026588
   57      -16.3776501374      -0.0000012816     0.999998    0.00026247
   58      -16.3776513880      -0.0000012506     0.999998    0.00025917
   59      -16.3776526088      -0.0000012207     0.999998    0.00025597
   60      -16.3776538007      -0.0000011919     0.999998    0.00025286
   61      -16.3776549647      -0.0000011640     0.999998    0.00024983
   62      -16.3776561018      -0.0000011371     0.999998    0.00024689
   63      -16.3776572128      -0.0000011110     0.999998    0.00024403
   64      -16.3776582986      -0.0000010858     0.999998    0.00024124
   65      -16.3776593600      -0.0000010614     0.999998    0.00023852
   66      -16.3776603977      -0.0000010377     0.999998    0.00023587
   67      -16.3776614124      -0.0000010147     0.999998    0.00023329
   68      -16.3776624048      -0.0000009924     0.999998    0.00023076
   69      -16.3776633755      -0.0000009707     0.999998    0.00022829
   70      -16.3776643252      -0.0000009497     0.999998    0.00022588
   71      -16.3776652544      -0.0000009292     0.999998    0.00022352
   72      -16.3776661638      -0.0000009094     0.999998    0.00022121
   73      -16.3776670538      -0.0000008900     0.999998    0.00021895
   74      -16.3776679250      -0.0000008712     0.999998    0.00021674
   75      -16.3776687779      -0.0000008529     0.999998    0.00021457
   76      -16.3776696129      -0.0000008350     0.999998    0.00021244
   77      -16.3776704306      -0.0000008177     0.999998    0.00021035
   78      -16.3776712314      -0.0000008008     0.999998    0.00020831
   79      -16.3776720156      -0.0000007843     0.999998    0.00020630
   80      -16.3776727838      -0.0000007682     0.999999    0.00020433
   81      -16.3776735363      -0.0000007525     0.999999    0.00020239
   82      -16.3776742735      -0.0000007372     0.999999    0.00020049
   83      -16.3776749958      -0.0000007223     0.999999    0.00019862
   84      -16.3776757036      -0.0000007078     0.999999    0.00019678
   85      -16.3776763972      -0.0000006936     0.999999    0.00019497
   86      -16.3776770769      -0.0000006797     0.999999    0.00019319
   87      -16.3776777431      -0.0000006662     0.999999    0.00019144
   88      -16.3776783961      -0.0000006530     0.999999    0.00018971
   89      -16.3776790362      -0.0000006401     0.999999    0.00018801
   90      -16.3776796637      -0.0000006275     0.999999    0.00018634
   91      -16.3776802790      -0.0000006153     0.999999    0.00018469
   92      -16.3776808822      -0.0000006033     0.999999    0.00018307
   93      -16.3776814738      -0.0000005915     0.999999    0.00018147
   94      -16.3776820538      -0.0000005801     0.999999    0.00017990
   95      -16.3776826227      -0.0000005689     0.999999    0.00017834
   96      -16.3776831807      -0.0000005579     0.999999    0.00017681
   97      -16.3776837279      -0.0000005473     0.999999    0.00017530
   98      -16.3776842648      -0.0000005368     0.999999    0.00017381
   99      -16.3776847914      -0.0000005266     0.999999    0.00017233
  100      -16.3776853080      -0.0000005166     0.999999    0.00017088
  101      -16.3776858149      -0.0000005069     0.999999    0.00016945
  102      -16.3776863122      -0.0000004973     0.999999    0.00016803
  103      -16.3776868002      -0.0000004880     0.999999    0.00016664
  104      -16.3776872791      -0.0000004789     0.999999    0.00016526
  105      -16.3776877491      -0.0000004700     0.999999    0.00016390
  106      -16.3776882104      -0.0000004613     0.999999    0.00016255
  107      -16.3776886631      -0.0000004527     0.999999    0.00016122
  108      -16.3776891075      -0.0000004444     0.999999    0.00015991
  109      -16.3776895437      -0.0000004362     0.999999    0.00015861
  110      -16.3776899719      -0.0000004282     0.999999    0.00015733
  111      -16.3776903923      -0.0000004204     0.999999    0.00015606
  112      -16.3776908051      -0.0000004128     0.999999    0.00015481
  113      -16.3776912104      -0.0000004053     0.999999    0.00015357
  114      -16.3776916084      -0.0000003980     0.999999    0.00015235
  115      -16.3776919992      -0.0000003908     0.999999    0.00015114
  116      -16.3776923830      -0.0000003838     0.999999    0.00014995
  117      -16.3776927600      -0.0000003769     0.999999    0.00014876
  118      -16.3776931302      -0.0000003702     0.999999    0.00014759
  119      -16.3776934939      -0.0000003637     0.999999    0.00014644
  120      -16.3776938511      -0.0000003572     0.999999    0.00014529
  121      -16.3776942020      -0.0000003509     0.999999    0.00014416
  122      -16.3776945468      -0.0000003448     0.999999    0.00014304
  123      -16.3776948855      -0.0000003387     0.999999    0.00014194
  124      -16.3776952183      -0.0000003328     0.999999    0.00014084
  125      -16.3776955453      -0.0000003270     0.999999    0.00013976
  126      -16.3776958666      -0.0000003213     0.999999    0.00013869
  127      -16.3776961824      -0.0000003158     0.999999    0.00013763
  128      -16.3776964928      -0.0000003103     0.999999    0.00013658
  129      -16.3776967978      -0.0000003050     0.999999    0.00013554
  130      -16.3776970976      -0.0000002998     0.999999    0.00013451
  131      -16.3776973922      -0.0000002947     0.999999    0.00013350
  132      -16.3776976819      -0.0000002897     0.999999    0.00013249
  133      -16.3776979667      -0.0000002848     0.999999    0.00013150
  134      -16.3776982466      -0.0000002800     0.999999    0.00013051
  135      -16.3776985219      -0.0000002752     0.999999    0.00012954
  136      -16.3776987925      -0.0000002706     0.999999    0.00012857
  137      -16.3776990586      -0.0000002661     0.999999    0.00012762
  138      -16.3776993203      -0.0000002617     0.999999    0.00012667
  139      -16.3776995776      -0.0000002573     0.999999    0.00012573
  140      -16.3776998307      -0.0000002531     0.999999    0.00012481
  141      -16.3777000796      -0.0000002489     0.999999    0.00012389
  142      -16.3777003244      -0.0000002448     0.999999    0.00012298
  143      -16.3777005652      -0.0000002408     0.999999    0.00012208
  144      -16.3777008020      -0.0000002369     0.999999    0.00012119
  145      -16.3777010350      -0.0000002330     0.999999    0.00012031
  146      -16.3777012642      -0.0000002292     0.999999    0.00011944
  147      -16.3777014897      -0.0000002255     0.999999    0.00011857
  148      -16.3777017116      -0.0000002219     0.999999    0.00011772
  149      -16.3777019299      -0.0000002183     0.999999    0.00011687
  150      -16.3777021447      -0.0000002148     0.999999    0.00011603
  151      -16.3777023561      -0.0000002114     0.999999    0.00011520
  152      -16.3777025642      -0.0000002080     0.999999    0.00011438
  153      -16.3777027689      -0.0000002047     0.999999    0.00011356
  154      -16.3777029704      -0.0000002015     0.999999    0.00011276
  155      -16.3777031687      -0.0000001983     0.999999    0.00011196
  156      -16.3777033639      -0.0000001952     0.999999    0.00011117
  157      -16.3777035560      -0.0000001921     0.999999    0.00011039
  158      -16.3777037452      -0.0000001892     0.999999    0.00010961
  159      -16.3777039314      -0.0000001862     0.999999    0.00010884
  160      -16.3777041147      -0.0000001833     0.999999    0.00010808
  161      -16.3777042952      -0.0000001805     0.999999    0.00010733
  162      -16.3777044729      -0.0000001777     0.999999    0.00010658
  163      -16.3777046479      -0.0000001750     0.999999    0.00010584
  164      -16.3777048202      -0.0000001723     0.999999    0.00010511
  165      -16.3777049899      -0.0000001697     0.999999    0.00010438
  166      -16.3777051570      -0.0000001671     0.999999    0.00010366
  167      -16.3777053216      -0.0000001646     0.999999    0.00010295
  168      -16.3777054837      -0.0000001621     0.999999    0.00010225
  169      -16.3777056433      -0.0000001596     0.999999    0.00010155
  170      -16.3777058006      -0.0000001573     0.999999    0.00010086
  171      -16.3777059555      -0.0000001549     0.999999    0.00010017
  172      -16.3777061081      -0.0000001526     0.999999    0.00009949
  173      -16.3777062584      -0.0000001503     0.999999    0.00009882
  174      -16.3777064065      -0.0000001481     0.999999    0.00009815
  175      -16.3777065524      -0.0000001459     0.999999    0.00009749
  176      -16.3777066962      -0.0000001438     0.999999    0.00009684
  177      -16.3777068378      -0.0000001417     0.999999    0.00009619
  178      -16.3777069774      -0.0000001396     0.999999    0.00009555
  179      -16.3777071150      -0.0000001376     0.999999    0.00009491
  180      -16.3777072505      -0.0000001356     0.999999    0.00009428
  181      -16.3777073841      -0.0000001336     0.999999    0.00009366
  182      -16.3777075158      -0.0000001317     0.999999    0.00009304
  183      -16.3777076456      -0.0000001298     0.999999    0.00009243
  184      -16.3777077735      -0.0000001279     0.999999    0.00009182
  185      -16.3777078995      -0.0000001261     0.999999    0.00009122
  186      -16.3777080238      -0.0000001243     0.999999    0.00009062
  187      -16.3777081463      -0.0000001225     0.999999    0.00009003
  188      -16.3777082671      -0.0000001208     0.999999    0.00008944
  189      -16.3777083862      -0.0000001191     0.999999    0.00008886
  190      -16.3777085036      -0.0000001174     0.999999    0.00008829
  191      -16.3777086193      -0.0000001158     0.999999    0.00008772
  192      -16.3777087335      -0.0000001141     0.999999    0.00008715
  193      -16.3777088460      -0.0000001125     0.999999    0.00008660
  194      -16.3777089570      -0.0000001110     0.999999    0.00008604
  195      -16.3777090664      -0.0000001094     0.999999    0.00008549
  196      -16.3777091744      -0.0000001079     0.999999    0.00008495
  197      -16.3777092808      -0.0000001064     0.999999    0.00008441
  198      -16.3777093858      -0.0000001050     0.999999    0.00008387
  199      -16.3777094893      -0.0000001035     0.999999    0.00008334
  200      -16.3777095915      -0.0000001021     0.999999    0.00008282
  201      -16.3777096922      -0.0000001007     0.999999    0.00008230
  202      -16.3777097916      -0.0000000994     0.999999    0.00008178
  203      -16.3777098896      -0.0000000980     0.999999    0.00008127
  204      -16.3777099863      -0.0000000967     0.999999    0.00008076
  205      -16.3777100817      -0.0000000954     0.999999    0.00008026
  206      -16.3777101759      -0.0000000941     0.999999    0.00007976
  207      -16.3777102688      -0.0000000929     0.999999    0.00007927
  208      -16.3777103604      -0.0000000916     0.999999    0.00007878
  209      -16.3777104508      -0.0000000904     0.999999    0.00007829
  210      -16.3777105401      -0.0000000892     0.999999    0.00007781
  211      -16.3777106281      -0.0000000881     0.999999    0.00007734
  212      -16.3777107150      -0.0000000869     0.999999    0.00007686
  213      -16.3777108008      -0.0000000858     0.999999    0.00007640
  214      -16.3777108854      -0.0000000846     0.999999    0.00007593
  215      -16.3777109689      -0.0000000835     0.999999    0.00007547
  216      -16.3777110514      -0.0000000824     0.999999    0.00007502
  217      -16.3777111328      -0.0000000814     0.999999    0.00007456
  218      -16.3777112131      -0.0000000803     0.999999    0.00007411
  219      -16.3777112924      -0.0000000793     0.999999    0.00007367
  220      -16.3777113707      -0.0000000783     0.999999    0.00007323
  221      -16.3777114479      -0.0000000773     0.999999    0.00007279
  222      -16.3777115242      -0.0000000763     0.999999    0.00007236
  223      -16.3777115996      -0.0000000753     0.999999    0.00007193
  224      -16.3777116739      -0.0000000744     0.999999    0.00007150
  225      -16.3777117474      -0.0000000734     0.999999    0.00007108
  226      -16.3777118199      -0.0000000725     0.999999    0.00007066
  227      -16.3777118914      -0.0000000716     0.999999    0.00007025
  228      -16.3777119621      -0.0000000707     0.999999    0.00006984
  229      -16.3777120319      -0.0000000698     0.999999    0.00006943
  230      -16.3777121009      -0.0000000689     0.999999    0.00006902
  231      -16.3777121690      -0.0000000681     0.999999    0.00006862
  232      -16.3777122362      -0.0000000672     0.999999    0.00006823
  233      -16.3777123026      -0.0000000664     0.999999    0.00006783
  234      -16.3777123682      -0.0000000656     0.999999    0.00006744
  235      -16.3777124330      -0.0000000648     0.999999    0.00006705
  236      -16.3777124970      -0.0000000640     0.999999    0.00006667
  237      -16.3777125602      -0.0000000632     0.999999    0.00006629
  238      -16.3777126227      -0.0000000624     0.999999    0.00006591
  239      -16.3777126844      -0.0000000617     0.999999    0.00006553
  240      -16.3777127453      -0.0000000609     0.999999    0.00006516
  241      -16.3777128055      -0.0000000602     0.999999    0.00006479
  242      -16.3777128650      -0.0000000595     0.999999    0.00006442
  243      -16.3777129238      -0.0000000588     0.999999    0.00006406
  244      -16.3777129818      -0.0000000581     0.999999    0.00006370
  245      -16.3777130392      -0.0000000574     0.999999    0.00006334
  246      -16.3777130959      -0.0000000567     0.999999    0.00006299
  247      -16.3777131519      -0.0000000560     0.999999    0.00006264
  248      -16.3777132073      -0.0000000554     0.999999    0.00006229
  249      -16.3777132620      -0.0000000547     0.999999    0.00006195
  250      -16.3777133161      -0.0000000541     0.999999    0.00006160
  251      -16.3777133695      -0.0000000534     0.999999    0.00006126
  252      -16.3777134223      -0.0000000528     0.999999    0.00006093
  253      -16.3777134745      -0.0000000522     0.999999    0.00006059
  254      -16.3777135261      -0.0000000516     0.999999    0.00006026
  255      -16.3777135771      -0.0000000510     0.999999    0.00005993
  256      -16.3777136275      -0.0000000504     0.999999    0.00005960
  257      -16.3777136773      -0.0000000498     0.999999    0.00005928
  258      -16.3777137266      -0.0000000493     0.999999    0.00005896
  259      -16.3777137753      -0.0000000487     0.999999    0.00005864
  260      -16.3777138234      -0.0000000481     0.999999    0.00005832
  261      -16.3777138710      -0.0000000476     0.999999    0.00005801
  262      -16.3777139180      -0.0000000470     0.999999    0.00005770
  263      -16.3777139645      -0.0000000465     0.999999    0.00005739
  264      -16.3777140105      -0.0000000460     0.999999    0.00005708
  265      -16.3777140560      -0.0000000455     0.999999    0.00005678
  266      -16.3777141009      -0.0000000450     0.999999    0.00005648
  267      -16.3777141454      -0.0000000445     0.999999    0.00005618
  268      -16.3777141893      -0.0000000440     0.999999    0.00005588
  269      -16.3777142328      -0.0000000435     0.999999    0.00005559
  270      -16.3777142758      -0.0000000430     0.999999    0.00005530
  271      -16.3777143183      -0.0000000425     0.999999    0.00005501
  272      -16.3777143604      -0.0000000420     0.999999    0.00005472
  273      -16.3777144019      -0.0000000416     0.999999    0.00005443
  274      -16.3777144431      -0.0000000411     0.999999    0.00005415
  275      -16.3777144837      -0.0000000407     0.999999    0.00005387
  276      -16.3777145240      -0.0000000402     0.999999    0.00005359
  277      -16.3777145637      -0.0000000398     0.999999    0.00005331
  278      -16.3777146031      -0.0000000394     0.999999    0.00005304
  279      -16.3777146420      -0.0000000389     0.999999    0.00005277
  280      -16.3777146806      -0.0000000385     0.999999    0.00005250
  281      -16.3777147187      -0.0000000381     0.999999    0.00005223
  282      -16.3777147563      -0.0000000377     0.999999    0.00005196
  283      -16.3777147936      -0.0000000373     0.999999    0.00005170
  284      -16.3777148305      -0.0000000369     0.999999    0.00005143
  285      -16.3777148670      -0.0000000365     0.999999    0.00005117
  286      -16.3777149031      -0.0000000361     0.999999    0.00005092
  287      -16.3777149388      -0.0000000357     0.999999    0.00005066
  288      -16.3777149742      -0.0000000353     0.999999    0.00005041
  289      -16.3777150092      -0.0000000350     0.999999    0.00005015
  290      -16.3777150438      -0.0000000346     0.999999    0.00004990
  291      -16.3777150780      -0.0000000342     0.999999    0.00004965
  292      -16.3777151119      -0.0000000339     0.999999    0.00004941
  293      -16.3777151455      -0.0000000335     0.999999    0.00004916
  294      -16.3777151786      -0.0000000332     0.999999    0.00004892
  295      -16.3777152115      -0.0000000328     0.999999    0.00004868
  296      -16.3777152440      -0.0000000325     0.999999    0.00004844
  297      -16.3777152762      -0.0000000322     0.999999    0.00004820
  298      -16.3777153080      -0.0000000318     0.999999    0.00004796
  299      -16.3777153395      -0.0000000315     0.999999    0.00004773
  300      -16.3777153707      -0.0000000312     0.999999    0.00004750
  301      -16.3777154016      -0.0000000309     0.999999    0.00004727
  302      -16.3777154321      -0.0000000306     0.999999    0.00004704
  303      -16.3777154624      -0.0000000302     0.999999    0.00004681
  304      -16.3777154923      -0.0000000299     0.999999    0.00004658
  305      -16.3777155220      -0.0000000296     0.999999    0.00004636
  306      -16.3777155513      -0.0000000293     0.999999    0.00004614
  307      -16.3777155804      -0.0000000290     0.999999    0.00004592
  308      -16.3777156091      -0.0000000288     0.999999    0.00004570
  309      -16.3777156376      -0.0000000285     0.999999    0.00004548
  310      -16.3777156658      -0.0000000282     0.999999    0.00004526
  311      -16.3777156937      -0.0000000279     0.999999    0.00004505
  312      -16.3777157213      -0.0000000276     0.999999    0.00004484
  313      -16.3777157487      -0.0000000274     0.999999    0.00004462
  314      -16.3777157758      -0.0000000271     0.999999    0.00004441
  315      -16.3777158026      -0.0000000268     0.999999    0.00004421
  316      -16.3777158291      -0.0000000266     0.999999    0.00004400
  317      -16.3777158554      -0.0000000263     0.999999    0.00004379
  318      -16.3777158815      -0.0000000260     0.999999    0.00004359
  319      -16.3777159073      -0.0000000258     0.999999    0.00004339
  320      -16.3777159328      -0.0000000255     0.999999    0.00004319
  321      -16.3777159581      -0.0000000253     0.999999    0.00004299
  322      -16.3777159832      -0.0000000251     0.999999    0.00004279
  323      -16.3777160080      -0.0000000248     0.999999    0.00004259
  324      -16.3777160326      -0.0000000246     0.999999    0.00004240
  325      -16.3777160569      -0.0000000243     0.999999    0.00004220
  326      -16.3777160810      -0.0000000241     0.999999    0.00004201
  327      -16.3777161049      -0.0000000239     0.999999    0.00004182
  328      -16.3777161285      -0.0000000236     0.999999    0.00004163
  329      -16.3777161519      -0.0000000234     0.999999    0.00004144
  330      -16.3777161751      -0.0000000232     0.999999    0.00004125
  331      -16.3777161981      -0.0000000230     0.999999    0.00004106
  332      -16.3777162209      -0.0000000228     0.999999    0.00004088
  333      -16.3777162435      -0.0000000226     0.999999    0.00004070
  334      -16.3777162658      -0.0000000223     0.999999    0.00004051
  335      -16.3777162879      -0.0000000221     0.999999    0.00004033
  336      -16.3777163099      -0.0000000219     0.999999    0.00004015
  337      -16.3777163316      -0.0000000217     0.999999    0.00003997
  338      -16.3777163531      -0.0000000215     0.999999    0.00003980
  339      -16.3777163745      -0.0000000213     0.999999    0.00003962
  340      -16.3777163956      -0.0000000211     0.999999    0.00003945
  341      -16.3777164165      -0.0000000209     0.999999    0.00003927
  342      -16.3777164373      -0.0000000207     0.999999    0.00003910
  343      -16.3777164578      -0.0000000206     0.999999    0.00003893
  344      -16.3777164782      -0.0000000204     0.999999    0.00003876
  345      -16.3777164984      -0.0000000202     0.999999    0.00003859
  346      -16.3777165184      -0.0000000200     0.999999    0.00003842
  347      -16.3777165382      -0.0000000198     0.999999    0.00003825
  348      -16.3777165578      -0.0000000196     0.999999    0.00003809
  349      -16.3777165773      -0.0000000195     0.999999    0.00003792
  350      -16.3777165966      -0.0000000193     0.999999    0.00003776
  351      -16.3777166157      -0.0000000191     0.999999    0.00003760
  352      -16.3777166347      -0.0000000189     0.999999    0.00003744
  353      -16.3777166534      -0.0000000188     0.999999    0.00003728
  354      -16.3777166720      -0.0000000186     0.999999    0.00003712
  355      -16.3777166905      -0.0000000184     0.999999    0.00003696
  356      -16.3777167088      -0.0000000183     0.999999    0.00003680
  357      -16.3777167269      -0.0000000181     0.999999    0.00003665
  358      -16.3777167449      -0.0000000180     0.999999    0.00003649
  359      -16.3777167627      -0.0000000178     0.999999    0.00003634
  360      -16.3777167803      -0.0000000176     0.999999    0.00003618
  361      -16.3777167978      -0.0000000175     0.999999    0.00003603
  362      -16.3777168151      -0.0000000173     0.999999    0.00003588
  363      -16.3777168323      -0.0000000172     0.999999    0.00003573
  364      -16.3777168494      -0.0000000170     0.999999    0.00003558
  365      -16.3777168663      -0.0000000169     0.999999    0.00003543
  366      -16.3777168830      -0.0000000167     0.999999    0.00003529
  367      -16.3777168996      -0.0000000166     0.999999    0.00003514
  368      -16.3777169161      -0.0000000165     0.999999    0.00003500
  369      -16.3777169324      -0.0000000163     0.999999    0.00003485
  370      -16.3777169486      -0.0000000162     0.999999    0.00003471
  371      -16.3777169646      -0.0000000160     0.999999    0.00003457
  372      -16.3777169806      -0.0000000159     0.999999    0.00003443
  373      -16.3777169963      -0.0000000158     0.999999    0.00003428
  374      -16.3777170120      -0.0000000156     0.999999    0.00003415
  375      -16.3777170275      -0.0000000155     0.999999    0.00003401
  376      -16.3777170429      -0.0000000154     0.999999    0.00003387
  377      -16.3777170581      -0.0000000152     0.999999    0.00003373
  378      -16.3777170732      -0.0000000151     0.999999    0.00003360
  379      -16.3777170882      -0.0000000150     0.999999    0.00003346
  380      -16.3777171031      -0.0000000149     0.999999    0.00003333
  381      -16.3777171178      -0.0000000147     0.999999    0.00003319
  382      -16.3777171325      -0.0000000146     0.999999    0.00003306
  383      -16.3777171470      -0.0000000145     0.999999    0.00003293
  384      -16.3777171614      -0.0000000144     0.999999    0.00003280
  385      -16.3777171756      -0.0000000143     0.999999    0.00003267
  386      -16.3777171898      -0.0000000141     0.999999    0.00003254
  387      -16.3777172038      -0.0000000140     0.999999    0.00003241
  388      -16.3777172177      -0.0000000139     0.999999    0.00003228
  389      -16.3777172315      -0.0000000138     0.999999    0.00003215
  390      -16.3777172452      -0.0000000137     0.999999    0.00003203
  391      -16.3777172588      -0.0000000136     0.999999    0.00003190
  392      -16.3777172723      -0.0000000135     0.999999    0.00003178
  393      -16.3777172856      -0.0000000134     0.999999    0.00003166
  394      -16.3777172989      -0.0000000133     0.999999    0.00003153
  395      -16.3777173120      -0.0000000131     0.999999    0.00003141
  396      -16.3777173251      -0.0000000130     0.999999    0.00003129
  397      -16.3777173380      -0.0000000129     0.999999    0.00003117
  398      -16.3777173509      -0.0000000128     0.999999    0.00003105
  399      -16.3777173636      -0.0000000127     0.999999    0.00003093
  400      -16.3777173762      -0.0000000126     0.999999    0.00003081
  401      -16.3777173888      -0.0000000125     0.999999    0.00003069
  402      -16.3777174012      -0.0000000124     0.999999    0.00003058
  403      -16.3777174135      -0.0000000123     0.999999    0.00003046
  404      -16.3777174258      -0.0000000122     0.999999    0.00003034
  405      -16.3777174379      -0.0000000121     0.999999    0.00003023
  406      -16.3777174500      -0.0000000120     0.999999    0.00003011
  407      -16.3777174619      -0.0000000120     0.999999    0.00003000
  408      -16.3777174738      -0.0000000119     0.999999    0.00002989
  409      -16.3777174855      -0.0000000118     0.999999    0.00002978
  410      -16.3777174972      -0.0000000117     0.999999    0.00002966
  411      -16.3777175088      -0.0000000116     0.999999    0.00002955
  412      -16.3777175203      -0.0000000115     0.999999    0.00002944
  413      -16.3777175317      -0.0000000114     0.999999    0.00002933
  414      -16.3777175430      -0.0000000113     0.999999    0.00002922
  415      -16.3777175543      -0.0000000112     0.999999    0.00002912
  416      -16.3777175654      -0.0000000111     0.999999    0.00002901
  417      -16.3777175765      -0.0000000111     0.999999    0.00002890
  418      -16.3777175875      -0.0000000110     0.999999    0.00002880
  419      -16.3777175984      -0.0000000109     0.999999    0.00002869
  420      -16.3777176092      -0.0000000108     0.999999    0.00002858
  421      -16.3777176199      -0.0000000107     0.999999    0.00002848
  422      -16.3777176306      -0.0000000107     0.999999    0.00002838
  423      -16.3777176411      -0.0000000106     0.999999    0.00002827
  424      -16.3777176516      -0.0000000105     0.999999    0.00002817
  425      -16.3777176620      -0.0000000104     0.999999    0.00002807
  426      -16.3777176724      -0.0000000103     0.999999    0.00002797
  427      -16.3777176826      -0.0000000103     0.999999    0.00002787
  428      -16.3777176928      -0.0000000102     0.999999    0.00002777
  429      -16.3777177029      -0.0000000101     0.999999    0.00002767
  430      -16.3777177130      -0.0000000100     0.999999    0.00002757
  431      -16.3777177229      -0.0000000100     0.999999    0.00002747
  432      -16.3777177328      -0.0000000099     0.999999    0.00002737
  433      -16.3777177426      -0.0000000098     0.999999    0.00002727
  434      -16.3777177524      -0.0000000097     0.999999    0.00002718
  435      -16.3777177620      -0.0000000097     0.999999    0.00002708
  436      -16.3777177716      -0.0000000096     0.999999    0.00002699
  437      -16.3777177812      -0.0000000095     0.999999    0.00002689
  438      -16.3777177906      -0.0000000095     0.999999    0.00002680
  439      -16.3777178000      -0.0000000094     0.999999    0.00002670
  440      -16.3777178093      -0.0000000093     0.999999    0.00002661
  441      -16.3777178186      -0.0000000093     0.999999    0.00002652
  442      -16.3777178278      -0.0000000092     0.999999    0.00002642
  443      -16.3777178369      -0.0000000091     0.999999    0.00002633
  444      -16.3777178460      -0.0000000091     0.999999    0.00002624
  445      -16.3777178550      -0.0000000090     0.999999    0.00002615
  446      -16.3777178639      -0.0000000089     0.999999    0.00002606
  447      -16.3777178728      -0.0000000089     0.999999    0.00002597
  448      -16.3777178816      -0.0000000088     0.999999    0.00002588
  449      -16.3777178903      -0.0000000087     0.999999    0.00002579
  450      -16.3777178990      -0.0000000087     0.999999    0.00002570
  451      -16.3777179076      -0.0000000086     0.999999    0.00002562
  452      -16.3777179162      -0.0000000086     0.999999    0.00002553
  453      -16.3777179247      -0.0000000085     0.999999    0.00002544
  454      -16.3777179331      -0.0000000084     0.999999    0.00002536
  455      -16.3777179415      -0.0000000084     0.999999    0.00002527
  456      -16.3777179498      -0.0000000083     0.999999    0.00002518
  457      -16.3777179581      -0.0000000083     0.999999    0.00002510
  458      -16.3777179663      -0.0000000082     0.999999    0.00002502
  459      -16.3777179744      -0.0000000082     0.999999    0.00002493
  460      -16.3777179825      -0.0000000081     0.999999    0.00002485
  461      -16.3777179906      -0.0000000080     0.999999    0.00002477
  462      -16.3777179986      -0.0000000080     0.999999    0.00002468
  463      -16.3777180065      -0.0000000079     0.999999    0.00002460
  464      -16.3777180144      -0.0000000079     0.999999    0.00002452
  465      -16.3777180222      -0.0000000078     0.999999    0.00002444
  466      -16.3777180299      -0.0000000078     0.999999    0.00002436
  467      -16.3777180377      -0.0000000077     0.999999    0.00002428
  468      -16.3777180453      -0.0000000077     0.999999    0.00002420
  469      -16.3777180529      -0.0000000076     0.999999    0.00002412
  470      -16.3777180605      -0.0000000076     0.999999    0.00002404
  471      -16.3777180680      -0.0000000075     0.999999    0.00002396
  472      -16.3777180755      -0.0000000075     0.999999    0.00002388
  473      -16.3777180829      -0.0000000074     0.999999    0.00002381
  474      -16.3777180902      -0.0000000074     0.999999    0.00002373
  475      -16.3777180975      -0.0000000073     0.999999    0.00002365
  476      -16.3777181048      -0.0000000073     0.999999    0.00002358
  477      -16.3777181120      -0.0000000072     0.999999    0.00002350
  478      -16.3777181192      -0.0000000072     0.999999    0.00002342
  479      -16.3777181263      -0.0000000071     0.999999    0.00002335
  480      -16.3777181334      -0.0000000071     0.999999    0.00002327
  481      -16.3777181404      -0.0000000070     0.999999    0.00002320
  482      -16.3777181474      -0.0000000070     0.999999    0.00002313
  483      -16.3777181543      -0.0000000069     0.999999    0.00002305
  484      -16.3777181612      -0.0000000069     0.999999    0.00002298
  485      -16.3777181680      -0.0000000068     0.999999    0.00002291
  486      -16.3777181748      -0.0000000068     0.999999    0.00002283
  487      -16.3777181816      -0.0000000068     0.999999    0.00002276
  488      -16.3777181883      -0.0000000067     0.999999    0.00002269
  489      -16.3777181949      -0.0000000067     0.999999    0.00002262
  490      -16.3777182016      -0.0000000066     0.999999    0.00002255
  491      -16.3777182082      -0.0000000066     0.999999    0.00002248
  492      -16.3777182147      -0.0000000065     0.999999    0.00002241
  493      -16.3777182212      -0.0000000065     0.999999    0.00002234
  494      -16.3777182276      -0.0000000065     0.999999    0.00002227
  495      -16.3777182341      -0.0000000064     0.999999    0.00002220
  496      -16.3777182404      -0.0000000064     0.999999    0.00002213
  497      -16.3777182468      -0.0000000063     0.999999    0.00002206
  498      -16.3777182531      -0.0000000063     0.999999    0.00002200
  499      -16.3777182593      -0.0000000063     0.999999    0.00002193
  500      -16.3777182655      -0.0000000062     0.999999    0.00002186
  501      -16.3777182717      -0.0000000062     0.999999    0.00002179
  502      -16.3777182778      -0.0000000061     0.999999    0.00002173
  503      -16.3777182839      -0.0000000061     0.999999    0.00002166
  504      -16.3777182900      -0.0000000061     0.999999    0.00002160
  505      -16.3777182960      -0.0000000060     0.999999    0.00002153
  506      -16.3777183020      -0.0000000060     0.999999    0.00002146
  507      -16.3777183079      -0.0000000059     0.999999    0.00002140
  508      -16.3777183139      -0.0000000059     0.999999    0.00002134
  509      -16.3777183197      -0.0000000059     0.999999    0.00002127
  510      -16.3777183256      -0.0000000058     0.999999    0.00002121
  511      -16.3777183314      -0.0000000058     0.999999    0.00002114
  512      -16.3777183371      -0.0000000058     0.999999    0.00002108
  513      -16.3777183429      -0.0000000057     0.999999    0.00002102
  514      -16.3777183486      -0.0000000057     0.999999    0.00002096
  515      -16.3777183542      -0.0000000057     0.999999    0.00002089
  516      -16.3777183598      -0.0000000056     0.999999    0.00002083
  517      -16.3777183654      -0.0000000056     0.999999    0.00002077
  518      -16.3777183710      -0.0000000056     0.999999    0.00002071
  519      -16.3777183765      -0.0000000055     0.999999    0.00002065
  520      -16.3777183820      -0.0000000055     0.999999    0.00002059
  521      -16.3777183875      -0.0000000055     0.999999    0.00002053
  522      -16.3777183929      -0.0000000054     0.999999    0.00002047
  523      -16.3777183983      -0.0000000054     0.999999    0.00002041
  524      -16.3777184036      -0.0000000054     0.999999    0.00002035
  525      -16.3777184090      -0.0000000053     0.999999    0.00002029
  526      -16.3777184143      -0.0000000053     0.999999    0.00002023
  527      -16.3777184195      -0.0000000053     0.999999    0.00002017
  528      -16.3777184248      -0.0000000052     0.999999    0.00002011
  529      -16.3777184300      -0.0000000052     0.999999    0.00002006
  530      -16.3777184352      -0.0000000052     0.999999    0.00002000
  531      -16.3777184403      -0.0000000051     0.999999    0.00001994
  532      -16.3777184454      -0.0000000051     0.999999    0.00001988
  533      -16.3777184505      -0.0000000051     0.999999    0.00001983
  534      -16.3777184555      -0.0000000051     0.999999    0.00001977
  535      -16.3777184606      -0.0000000050     0.999999    0.00001972
  536      -16.3777184656      -0.0000000050     0.999999    0.00001966
  537      -16.3777184705      -0.0000000050     0.999999    0.00001960
  538      -16.3777184755      -0.0000000049     0.999999    0.00001955
  539      -16.3777184804      -0.0000000049     0.999999    0.00001949
  540      -16.3777184852      -0.0000000049     0.999999    0.00001944
  541      -16.3777184901      -0.0000000049     0.999999    0.00001938
  542      -16.3777184949      -0.0000000048     0.999999    0.00001933
  543      -16.3777184997      -0.0000000048     0.999999    0.00001928
  544      -16.3777185045      -0.0000000048     0.999999    0.00001922
  545      -16.3777185092      -0.0000000047     0.999999    0.00001917
  546      -16.3777185139      -0.0000000047     0.999999    0.00001912
  547      -16.3777185186      -0.0000000047     0.999999    0.00001906
  548      -16.3777185233      -0.0000000047     0.999999    0.00001901
  549      -16.3777185279      -0.0000000046     0.999999    0.00001896
  550      -16.3777185325      -0.0000000046     0.999999    0.00001891
  551      -16.3777185371      -0.0000000046     0.999999    0.00001885
  552      -16.3777185417      -0.0000000046     0.999999    0.00001880
  553      -16.3777185462      -0.0000000045     0.999999    0.00001875
  554      -16.3777185507      -0.0000000045     0.999999    0.00001870
  555      -16.3777185552      -0.0000000045     0.999999    0.00001865
  556      -16.3777185596      -0.0000000045     0.999999    0.00001860
  557      -16.3777185641      -0.0000000044     0.999999    0.00001855
  558      -16.3777185685      -0.0000000044     0.999999    0.00001850
  559      -16.3777185729      -0.0000000044     0.999999    0.00001845
  560      -16.3777185772      -0.0000000044     0.999999    0.00001840
  561      -16.3777185816      -0.0000000043     0.999999    0.00001835
  562      -16.3777185859      -0.0000000043     0.999999    0.00001830
  563      -16.3777185901      -0.0000000043     0.999999    0.00001825
  564      -16.3777185944      -0.0000000043     0.999999    0.00001820
  565      -16.3777185986      -0.0000000042     0.999999    0.00001815
  566      -16.3777186029      -0.0000000042     0.999999    0.00001811
  567      -16.3777186071      -0.0000000042     0.999999    0.00001806
  568      -16.3777186112      -0.0000000042     0.999999    0.00001801
  569      -16.3777186154      -0.0000000041     0.999999    0.00001796
  570      -16.3777186195      -0.0000000041     0.999999    0.00001792
  571      -16.3777186236      -0.0000000041     0.999999    0.00001787
  572      -16.3777186277      -0.0000000041     0.999999    0.00001782
  573      -16.3777186317      -0.0000000041     0.999999    0.00001778
  574      -16.3777186358      -0.0000000040     0.999999    0.00001773
  575      -16.3777186398      -0.0000000040     0.999999    0.00001768
  576      -16.3777186438      -0.0000000040     0.999999    0.00001764
  577      -16.3777186478      -0.0000000040     0.999999    0.00001759
  578      -16.3777186517      -0.0000000040     0.999999    0.00001755
  579      -16.3777186556      -0.0000000039     0.999999    0.00001750
  580      -16.3777186596      -0.0000000039     0.999999    0.00001746
  581      -16.3777186634      -0.0000000039     0.999999    0.00001741
  582      -16.3777186673      -0.0000000039     0.999999    0.00001737
  583      -16.3777186712      -0.0000000038     0.999999    0.00001732
  584      -16.3777186750      -0.0000000038     0.999999    0.00001728
  585      -16.3777186788      -0.0000000038     0.999999    0.00001723
  586      -16.3777186826      -0.0000000038     0.999999    0.00001719
  587      -16.3777186864      -0.0000000038     0.999999    0.00001715
  588      -16.3777186901      -0.0000000037     0.999999    0.00001710
  589      -16.3777186938      -0.0000000037     0.999999    0.00001706
  590      -16.3777186976      -0.0000000037     0.999999    0.00001702
  591      -16.3777187012      -0.0000000037     0.999999    0.00001697
  592      -16.3777187049      -0.0000000037     0.999999    0.00001693
  593      -16.3777187086      -0.0000000037     0.999999    0.00001689
  594      -16.3777187122      -0.0000000036     0.999999    0.00001685
  595      -16.3777187158      -0.0000000036     0.999999    0.00001680
  596      -16.3777187194      -0.0000000036     0.999999    0.00001676
  597      -16.3777187230      -0.0000000036     0.999999    0.00001672
  598      -16.3777187266      -0.0000000036     0.999999    0.00001668
  599      -16.3777187301      -0.0000000035     0.999999    0.00001664
  600      -16.3777187336      -0.0000000035     0.999999    0.00001660
  601      -16.3777187371      -0.0000000035     0.999999    0.00001656
  602      -16.3777187406      -0.0000000035     0.999999    0.00001652
  603      -16.3777187441      -0.0000000035     0.999999    0.00001647
  604      -16.3777187476      -0.0000000035     0.999999    0.00001643
  605      -16.3777187510      -0.0000000034     0.999999    0.00001639
  606      -16.3777187544      -0.0000000034     0.999999    0.00001635
  607      -16.3777187578      -0.0000000034     0.999999    0.00001631
  608      -16.3777187612      -0.0000000034     0.999999    0.00001627
  609      -16.3777187646      -0.0000000034     0.999999    0.00001624
  610      -16.3777187679      -0.0000000034     0.999999    0.00001620
  611      -16.3777187713      -0.0000000033     0.999999    0.00001616
  612      -16.3777187746      -0.0000000033     0.999999    0.00001612
  613      -16.3777187779      -0.0000000033     0.999999    0.00001608
  614      -16.3777187812      -0.0000000033     0.999999    0.00001604
  615      -16.3777187844      -0.0000000033     0.999999    0.00001600
  616      -16.3777187877      -0.0000000033     0.999999    0.00001596
  617      -16.3777187909      -0.0000000032     0.999999    0.00001593
  618      -16.3777187942      -0.0000000032     0.999999    0.00001589
  619      -16.3777187974      -0.0000000032     0.999999    0.00001585
  620      -16.3777188006      -0.0000000032     0.999999    0.00001581
  621      -16.3777188037      -0.0000000032     0.999999    0.00001578
  622      -16.3777188069      -0.0000000032     0.999999    0.00001574
  623      -16.3777188100      -0.0000000031     0.999999    0.00001570
  624      -16.3777188132      -0.0000000031     0.999999    0.00001567
  625      -16.3777188163      -0.0000000031     0.999999    0.00001563
  626      -16.3777188194      -0.0000000031     0.999999    0.00001559
  627      -16.3777188225      -0.0000000031     0.999999    0.00001556
  628      -16.3777188255      -0.0000000031     0.999999    0.00001552
  629      -16.3777188286      -0.0000000031     0.999999    0.00001548
  630      -16.3777188316      -0.0000000030     0.999999    0.00001545
  631      -16.3777188347      -0.0000000030     0.999999    0.00001541
  632      -16.3777188377      -0.0000000030     0.999999    0.00001538
  633      -16.3777188407      -0.0000000030     0.999999    0.00001534
  634      -16.3777188437      -0.0000000030     0.999999    0.00001531
  635      -16.3777188466      -0.0000000030     0.999999    0.00001527
  636      -16.3777188496      -0.0000000030     0.999999    0.00001524
  637      -16.3777188525      -0.0000000029     0.999999    0.00001520
  638      -16.3777188555      -0.0000000029     0.999999    0.00001517
  639      -16.3777188584      -0.0000000029     0.999999    0.00001513
  640      -16.3777188613      -0.0000000029     0.999999    0.00001510
  641      -16.3777188642      -0.0000000029     0.999999    0.00001506
  642      -16.3777188671      -0.0000000029     0.999999    0.00001503
  643      -16.3777188699      -0.0000000029     0.999999    0.00001500
  644      -16.3777188728      -0.0000000028     0.999999    0.00001496
  645      -16.3777188756      -0.0000000028     0.999999    0.00001493
  646      -16.3777188784      -0.0000000028     0.999999    0.00001490
  647      -16.3777188812      -0.0000000028     0.999999    0.00001486
  648      -16.3777188840      -0.0000000028     0.999999    0.00001483
  649      -16.3777188868      -0.0000000028     0.999999    0.00001480
  650      -16.3777188896      -0.0000000028     0.999999    0.00001476
  651      -16.3777188924      -0.0000000028     0.999999    0.00001473
  652      -16.3777188951      -0.0000000027     0.999999    0.00001470
  653      -16.3777188978      -0.0000000027     0.999999    0.00001467
  654      -16.3777189006      -0.0000000027     0.999999    0.00001463
  655      -16.3777189033      -0.0000000027     0.999999    0.00001460
  656      -16.3777189060      -0.0000000027     0.999999    0.00001457
  657      -16.3777189087      -0.0000000027     0.999999    0.00001454
  658      -16.3777189113      -0.0000000027     0.999999    0.00001451
  659      -16.3777189140      -0.0000000027     0.999999    0.00001448
  660      -16.3777189166      -0.0000000027     0.999999    0.00001444
  661      -16.3777189193      -0.0000000026     0.999999    0.00001441
  662      -16.3777189219      -0.0000000026     0.999999    0.00001438
  663      -16.3777189245      -0.0000000026     0.999999    0.00001435
  664      -16.3777189271      -0.0000000026     0.999999    0.00001432
  665      -16.3777189297      -0.0000000026     0.999999    0.00001429
  666      -16.3777189323      -0.0000000026     0.999999    0.00001426
  667      -16.3777189349      -0.0000000026     0.999999    0.00001423
  668      -16.3777189374      -0.0000000026     0.999999    0.00001420
  669      -16.3777189400      -0.0000000025     0.999999    0.00001417
  670      -16.3777189425      -0.0000000025     0.999999    0.00001414
  671      -16.3777189450      -0.0000000025     0.999999    0.00001411
  672      -16.3777189476      -0.0000000025     0.999999    0.00001408
  673      -16.3777189501      -0.0000000025     0.999999    0.00001405
  674      -16.3777189526      -0.0000000025     0.999999    0.00001402
  675      -16.3777189550      -0.0000000025     0.999999    0.00001399
  676      -16.3777189575      -0.0000000025     0.999999    0.00001396
  677      -16.3777189600      -0.0000000025     0.999999    0.00001393
  678      -16.3777189624      -0.0000000025     0.999999    0.00001390
  679      -16.3777189649      -0.0000000024     0.999999    0.00001387
  680      -16.3777189673      -0.0000000024     0.999999    0.00001384
  681      -16.3777189697      -0.0000000024     0.999999    0.00001381
  682      -16.3777189721      -0.0000000024     0.999999    0.00001379
  683      -16.3777189745      -0.0000000024     0.999999    0.00001376
  684      -16.3777189769      -0.0000000024     0.999999    0.00001373
  685      -16.3777189793      -0.0000000024     0.999999    0.00001370
  686      -16.3777189816      -0.0000000024     0.999999    0.00001367
  687      -16.3777189840      -0.0000000024     0.999999    0.00001365
  688      -16.3777189864      -0.0000000023     0.999999    0.00001362
  689      -16.3777189887      -0.0000000023     0.999999    0.00001359
  690      -16.3777189910      -0.0000000023     0.999999    0.00001356
  691      -16.3777189933      -0.0000000023     0.999999    0.00001353
  692      -16.3777189957      -0.0000000023     0.999999    0.00001351
  693      -16.3777189980      -0.0000000023     0.999999    0.00001348
  694      -16.3777190002      -0.0000000023     0.999999    0.00001345
  695      -16.3777190025      -0.0000000023     0.999999    0.00001343
  696      -16.3777190048      -0.0000000023     0.999999    0.00001340
  697      -16.3777190071      -0.0000000023     0.999999    0.00001337
  698      -16.3777190093      -0.0000000023     0.999999    0.00001335
  699      -16.3777190116      -0.0000000022     0.999999    0.00001332
  700      -16.3777190138      -0.0000000022     0.999999    0.00001329
  701      -16.3777190160      -0.0000000022     0.999999    0.00001327
  702      -16.3777190182      -0.0000000022     0.999999    0.00001324
  703      -16.3777190204      -0.0000000022     0.999999    0.00001321
  704      -16.3777190226      -0.0000000022     0.999999    0.00001319
  705      -16.3777190248      -0.0000000022     0.999999    0.00001316
  706      -16.3777190270      -0.0000000022     0.999999    0.00001314
  707      -16.3777190292      -0.0000000022     0.999999    0.00001311
  708      -16.3777190313      -0.0000000022     0.999999    0.00001308
  709      -16.3777190335      -0.0000000022     0.999999    0.00001306
  710      -16.3777190357      -0.0000000021     0.999999    0.00001303
  711      -16.3777190378      -0.0000000021     0.999999    0.00001301
  712      -16.3777190399      -0.0000000021     0.999999    0.00001298
  713      -16.3777190420      -0.0000000021     0.999999    0.00001296
  714      -16.3777190442      -0.0000000021     0.999999    0.00001293
  715      -16.3777190463      -0.0000000021     0.999999    0.00001291
  716      -16.3777190484      -0.0000000021     0.999999    0.00001288
  717      -16.3777190504      -0.0000000021     0.999999    0.00001286
  718      -16.3777190525      -0.0000000021     0.999999    0.00001283
  719      -16.3777190546      -0.0000000021     0.999999    0.00001281
  720      -16.3777190567      -0.0000000021     0.999999    0.00001279
  721      -16.3777190587      -0.0000000021     0.999999    0.00001276
  722      -16.3777190608      -0.0000000020     0.999999    0.00001274
  723      -16.3777190628      -0.0000000020     0.999999    0.00001271
  724      -16.3777190648      -0.0000000020     0.999999    0.00001269
  725      -16.3777190669      -0.0000000020     0.999999    0.00001267
  726      -16.3777190689      -0.0000000020     0.999999    0.00001264
  727      -16.3777190709      -0.0000000020     0.999999    0.00001262
  728      -16.3777190729      -0.0000000020     0.999999    0.00001259
  729      -16.3777190749      -0.0000000020     0.999999    0.00001257
  730      -16.3777190769      -0.0000000020     0.999999    0.00001255
  731      -16.3777190788      -0.0000000020     0.999999    0.00001252
  732      -16.3777190808      -0.0000000020     0.999999    0.00001250
  733      -16.3777190828      -0.0000000020     0.999999    0.00001248
  734      -16.3777190847      -0.0000000020     0.999999    0.00001245
  735      -16.3777190867      -0.0000000019     0.999999    0.00001243
  736      -16.3777190886      -0.0000000019     0.999999    0.00001241
  737      -16.3777190906      -0.0000000019     0.999999    0.00001239
  738      -16.3777190925      -0.0000000019     0.999999    0.00001236
  739      -16.3777190944      -0.0000000019     0.999999    0.00001234
  740      -16.3777190963      -0.0000000019     0.999999    0.00001232
  741      -16.3777190982      -0.0000000019     0.999999    0.00001230
  742      -16.3777191001      -0.0000000019     0.999999    0.00001227
  743      -16.3777191020      -0.0000000019     0.999999    0.00001225
  744      -16.3777191039      -0.0000000019     0.999999    0.00001223
  745      -16.3777191058      -0.0000000019     0.999999    0.00001221
  746      -16.3777191076      -0.0000000019     0.999999    0.00001219
  747      -16.3777191095      -0.0000000019     0.999999    0.00001216
  748      -16.3777191114      -0.0000000019     0.999999    0.00001214
  749      -16.3777191132      -0.0000000018     0.999999    0.00001212
  750      -16.3777191150      -0.0000000018     0.999999    0.00001210
  751      -16.3777191169      -0.0000000018     0.999999    0.00001208
  752      -16.3777191187      -0.0000000018     0.999999    0.00001206
  753      -16.3777191205      -0.0000000018     0.999999    0.00001204
  754      -16.3777191224      -0.0000000018     0.999999    0.00001201
  755      -16.3777191242      -0.0000000018     0.999999    0.00001199
  756      -16.3777191260      -0.0000000018     0.999999    0.00001197
  757      -16.3777191278      -0.0000000018     0.999999    0.00001195
  758      -16.3777191296      -0.0000000018     0.999999    0.00001193
  759      -16.3777191313      -0.0000000018     0.999999    0.00001191
  760      -16.3777191331      -0.0000000018     0.999999    0.00001189
  761      -16.3777191349      -0.0000000018     0.999999    0.00001187
  762      -16.3777191367      -0.0000000018     0.999999    0.00001185
  763      -16.3777191384      -0.0000000018     0.999999    0.00001183
  764      -16.3777191402      -0.0000000018     0.999999    0.00001181
  765      -16.3777191419      -0.0000000017     0.999999    0.00001179
  766      -16.3777191436      -0.0000000017     0.999999    0.00001177
  767      -16.3777191454      -0.0000000017     0.999999    0.00001175
  768      -16.3777191471      -0.0000000017     0.999999    0.00001173
  769      -16.3777191488      -0.0000000017     0.999999    0.00001171
  770      -16.3777191506      -0.0000000017     0.999999    0.00001169
  771      -16.3777191523      -0.0000000017     0.999999    0.00001167
  772      -16.3777191540      -0.0000000017     0.999999    0.00001165
  773      -16.3777191557      -0.0000000017     0.999999    0.00001163
  774      -16.3777191574      -0.0000000017     0.999999    0.00001161
  775      -16.3777191590      -0.0000000017     0.999999    0.00001159
  776      -16.3777191607      -0.0000000017     0.999999    0.00001157
  777      -16.3777191624      -0.0000000017     0.999999    0.00001155
  778      -16.3777191641      -0.0000000017     0.999999    0.00001153
  779      -16.3777191657      -0.0000000017     0.999999    0.00001151
  780      -16.3777191674      -0.0000000017     0.999999    0.00001149
  781      -16.3777191690      -0.0000000017     0.999999    0.00001147
  782      -16.3777191707      -0.0000000016     0.999999    0.00001145
  783      -16.3777191723      -0.0000000016     0.999999    0.00001143
  784      -16.3777191740      -0.0000000016     0.999999    0.00001142
  785      -16.3777191756      -0.0000000016     0.999999    0.00001140
  786      -16.3777191772      -0.0000000016     0.999999    0.00001138
  787      -16.3777191788      -0.0000000016     0.999999    0.00001136
  788      -16.3777191805      -0.0000000016     0.999999    0.00001134
  789      -16.3777191821      -0.0000000016     0.999999    0.00001132
  790      -16.3777191837      -0.0000000016     0.999999    0.00001130
  791      -16.3777191853      -0.0000000016     0.999999    0.00001129
  792      -16.3777191869      -0.0000000016     0.999999    0.00001127
  793      -16.3777191884      -0.0000000016     0.999999    0.00001125
  794      -16.3777191900      -0.0000000016     0.999999    0.00001123
  795      -16.3777191916      -0.0000000016     0.999999    0.00001121
  796      -16.3777191932      -0.0000000016     0.999999    0.00001120
  797      -16.3777191947      -0.0000000016     0.999999    0.00001118
  798      -16.3777191963      -0.0000000016     0.999999    0.00001116
  799      -16.3777191979      -0.0000000016     0.999999    0.00001114
  800      -16.3777191994      -0.0000000016     0.999999    0.00001113
  801      -16.3777192010      -0.0000000015     0.999999    0.00001111
  802      -16.3777192025      -0.0000000015     0.999999    0.00001109
  803      -16.3777192040      -0.0000000015     0.999999    0.00001107
  804      -16.3777192056      -0.0000000015     0.999999    0.00001106
  805      -16.3777192071      -0.0000000015     0.999999    0.00001104
  806      -16.3777192086      -0.0000000015     0.999999    0.00001102
  807      -16.3777192101      -0.0000000015     0.999999    0.00001100
  808      -16.3777192116      -0.0000000015     0.999999    0.00001099
  809      -16.3777192132      -0.0000000015     0.999999    0.00001097
  810      -16.3777192147      -0.0000000015     0.999999    0.00001095
  811      -16.3777192162      -0.0000000015     0.999999    0.00001094
  812      -16.3777192176      -0.0000000015     0.999999    0.00001092
  813      -16.3777192191      -0.0000000015     0.999999    0.00001090
  814      -16.3777192206      -0.0000000015     0.999999    0.00001089
  815      -16.3777192221      -0.0000000015     0.999999    0.00001087
  816      -16.3777192236      -0.0000000015     0.999999    0.00001085
  817      -16.3777192250      -0.0000000015     0.999999    0.00001084
  818      -16.3777192265      -0.0000000015     0.999999    0.00001082
  819      -16.3777192280      -0.0000000015     0.999999    0.00001080
  820      -16.3777192294      -0.0000000015     0.999999    0.00001079
  821      -16.3777192309      -0.0000000015     0.999999    0.00001077
  822      -16.3777192323      -0.0000000014     0.999999    0.00001075
  823      -16.3777192338      -0.0000000014     0.999999    0.00001074
  824      -16.3777192352      -0.0000000014     0.999999    0.00001072
  825      -16.3777192366      -0.0000000014     0.999999    0.00001071
  826      -16.3777192381      -0.0000000014     0.999999    0.00001069
  827      -16.3777192395      -0.0000000014     0.999999    0.00001067
  828      -16.3777192409      -0.0000000014     0.999999    0.00001066
  829      -16.3777192423      -0.0000000014     0.999999    0.00001064
  830      -16.3777192437      -0.0000000014     0.999999    0.00001063
  831      -16.3777192451      -0.0000000014     0.999999    0.00001061
  832      -16.3777192466      -0.0000000014     0.999999    0.00001060
  833      -16.3777192480      -0.0000000014     0.999999    0.00001058
  834      -16.3777192493      -0.0000000014     0.999999    0.00001056
  835      -16.3777192507      -0.0000000014     0.999999    0.00001055
  836      -16.3777192521      -0.0000000014     0.999999    0.00001053
  837      -16.3777192535      -0.0000000014     0.999999    0.00001052
  838      -16.3777192549      -0.0000000014     0.999999    0.00001050
  839      -16.3777192563      -0.0000000014     0.999999    0.00001049
  840      -16.3777192576      -0.0000000014     0.999999    0.00001047
  841      -16.3777192590      -0.0000000014     0.999999    0.00001046
  842      -16.3777192604      -0.0000000014     0.999999    0.00001044
  843      -16.3777192617      -0.0000000014     0.999999    0.00001043
  844      -16.3777192631      -0.0000000014     0.999999    0.00001041
  845      -16.3777192644      -0.0000000014     0.999999    0.00001040
  846      -16.3777192658      -0.0000000013     0.999999    0.00001038
  847      -16.3777192671      -0.0000000013     0.999999    0.00001037
  848      -16.3777192685      -0.0000000013     0.999999    0.00001036
  849      -16.3777192698      -0.0000000013     0.999999    0.00001034
  850      -16.3777192711      -0.0000000013     0.999999    0.00001033
  851      -16.3777192724      -0.0000000013     0.999999    0.00001031
  852      -16.3777192738      -0.0000000013     0.999999    0.00001030
  853      -16.3777192751      -0.0000000013     0.999999    0.00001028
  854      -16.3777192764      -0.0000000013     0.999999    0.00001027
  855      -16.3777192777      -0.0000000013     0.999999    0.00001025
  856      -16.3777192790      -0.0000000013     0.999999    0.00001024
  857      -16.3777192803      -0.0000000013     0.999999    0.00001023
  858      -16.3777192816      -0.0000000013     0.999999    0.00001021
  859      -16.3777192829      -0.0000000013     0.999999    0.00001020
  860      -16.3777192842      -0.0000000013     0.999999    0.00001018
  861      -16.3777192855      -0.0000000013     0.999999    0.00001017
  862      -16.3777192868      -0.0000000013     0.999999    0.00001016
  863      -16.3777192881      -0.0000000013     0.999999    0.00001014
  864      -16.3777192894      -0.0000000013     0.999999    0.00001013
  865      -16.3777192906      -0.0000000013     0.999999    0.00001012
  866      -16.3777192919      -0.0000000013     0.999999    0.00001010
  867      -16.3777192932      -0.0000000013     0.999999    0.00001009
  868      -16.3777192945      -0.0000000013     0.999999    0.00001007
  869      -16.3777192957      -0.0000000013     0.999999    0.00001006
  870      -16.3777192970      -0.0000000013     0.999999    0.00001005
  871      -16.3777192982      -0.0000000013     0.999999    0.00001003
  872      -16.3777192995      -0.0000000013     0.999999    0.00001002
  873      -16.3777193007      -0.0000000012     0.999999    0.00001001
  874      -16.3777193020      -0.0000000012     0.999999    0.00000999
  875      -16.3777193032      -0.0000000012     0.999999    0.00000998
  876      -16.3777193045      -0.0000000012     0.999999    0.00000997
  877      -16.3777193057      -0.0000000012     0.999999    0.00000996
  878      -16.3777193069      -0.0000000012     0.999999    0.00000994
  879      -16.3777193081      -0.0000000012     0.999999    0.00000993
  880      -16.3777193094      -0.0000000012     0.999999    0.00000992
  881      -16.3777193106      -0.0000000012     0.999999    0.00000990
  882      -16.3777193118      -0.0000000012     0.999999    0.00000989
  883      -16.3777193130      -0.0000000012     0.999999    0.00000988
  884      -16.3777193142      -0.0000000012     0.999999    0.00000987
  885      -16.3777193154      -0.0000000012     0.999999    0.00000985
  886      -16.3777193167      -0.0000000012     0.999999    0.00000984
  887      -16.3777193179      -0.0000000012     0.999999    0.00000983
  888      -16.3777193191      -0.0000000012     0.999999    0.00000982
  889      -16.3777193203      -0.0000000012     0.999999    0.00000980
  890      -16.3777193214      -0.0000000012     0.999999    0.00000979
  891      -16.3777193226      -0.0000000012     0.999999    0.00000978
  892      -16.3777193238      -0.0000000012     0.999999    0.00000977
  893      -16.3777193250      -0.0000000012     0.999999    0.00000975
  894      -16.3777193262      -0.0000000012     0.999999    0.00000974
  895      -16.3777193274      -0.0000000012     0.999999    0.00000973
  896      -16.3777193285      -0.0000000012     0.999999    0.00000972
  897      -16.3777193297      -0.0000000012     0.999999    0.00000970
  898      -16.3777193309      -0.0000000012     0.999999    0.00000969
  899      -16.3777193320      -0.0000000012     0.999999    0.00000968
  900      -16.3777193332      -0.0000000012     0.999999    0.00000967
  901      -16.3777193344      -0.0000000012     0.999999    0.00000966
  902      -16.3777193355      -0.0000000012     0.999999    0.00000965
  903      -16.3777193367      -0.0000000012     0.999999    0.00000963
  904      -16.3777193378      -0.0000000012     0.999999    0.00000962
  905      -16.3777193390      -0.0000000011     0.999999    0.00000961
  906      -16.3777193401      -0.0000000011     0.999999    0.00000960
  907      -16.3777193413      -0.0000000011     0.999999    0.00000959
  908      -16.3777193424      -0.0000000011     0.999999    0.00000958
  909      -16.3777193435      -0.0000000011     0.999999    0.00000956
  910      -16.3777193447      -0.0000000011     0.999999    0.00000955
  911      -16.3777193458      -0.0000000011     0.999999    0.00000954
  912      -16.3777193469      -0.0000000011     0.999999    0.00000953
  913      -16.3777193481      -0.0000000011     0.999999    0.00000952
  914      -16.3777193492      -0.0000000011     0.999999    0.00000951
  915      -16.3777193503      -0.0000000011     0.999999    0.00000950
  916      -16.3777193514      -0.0000000011     0.999999    0.00000948
  917      -16.3777193525      -0.0000000011     0.999999    0.00000947
  918      -16.3777193537      -0.0000000011     0.999999    0.00000946
  919      -16.3777193548      -0.0000000011     0.999999    0.00000945
  920      -16.3777193559      -0.0000000011     0.999999    0.00000944
  921      -16.3777193570      -0.0000000011     0.999999    0.00000943
  922      -16.3777193581      -0.0000000011     0.999999    0.00000942
  923      -16.3777193592      -0.0000000011     0.999999    0.00000941
  924      -16.3777193603      -0.0000000011     0.999999    0.00000940
  925      -16.3777193614      -0.0000000011     0.999999    0.00000939
  926      -16.3777193625      -0.0000000011     0.999999    0.00000937
  927      -16.3777193636      -0.0000000011     0.999999    0.00000936
  928      -16.3777193646      -0.0000000011     0.999999    0.00000935
  929      -16.3777193657      -0.0000000011     0.999999    0.00000934
  930      -16.3777193668      -0.0000000011     0.999999    0.00000933
  931      -16.3777193679      -0.0000000011     0.999999    0.00000932
  932      -16.3777193690      -0.0000000011     0.999999    0.00000931
  933      -16.3777193700      -0.0000000011     0.999999    0.00000930
  934      -16.3777193711      -0.0000000011     0.999999    0.00000929
  935      -16.3777193722      -0.0000000011     0.999999    0.00000928
  936      -16.3777193732      -0.0000000011     0.999999    0.00000927
  937      -16.3777193743      -0.0000000011     0.999999    0.00000926
  938      -16.3777193754      -0.0000000011     0.999999    0.00000925
  939      -16.3777193764      -0.0000000011     0.999999    0.00000924
  940      -16.3777193775      -0.0000000011     0.999999    0.00000923
  941      -16.3777193785      -0.0000000011     0.999999    0.00000922
  942      -16.3777193796      -0.0000000011     0.999999    0.00000921
  943      -16.3777193806      -0.0000000010     0.999999    0.00000920
  944      -16.3777193817      -0.0000000010     0.999999    0.00000919
  945      -16.3777193827      -0.0000000010     0.999999    0.00000918
  946      -16.3777193838      -0.0000000010     0.999999    0.00000917
  947      -16.3777193848      -0.0000000010     0.999999    0.00000916
  948      -16.3777193859      -0.0000000010     0.999999    0.00000915
  949      -16.3777193869      -0.0000000010     0.999999    0.00000914
  950      -16.3777193879      -0.0000000010     0.999999    0.00000913
  951      -16.3777193890      -0.0000000010     0.999999    0.00000912
  952      -16.3777193900      -0.0000000010     0.999999    0.00000911
  953      -16.3777193910      -0.0000000010     0.999999    0.00000910
  954      -16.3777193920      -0.0000000010     0.999999    0.00000909
  955      -16.3777193931      -0.0000000010     0.999999    0.00000908
  956      -16.3777193941      -0.0000000010     0.999999    0.00000907
  957      -16.3777193951      -0.0000000010     0.999999    0.00000906
  958      -16.3777193961      -0.0000000010     0.999999    0.00000905
  959      -16.3777193971      -0.0000000010     0.999999    0.00000904
  960      -16.3777193981      -0.0000000010     0.999999    0.00000903
  961      -16.3777193991      -0.0000000010     0.999999    0.00000902
  962      -16.3777194001      -0.0000000010     0.999999    0.00000901
  963      -16.3777194012      -0.0000000010     0.999999    0.00000901
  964      -16.3777194022      -0.0000000010     0.999999    0.00000900
  965      -16.3777194032      -0.0000000010     0.999999    0.00000899
  966      -16.3777194042      -0.0000000010     0.999999    0.00000898
  967      -16.3777194051      -0.0000000010     0.999999    0.00000897
  968      -16.3777194061      -0.0000000010     0.999999    0.00000896
  969      -16.3777194071      -0.0000000010     0.999999    0.00000895
  970      -16.3777194081      -0.0000000010     0.999999    0.00000894
  971      -16.3777194091      -0.0000000010     0.999999    0.00000893
  972      -16.3777194101      -0.0000000010     0.999999    0.00000892
  973      -16.3777194111      -0.0000000010     0.999999    0.00000891
  974      -16.3777194121      -0.0000000010     0.999999    0.00000891
  975      -16.3777194130      -0.0000000010     0.999999    0.00000890
  976      -16.3777194140      -0.0000000010     0.999999    0.00000889
  977      -16.3777194150      -0.0000000010     0.999999    0.00000888
  978      -16.3777194160      -0.0000000010     0.999999    0.00000887
  979      -16.3777194169      -0.0000000010     0.999999    0.00000886
  980      -16.3777194179      -0.0000000010     0.999999    0.00000885
  981      -16.3777194189      -0.0000000010     0.999999    0.00000884
  982      -16.3777194199      -0.0000000010     0.999999    0.00000884
  983      -16.3777194208      -0.0000000010     0.999999    0.00000883
  984      -16.3777194218      -0.0000000010     0.999999    0.00000882
  985      -16.3777194227      -0.0000000010     0.999999    0.00000881
  986      -16.3777194237      -0.0000000010     0.999999    0.00000880
  987      -16.3777194247      -0.0000000010     0.999999    0.00000879
  988      -16.3777194256      -0.0000000010     0.999999    0.00000879
  989      -16.3777194266      -0.0000000010     0.999999    0.00000878
  990      -16.3777194275      -0.0000000010     0.999999    0.00000877
  991      -16.3777194285      -0.0000000009     0.999999    0.00000876
  992      -16.3777194294      -0.0000000009     0.999999    0.00000875
  993      -16.3777194304      -0.0000000009     0.999999    0.00000874
  994      -16.3777194313      -0.0000000009     0.999999    0.00000874
  995      -16.3777194322      -0.0000000009     0.999999    0.00000873
  996      -16.3777194332      -0.0000000009     0.999999    0.00000872
  997      -16.3777194341      -0.0000000009     0.999999    0.00000871
  998      -16.3777194351      -0.0000000009     0.999999    0.00000870
  999      -16.3777194360      -0.0000000009     0.999999    0.00000870
 1000      -16.3777194369      -0.0000000009     0.999999    0.00000869

Total Energy:                      -16.3777194369 H         -445.6604 eV
Extrapolated to 0:                 -16.3365516537 H         -444.5402 eV

----------------------------------------------------------------------------------
 Solving CP-REKS equation for  1 state vector...
----------------------------------------------------------------------------------
  CG solver: Constructing Y initial guess
  CG solver: Iteration    1    eps =    0.049824424198
  CG solver: Iteration    2    eps =    0.120479090094
  CG solver: Iteration    3    eps =    0.402360022154
  CG solver: Iteration    4    eps =    0.903398979082
  CG solver: Iteration    5    eps =    1.754948928947
  CG solver: Iteration    6    eps =    0.982790091637
  CG solver: Iteration    7    eps =    0.850559348597
  CG solver: Iteration    8    eps =    0.689067744760
  CG solver: Iteration    9    eps =    0.158156477531
  CG solver: Iteration   10    eps =    0.048563365921
  CG solver: Iteration   11    eps =    0.026149054013
  CG solver: Iteration   12    eps =    0.003110184564
  CG solver: Iteration   13    eps =    0.000377129217
  CG solver: Iteration   14    eps =    0.000105343357
  CG solver: Iteration   15    eps =    0.000014309449
  CG solver: Iteration   16    eps =    0.000002058789
  CG solver: Iteration   17    eps =    0.000000289884
  CG solver: Iteration   18    eps =    0.000000015716
  CG solver: Iteration   19    eps =    0.000000000921
  Convergence reached in CG solver after   19 iterations
  CG solver: Calculating converged R, Z, Q2 matrix
----------------------------------------------------------------------------------

----------------------------------------------------------------------------------
 Solving CP-REKS equation for SI between  1 and  2 state vectors...
----------------------------------------------------------------------------------
  CG solver: Constructing Y initial guess
  CG solver: Iteration    1    eps =    0.051295437248
  CG solver: Iteration    2    eps =    0.001405354665
  CG solver: Iteration    3    eps =    0.000183400979
  CG solver: Iteration    4    eps =    0.000421469868
  CG solver: Iteration    5    eps =    0.000503188966
  CG solver: Iteration    6    eps =    0.000637057565
  CG solver: Iteration    7    eps =    0.001964645341
  CG solver: Iteration    8    eps =    0.001564154108
  CG solver: Iteration    9    eps =    0.003434269795
  CG solver: Iteration   10    eps =    0.003670922122
  CG solver: Iteration   11    eps =    0.001735783980
  CG solver: Iteration   12    eps =    0.000451555714
  CG solver: Iteration   13    eps =    0.000055154167
  CG solver: Iteration   14    eps =    0.000007662558
  CG solver: Iteration   15    eps =    0.000000733581
  CG solver: Iteration   16    eps =    0.000000081993
  CG solver: Iteration   17    eps =    0.000000003622
  Convergence reached in CG solver after   17 iterations
  CG solver: Calculating converged R, Z, Q2 matrix
----------------------------------------------------------------------------------

--------------------------------------------------
 Gradient Information
--------------------------------------------------
           1 st state (SSR)
     0.00000000     0.00000000     0.00000000
     0.00000000     0.00000000     0.00000000
     0.00000000     0.00000000     0.00000000
     0.00000000     0.00000000     0.00000000
     0.00000000     0.00000000     0.00000000
     0.00000000     0.00000000     0.00000000
     0.00000000     0.00000000     0.00000000
     0.00000000     0.00000000     0.00000000
     0.00000000     0.00000000     0.00000000
     0.00000000     0.00000000     0.00000000
     0.00000000     0.00000000     0.00000000
     0.00000000     0.00000000     0.00000000
     0.00000000     0.00000000     0.00000000
     0.00000000     0.00000000     0.00000000

           2 st state (SSR)
     0.00000000     0.00000000     0.00000000
     0.00000000     0.00000000     0.00000000
     0.00000000     0.00000000     0.00000000
     0.00000000     0.00000000     0.00000000
     0.00000000     0.00000000     0.00000000
     0.00000000     0.00000000     0.00000000
     0.00000000     0.00000000     0.00000000
     0.00000000     0.00000000     0.00000000
     0.00000000     0.00000000     0.00000000
     0.00000000     0.00000000     0.00000000
     0.00000000     0.00000000     0.00000000
     0.00000000     0.00000000     0.00000000
     0.00000000     0.00000000     0.00000000
     0.00000000     0.00000000     0.00000000
--------------------------------------------------
 Coupling Information
--------------------------------------------------
 between  1 and  2 states
--------------------------------------------------
 g vector - difference gradient
    -7.54952114    -2.60876076    -5.57912469
    12.43780139     7.27652579     6.89502147
     0.43165988    -1.08975719    -0.22036291
    -0.84740770     0.84186773     0.12114329
    -0.91544460    -1.76723721     0.45174804
    -3.24554428     0.97121986    -0.39233575
     3.02640047    -1.10855916     3.75932846
    -1.48390480    -0.45554934    -1.47816967
     2.62267825    -0.15524753    -4.27509327
    -1.27824689    -2.44726604     2.55609750
     0.59267533     1.36905993    -1.22983078
    -3.63909619    -0.40701373    -0.78447575
    -0.02629423    -0.05844366    -0.05634041
    -0.12575550    -0.36083870     0.23239447

 h vector - derivative coupling
    -0.44026188    -0.14517017    -0.32070866
     0.71993915     0.39812932     0.40390703
     0.01981614    -0.05414342    -0.01469643
    -0.05186431     0.05269562     0.00695385
    -0.04685973    -0.11586103     0.02154267
    -0.12571543     0.08728330    -0.01519124
     0.11526105    -0.08747405     0.22040944
    -0.08999911    -0.03071387    -0.08299959
     0.15083886    -0.01599454    -0.26074158
    -0.09011485    -0.10392872     0.14731057
     0.03679001     0.06799838    -0.07646668
    -0.18760917    -0.02920292    -0.03831305
    -0.00266194     0.00404190    -0.00949654
    -0.00755879    -0.02765981     0.01849021

 G vector - GDV
     0.00000000     0.00000000     0.00000000
     0.00000000     0.00000000     0.00000000
     0.00000000     0.00000000     0.00000000
     0.00000000     0.00000000     0.00000000
     0.00000000     0.00000000     0.00000000
     0.00000000     0.00000000     0.00000000
     0.00000000     0.00000000     0.00000000
     0.00000000     0.00000000     0.00000000
     0.00000000     0.00000000     0.00000000
     0.00000000     0.00000000     0.00000000
     0.00000000     0.00000000     0.00000000
     0.00000000     0.00000000     0.00000000
     0.00000000     0.00000000     0.00000000
     0.00000000     0.00000000     0.00000000

 H vector - DCV - non-adiabatic coupling
     0.00000000     0.00000000     0.00000000
     0.00000000     0.00000000     0.00000000
     0.00000000     0.00000000     0.00000000
     0.00000000     0.00000000     0.00000000
     0.00000000     0.00000000     0.00000000
     0.00000000     0.00000000     0.00000000
     0.00000000     0.00000000     0.00000000
     0.00000000     0.00000000     0.00000000
     0.00000000     0.00000000     0.00000000
     0.00000000     0.00000000     0.00000000
     0.00000000     0.00000000     0.00000000
     0.00000000     0.00000000     0.00000000
     0.00000000     0.00000000     0.00000000
     0.00000000     0.00000000     0.00000000
--------------------------------------------------

WARNING!
-> SCC is NOT converged, maximal SCC iterations exceeded

--------------------------------------------------------------------------------
DFTB+ running times                          cpu [s]             wall clock [s]
--------------------------------------------------------------------------------
SCC                                    +     1.52  ( 77.2%)      1.52  ( 77.0%)
      Sparse to dense                        0.07  (  3.6%)      0.07  (  3.5%)
      Dense to sparse                        0.24  ( 12.4%)      0.25  ( 12.8%)
      Range separated Hamiltonian            0.12  (  6.3%)      0.12  (  6.3%)
  Density matrix creation                    0.15  (  7.7%)      0.15  (  7.8%)
  Force calculation                          0.45  ( 22.6%)      0.45  ( 22.6%)
--------------------------------------------------------------------------------
Missing                                +     0.45  ( 22.8%)      0.45  ( 23.0%)
Total                                  =     1.97  (100.0%)      1.98  (100.0%)
--------------------------------------------------------------------------------
