     6
  Step:     0            Position(A)                                  Velocity(au)
C        -0.03649035     0.02840519     0.04103326    -0.00009548     0.00004648     0.00006052
N        -0.04763446    -0.06024429     1.27011649     0.00016755    -0.00007677    -0.00008580
H         0.91732354    -0.09303849    -0.54902896     0.00093841    -0.00011601    -0.00036803
H         0.82389253    -0.08790363     1.94579224    -0.00086324     0.00027423    -0.00011793
H        -0.87172633    -0.03758205     1.83241121    -0.00110802     0.00043539     0.00095023
H        -0.98566093     0.04744394    -0.47607286    -0.00015783    -0.00008064     0.00000695
     6
  Step:     1            Position(A)                                  Velocity(au)
C        -0.03697587     0.02868858     0.04107637    -0.00008194     0.00005718    -0.00004524
N        -0.04665457    -0.06069223     1.26993808     0.00018905    -0.00008708     0.00002141
H         0.92234660    -0.09370650    -0.55112256     0.00089200    -0.00012748    -0.00039340
H         0.81869430    -0.08634134     1.94468577    -0.00103163     0.00029686    -0.00028255
H        -0.87823695    -0.03518944     1.83790521    -0.00125246     0.00043951     0.00104370
H        -0.98680709     0.04700489    -0.47640088    -0.00025861    -0.00008017    -0.00012615
     6
  Step:     2            Position(A)                                  Velocity(au)
C        -0.03738668     0.02903064     0.04053838    -0.00006831     0.00006787    -0.00015118
N        -0.04556662    -0.06119678     1.27035073     0.00020689    -0.00009739     0.00012951
H         0.92708037    -0.09443294    -0.55333202     0.00083333    -0.00013743    -0.00041087
H         0.81260834    -0.08465646     1.94270169    -0.00118561     0.00031896    -0.00043686
H        -0.88542600    -0.03277461     1.84382744    -0.00135590     0.00044333     0.00110661
H        -0.98848972     0.04656704    -0.47745266    -0.00035297    -0.00008020    -0.00025698
     6
  Step:     3            Position(A)                                  Velocity(au)
C        -0.03772313     0.02943101     0.03942259    -0.00005487     0.00007840    -0.00025560
N        -0.04439138    -0.06175759     1.27135476     0.00022072    -0.00010753     0.00023666
H         0.93146232    -0.09520978    -0.55561707     0.00076367    -0.00014589    -0.00042130
H         0.80572502    -0.08285233     1.93990698    -0.00132010     0.00034022    -0.00057653
H        -0.89306895    -0.03033994     1.85001026    -0.00141823     0.00044638     0.00113878
H        -0.99066822     0.04612762    -0.47921190    -0.00043881    -0.00008069    -0.00038395
     6
  Step:     4            Position(A)                                  Velocity(au)
C        -0.03798704     0.02988849     0.03774158    -0.00004186     0.00008859    -0.00035664
N        -0.04315149    -0.06237334     1.27294035     0.00023015    -0.00011727     0.00034083
H         0.93543658    -0.09602927    -0.55794196     0.00068425    -0.00015289    -0.00042544
H         0.79816360    -0.08093374     1.93639319    -0.00142927     0.00036033    -0.00069665
H        -0.90094449    -0.02789026     1.85628823    -0.00144040     0.00044818     0.00114096
H        -0.99329122     0.04568410    -0.48165388    -0.00051411    -0.00008159    -0.00050537
     6
  Step:     5            Position(A)                                  Velocity(au)
C        -0.03818146     0.03040092     0.03551782    -0.00002952     0.00009823    -0.00045237
N        -0.04187152    -0.06304155     1.27508643     0.00023484    -0.00012640     0.00043978
H         0.93895401    -0.09688378    -0.56027507     0.00059641    -0.00015845    -0.00042400
H         0.79007627    -0.07890716     1.93227947    -0.00150679     0.00037897    -0.00079193
H        -0.90883953    -0.02543290     1.86250233    -0.00142425     0.00044827     0.00111461
H        -0.99629710     0.04523434    -0.48474505    -0.00057703    -0.00008280    -0.00061946
     6
  Step:     6            Position(A)                                  Velocity(au)
C        -0.03831060     0.03096503     0.03278405    -0.00001806     0.00010713    -0.00054082
N        -0.04057790    -0.06375859     1.27775989     0.00023445    -0.00013470     0.00053119
H         0.94197271    -0.09776575    -0.56258863     0.00050166    -0.00016257    -0.00041771
H         0.78165052    -0.07678063     1.92771431    -0.00154620     0.00039583    -0.00085699
H        -0.91655292    -0.02297766     1.86850337    -0.00137240     0.00044620     0.00106194
H        -0.99961494     0.04477672    -0.48844257    -0.00062596    -0.00008421    -0.00072442
     6
  Step:     7            Position(A)                                  Velocity(au)
C        -0.03837965     0.03157646     0.02958328    -0.00000765     0.00011506    -0.00062010
N        -0.03929880    -0.06451962     1.28091537     0.00022874    -0.00014194     0.00061283
H         0.94445892    -0.09866766    -0.56485869     0.00040171    -0.00016526    -0.00040728
H         0.77310930    -0.07456363     1.92287548    -0.00154145     0.00041069    -0.00088678
H        -0.92389933    -0.02053656     1.87415530    -0.00128825     0.00044164     0.00098575
H        -1.00316596     0.04431027    -0.49269432    -0.00065966    -0.00008570    -0.00081853
     6
  Step:     8            Position(A)                                  Velocity(au)
C        -0.03839468     0.03222974     0.02596828     0.00000157     0.00012185    -0.00068855
N        -0.03806368    -0.06531872     1.28449570     0.00021758    -0.00014796     0.00068266
H         0.94638807    -0.09958216    -0.56706517     0.00029848    -0.00016658    -0.00039348
H         0.76470782    -0.07226659     1.91796734    -0.00148769     0.00042345    -0.00087728
H        -0.93071256    -0.01812347     1.87933818    -0.00117583     0.00043431     0.00088945
H        -1.00686549     0.04383476    -0.49743931    -0.00067736    -0.00008713    -0.00090026
     6
  Step:     9            Position(A)                                  Velocity(au)
C        -0.03836240     0.03291841     0.02200028     0.00000948     0.00012735    -0.00074488
N        -0.03690255    -0.06614904     1.28843344     0.00020103    -0.00015261     0.00073910
H         0.94774601    -0.10050222    -0.56919207     0.00019405    -0.00016664    -0.00037714
H         0.75672554    -0.06990021     1.91321411    -0.00138205     0.00043417    -0.00082607
H        -0.93684870    -0.01575353     1.88395070    -0.00103983     0.00042412     0.00077687
H        -1.01062564     0.04335074    -0.50260883    -0.00067888    -0.00008836    -0.00096845
     6
  Step:    10            Position(A)                                  Velocity(au)
C        -0.03829000     0.03363529     0.01774696     0.00001604     0.00013146    -0.00078825
N        -0.03584487    -0.06700313     1.29265329     0.00017938    -0.00015585     0.00078116
H         0.94852989    -0.10142141    -0.57122778     0.00009063    -0.00016559    -0.00035915
H         0.74945390    -0.06747460     1.90884988    -0.00122446     0.00044308    -0.00073301
H        -0.94218934    -0.01344237     1.88791263    -0.00088541     0.00041113     0.00065224
H        -1.01435838     0.04285951    -0.50812826    -0.00066467    -0.00008928    -0.00102240
     6
  Step:    11            Position(A)                                  Velocity(au)
C        -0.03818494     0.03437273     0.01327979     0.00002122     0.00013416    -0.00081844
N        -0.03491808    -0.06787324     1.29707545     0.00015319    -0.00015769     0.00080854
H         0.94874862    -0.10233417    -0.57316541    -0.00000967    -0.00016365    -0.00034043
H         0.74317926    -0.06499837     1.90510470    -0.00101810     0.00045059    -0.00060064
H        -0.94664410    -0.01120518     1.89116652    -0.00071806     0.00039556     0.00051994
H        -1.01797899     0.04236300    -0.51391975    -0.00063584    -0.00008980    -0.00106201
     6
  Step:    12            Position(A)                                  Velocity(au)
C        -0.03805469     0.03512302     0.00867094     0.00002506     0.00013551    -0.00083583
N        -0.03414614    -0.06875183     1.30161954     0.00012328    -0.00015823     0.00082176
H         0.94842267    -0.10323616    -0.57500300    -0.00010487    -0.00016108    -0.00032194
H         0.73816383    -0.06247783     1.90218914    -0.00076956     0.00045724    -0.00043422
H        -0.95015214    -0.00905581     1.89367845    -0.00054328     0.00037783     0.00038429
H        -1.02140943     0.04186363    -0.51990532    -0.00059401    -0.00008987    -0.00108781
     6
  Step:    13            Position(A)                                  Velocity(au)
C        -0.03790646     0.03587881     0.00398996     0.00002762     0.00013563    -0.00084138
N        -0.03354793    -0.06963188     1.30620894     0.00009069    -0.00015764     0.00082206
H         0.94758300    -0.10412453    -0.57674361    -0.00019337    -0.00015821    -0.00030459
H         0.73462593    -0.05991636     1.90027859    -0.00048850     0.00046366    -0.00024143
H        -0.95268243    -0.00700580     1.89543769    -0.00036640     0.00035847     0.00024934
H        -1.02458116     0.04136410    -0.52601024    -0.00054126    -0.00008948    -0.00110094
     6
  Step:    14            Position(A)                                  Velocity(au)
C        -0.03774705     0.03663347    -0.00069927     0.00002903     0.00013471    -0.00083651
N        -0.03313613    -0.07050739     1.31077457     0.00005661    -0.00015614     0.00081124
H         0.94626921    -0.10499813    -0.57839519    -0.00027395    -0.00015537    -0.00028926
H         0.73272354    -0.05731417     1.89950034    -0.00018670     0.00047047    -0.00003167
H        -0.95423261    -0.00506364     1.89645525    -0.00019220     0.00033811     0.00011866
H        -1.02743729     0.04086715    -0.53216624    -0.00047985    -0.00008864    -0.00110304
     6
  Step:    15            Position(A)                                  Velocity(au)
C        -0.03758261     0.03738140    -0.00534097     0.00002942     0.00013296    -0.00082294
N        -0.03291646    -0.07137353     1.31525798     0.00002225    -0.00015398     0.00079149
H         0.94452715    -0.10585766    -0.57997016    -0.00034592    -0.00015291    -0.00027669
H         0.73254332    -0.05466844     1.89992527     0.00012297     0.00047823     0.00018492
H        -0.95482635    -0.00323425     1.89676126    -0.00002481     0.00031744    -0.00000480
H        -1.02993372     0.04037539    -0.53831430    -0.00041210    -0.00008741    -0.00109610
     6
  Step:    16            Position(A)                                  Velocity(au)
C        -0.03741852     0.03811826    -0.00988896     0.00002893     0.00013063    -0.00080247
N        -0.03288765    -0.07222686     1.31961314    -0.00001122    -0.00015142     0.00076512
H         0.94240631    -0.10670562    -0.58148493    -0.00040899    -0.00015112    -0.00026752
H         0.73409673    -0.05197384     1.90156527     0.00042774     0.00048736     0.00039836
H        -0.95450960    -0.00151879     1.89640162     0.00013248     0.00029708    -0.00011877
H        -1.03203914     0.03989109    -0.54440633    -0.00034012    -0.00008585    -0.00108220
     6
  Step:    17            Position(A)                                  Velocity(au)
C        -0.03725939     0.03884099    -0.01430698     0.00002770     0.00012794    -0.00077680
N        -0.03304180    -0.07306529     1.32380673    -0.00004277    -0.00014867     0.00073428
H         0.93995752    -0.10754612    -0.58295913    -0.00046323    -0.00015030    -0.00026223
H         0.73732249    -0.04922317     1.90437620     0.00071608     0.00049810     0.00059975
H        -0.95334620     0.00008505     1.89543421     0.00027705     0.00027761    -0.00022158
H        -1.03373385     0.03941618    -0.55040573    -0.00026573    -0.00008403    -0.00106332
     6
  Step:    18            Position(A)                                  Velocity(au)
C        -0.03710901     0.03954771    -0.01856809     0.00002587     0.00012506    -0.00074737
N        -0.03336550    -0.07388789     1.32781719    -0.00007155    -0.00014590     0.00070078
H         0.93723068    -0.10838487    -0.58441475    -0.00050895    -0.00015068    -0.00026113
H         0.74209746    -0.04640857     1.90826620     0.00097835     0.00051048     0.00078168
H        -0.95141411     0.00158298     1.89392596     0.00040690     0.00025954    -0.00031198
H        -1.03500811     0.03895219    -0.55628667    -0.00019039    -0.00008202    -0.00104112
     6
  Step:    19            Position(A)                                  Velocity(au)
C        -0.03697046     0.04023758    -0.02265321     0.00002355     0.00012213    -0.00071528
N        -0.03384082    -0.07469467     1.33163268    -0.00009688    -0.00014325     0.00066602
H         0.93427382    -0.10922880    -0.58587532    -0.00054650    -0.00015243    -0.00026443
H         0.74824821    -0.04352237     1.91310560     0.00120693     0.00052433     0.00093848
H        -0.94880221     0.00298341     1.89195018     0.00052031     0.00024323    -0.00038903
H        -1.03586001     0.03850028    -0.56203246    -0.00011520    -0.00007983    -0.00101691
     6
  Step:    20            Position(A)                                  Velocity(au)
C        -0.03684621     0.04091047    -0.02654916     0.00002083     0.00011925    -0.00068128
N        -0.03444647    -0.07548626     1.33524860    -0.00011824    -0.00014077     0.00063093
H         0.93113283    -0.11008574    -0.58736524    -0.00057619    -0.00015568    -0.00027217
H         0.75556441    -0.04055805     1.91873776     0.00139634     0.00053935     0.00106617
H        -0.94560846     0.00429690     1.88958514     0.00061573     0.00022898    -0.00045188
H        -1.03629347     0.03806149    -0.56763334    -0.00004097    -0.00007748    -0.00099153
     6
  Step:    21            Position(A)                                  Velocity(au)
C        -0.03673827     0.04156676    -0.03024684     0.00001863     0.00011815    -0.00069500
N        -0.03515879    -0.07626367     1.33866509    -0.00013640    -0.00014108     0.00063581
H         0.92785153    -0.11096408    -0.58890896    -0.00063066    -0.00018584    -0.00024604
H         0.76381196    -0.03751075     1.92498926     0.00153153     0.00059796     0.00113708
H        -0.94193924     0.00553560     1.88691344     0.00071107     0.00016912    -0.00051622
H        -1.03631670     0.03763671    -0.57308422     0.00006152    -0.00002862    -0.00092848
     6
  Step:    22            Position(A)                                  Velocity(au)
C        -0.03663882     0.04222603    -0.03428763     0.00001676     0.00011862    -0.00075646
N        -0.03596519    -0.07705713     1.34232795    -0.00015106    -0.00014391     0.00068092
H         0.92411078    -0.11215497    -0.59010476    -0.00070712    -0.00023233    -0.00018639
H         0.77261706    -0.03390013     1.93139845     0.00160992     0.00068655     0.00114881
H        -0.93769116     0.00617997     1.88383730     0.00080546     0.00007457    -0.00058257
H        -1.03560852     0.03774283    -0.57797143     0.00019122     0.00005748    -0.00082808
     6
  Step:    23            Position(A)                                  Velocity(au)
C        -0.03655181     0.04288659    -0.03866335     0.00001418     0.00011868    -0.00081424
N        -0.03683954    -0.07786482     1.34624111    -0.00016076    -0.00014630     0.00072462
H         0.91998406    -0.11354898    -0.59098278    -0.00076914    -0.00026393    -0.00013313
H         0.78172413    -0.02987214     1.93777107     0.00164265     0.00075395     0.00112759
H        -0.93297759     0.00636526     1.88043167     0.00087568    -0.00000029    -0.00063276
H        -1.03418914     0.03827624    -0.58229752     0.00031581     0.00012919    -0.00072876
     6
  Step:    24            Position(A)                                  Velocity(au)
C        -0.03648111     0.04354606    -0.04334412     0.00001092     0.00011822    -0.00086549
N        -0.03775328    -0.07868442     1.35038767    -0.00016518    -0.00014818     0.00076415
H         0.91555594    -0.11509057    -0.59158549    -0.00081481    -0.00028745    -0.00008806
H         0.79088764    -0.02551428     1.94394015     0.00163190     0.00080721     0.00107765
H        -0.92795129     0.00617675     1.87679940     0.00091586    -0.00006162    -0.00066279
H        -1.03209594     0.03917975    -0.58607717     0.00043231     0.00019225    -0.00063244
     6
  Step:    25            Position(A)                                  Velocity(au)
C        -0.03643032     0.04420164    -0.04829060     0.00000705     0.00011721    -0.00090887
N        -0.03867695    -0.07951308     1.35474110    -0.00016427    -0.00014946     0.00079810
H         0.91092057    -0.11674637    -0.59196228    -0.00084252    -0.00030597    -0.00005233
H         0.79987645    -0.02089316     1.94975823     0.00158091     0.00084919     0.00100274
H        -0.92279010     0.00567986     1.87305920     0.00092217    -0.00011203    -0.00067034
H        -1.02938033     0.04041476    -0.58933242     0.00053816     0.00024918    -0.00054056
     6
  Step:    26            Position(A)                                  Velocity(au)
C        -0.03640271     0.04485031    -0.05345790     0.00000263     0.00011561    -0.00094362
N        -0.03958123    -0.08034762     1.35926881    -0.00015814    -0.00015012     0.00082560
H         0.90618050    -0.11849543    -0.59216786    -0.00085103    -0.00032137    -0.00002681
H         0.80847981    -0.01606459     1.95509848     0.00149402     0.00088151     0.00090690
H        -0.91768945     0.00493005     1.86933994     0.00089226    -0.00015299    -0.00065414
H        -1.02610730     0.04195255    -0.59209245     0.00063095     0.00030133    -0.00045454
     6
  Step:    27            Position(A)                                  Velocity(au)
C        -0.03640107     0.04548895    -0.05879788    -0.00000223     0.00011346    -0.00096944
N        -0.04043783    -0.08118464     1.36393423    -0.00014710    -0.00015014     0.00084621
H         0.90144435    -0.12032488    -0.59226084    -0.00083967    -0.00033495    -0.00001205
H         0.81651248    -0.01107748     1.95985665     0.00137639     0.00090529     0.00079449
H        -0.91285472     0.00397634     1.86577532     0.00082539    -0.00018548    -0.00061402
H        -1.02235464     0.04377009    -0.59439373     0.00070854     0.00034957    -0.00037575
     6
  Step:    28            Position(A)                                  Velocity(au)
C        -0.03642758     0.04611464    -0.06426128    -0.00000740     0.00011080    -0.00098639
N        -0.04122044    -0.08202073     1.36869893    -0.00013160    -0.00014955     0.00085984
H         0.89682332    -0.12222811    -0.59230210    -0.00080843    -0.00034770    -0.00000825
H         0.82381810    -0.00597611     1.96395224     0.00123365     0.00092147     0.00066996
H        -0.90849144     0.00286310     1.86249741     0.00072263    -0.00021034    -0.00055096
H        -1.01821140     0.04584808    -0.59627982     0.00076915     0.00039447    -0.00030549
     6
  Step:    29            Position(A)                                  Velocity(au)
C        -0.03648363     0.04672474    -0.06979954    -0.00001273     0.00010771    -0.00099483
N        -0.04190568    -0.08285263     1.37352442    -0.00011229    -0.00014840     0.00086670
H         0.89242751    -0.12420291    -0.59235283    -0.00075797    -0.00036033    -0.00001526
H         0.83027195    -0.00079989     1.96732899     0.00107175     0.00093103     0.00053768
H        -0.90479494     0.00163029     1.85963016     0.00058690    -0.00022843    -0.00046710
H        -1.01377599     0.04816982    -0.59780095     0.00081141     0.00043651    -0.00024485
     6
  Step:    30            Position(A)                                  Velocity(au)
C        -0.03656971     0.04731697    -0.07536643    -0.00001805     0.00010426    -0.00099538
N        -0.04247390    -0.08367731     1.37837382    -0.00008990    -0.00014676     0.00086729
H         0.88836216    -0.12625042    -0.59247250    -0.00068957    -0.00037338    -0.00003259
H         0.83578193     0.00441689     1.96995427     0.00089657     0.00093500     0.00040178
H        -0.90193994     0.00031319     1.85728324     0.00042290    -0.00024066    -0.00036555
H        -1.00915376     0.05072074    -0.59901305     0.00083440     0.00047608    -0.00019475
     6
  Step:    31            Position(A)                                  Velocity(au)
C        -0.03668530     0.04788946    -0.08091939    -0.00002317     0.00010053    -0.00098884
N        -0.04290994    -0.08449211     1.38321330    -0.00006527    -0.00014469     0.00086229
H         0.88472399    -0.12837415    -0.59271695    -0.00060511    -0.00038723    -0.00005939
H         0.84028796     0.00964538     1.97181745     0.00071371     0.00093443     0.00026598
H        -0.90007056    -0.00105819     1.85554639     0.00023687    -0.00024805    -0.00025032
H        -1.00445451     0.05348827    -0.59997656     0.00083766     0.00051358    -0.00015582
     6
  Step:    32            Position(A)                                  Velocity(au)
C        -0.03682875     0.04844076    -0.08642035    -0.00002789     0.00009659    -0.00097609
N        -0.04320356    -0.08529472     1.38801302    -0.00003932    -0.00014226     0.00085249
H         0.88159781    -0.13057916    -0.59313638    -0.00050699    -0.00040207    -0.00009449
H         0.84376028     0.01486249     1.97292762     0.00052835     0.00093038     0.00013355
H        -0.89929202    -0.00245972     1.85448505     0.00003626    -0.00025172    -0.00012594
H        -0.99978987     0.05646185    -0.60075487     0.00082115     0.00054940    -0.00012840
     6
  Step:    33            Position(A)                                  Velocity(au)
C        -0.03699728     0.04896973    -0.09183625    -0.00003202     0.00009249    -0.00095805
N        -0.04334971    -0.08608321     1.39274773    -0.00001296    -0.00013955     0.00083872
H         0.87905370    -0.13287096    -0.59377377    -0.00039800    -0.00041793    -0.00013649
H         0.84619717     0.02005097     1.97331115     0.00034516     0.00092391     0.00000728
H        -0.89966500    -0.00387352     1.85413782    -0.00017076    -0.00025280     0.00000272
H        -0.99527059     0.05963295    -0.60141266     0.00078531     0.00058393    -0.00011253
     6
  Step:    34            Position(A)                                  Velocity(au)
C        -0.03718701     0.04947553    -0.09713918    -0.00003536     0.00008827    -0.00093558
N        -0.04334861    -0.08685601     1.39739682     0.00001289    -0.00013660     0.00082178
H         0.87714486    -0.13525500    -0.59466350    -0.00028125    -0.00043471    -0.00018379
H         0.84762196     0.02519940     1.97300910     0.00016828     0.00091602    -0.00011047
H        -0.90120252    -0.00528805     1.85451551    -0.00037578    -0.00025238     0.00013086
H        -0.99100364     0.06299496    -0.60201388     0.00073102     0.00061749    -0.00010790
     6
  Step:    35            Position(A)                                  Velocity(au)
C        -0.03739301     0.04995750    -0.10230609    -0.00003775     0.00008395    -0.00090951
N        -0.04320550    -0.08761184     1.40194406     0.00003738    -0.00013346     0.00080238
H         0.87590629    -0.13773568    -0.59583054    -0.00016000    -0.00045218    -0.00023467
H         0.84808040     0.03030189     1.97207494     0.00000143     0.00090763    -0.00021771
H        -0.90387024    -0.00669783     1.85560221    -0.00057064    -0.00025148     0.00025394
H        -0.98708998     0.06654309    -0.60262012     0.00065954     0.00065036    -0.00011392
     6
  Step:    36            Position(A)                                  Velocity(au)
C        -0.03760947     0.05041505    -0.10731852    -0.00003903     0.00007953    -0.00088058
N        -0.04293027    -0.08834971     1.40637713     0.00005974    -0.00013018     0.00078114
H         0.87535416    -0.14031581    -0.59728992    -0.00003756    -0.00046997    -0.00028736
H         0.84763794     0.03535767     1.97057248    -0.00015213     0.00089962    -0.00031277
H        -0.90758914    -0.00810261     1.85735765    -0.00074794    -0.00025099     0.00036799
H        -0.98362209     0.07027379    -0.60328888     0.00057256     0.00068280    -0.00012974
     6
  Step:    37            Position(A)                                  Velocity(au)
C        -0.03782985     0.05084758    -0.11216201    -0.00003911     0.00007499    -0.00084945
N        -0.04253690    -0.08906891     1.41068694     0.00007929    -0.00012681     0.00075854
H         0.87548591    -0.14299585    -0.59904684     0.00008279    -0.00048764    -0.00034014
H         0.84637769     0.04037088     1.96857424    -0.00028947     0.00089280    -0.00039426
H        -0.91224153    -0.00950701     1.85972089    -0.00090141    -0.00025166     0.00046971
H        -0.98068163     0.07418529    -0.60407219     0.00047222     0.00071504    -0.00015422
     6
  Step:    38            Position(A)                                  Velocity(au)
C        -0.03804722     0.05125439    -0.11682576    -0.00003794     0.00007033    -0.00081670
N        -0.04204278    -0.08976898     1.41486695     0.00009551    -0.00012338     0.00073499
H         0.87628081    -0.14577366    -0.60109690     0.00019794    -0.00050471    -0.00039136
H         0.84439808     0.04535018     1.96615985    -0.00040807     0.00088795    -0.00046102
H        -0.91767803    -0.01091923     1.86261473    -0.00102617    -0.00025402     0.00055664
H        -0.97833689     0.07827678    -0.60501496     0.00036108     0.00074723    -0.00018599
     6
  Step:    39            Position(A)                                  Velocity(au)
C        -0.03825446     0.05163470    -0.12130227    -0.00003552     0.00006552    -0.00078290
N        -0.04146795    -0.09044973     1.41891265     0.00010800    -0.00011995     0.00071076
H         0.87770122    -0.14864434    -0.60342678     0.00030505    -0.00052067    -0.00043950
H         0.84181070     0.05030848     1.96341464    -0.00050578     0.00088578    -0.00051218
H        -0.92372611    -0.01234997     1.86595058    -0.00111888    -0.00025844     0.00062718
H        -0.97664056     0.08254808    -0.60615372     0.00024207     0.00077945    -0.00022346
     6
  Step:    40            Position(A)                                  Velocity(au)
C        -0.03844469     0.05198764    -0.12558693    -0.00003190     0.00006055    -0.00074852
N        -0.04083423    -0.09111132     1.42282090     0.00011649    -0.00011658     0.00068609
H         0.87969450    -0.15160029    -0.60601527     0.00040164    -0.00053507    -0.00048329
H         0.83873805     0.05526269     1.96042820    -0.00058089     0.00088699    -0.00054712
H        -0.93019916    -0.01381139     1.86963332    -0.00117783    -0.00026508     0.00068058
H        -0.97562792     0.08699934    -0.60751568     0.00011840     0.00081171    -0.00026493
     6
  Step:    41            Position(A)                                  Velocity(au)
C        -0.03861145     0.05231223    -0.12967779    -0.00002721     0.00005540    -0.00071401
N        -0.04016446    -0.09175423     1.42658964     0.00012090    -0.00011334     0.00066112
H         0.88219536    -0.15463148    -0.60883458     0.00048572    -0.00054751    -0.00052168
H         0.83531079     0.06023344     1.95729265    -0.00063225     0.00089221    -0.00056556
H        -0.93690544    -0.01531613     1.87356598    -0.00120282    -0.00027397     0.00071688
H        -0.97531567     0.09163078    -0.60911820    -0.00000656     0.00084404    -0.00030862
     6
  Step:    42            Position(A)                                  Velocity(au)
C        -0.03874910     0.05260750    -0.13357532    -0.00002159     0.00005008    -0.00067980
N        -0.03948157    -0.09237933     1.43021756     0.00012127    -0.00011028     0.00063600
H         0.88512870    -0.15772585    -0.61185183     0.00055579    -0.00055769    -0.00055390
H         0.83166444     0.06524472     1.95410071    -0.00065930     0.00090202    -0.00056759
H        -0.94365633    -0.01687651     1.87765380    -0.00119503    -0.00028498     0.00073677
H        -0.97570129     0.09644241    -0.61096850    -0.00012942     0.00087637    -0.00035274
     6
  Step:    43            Position(A)                                  Velocity(au)
C        -0.03885297     0.05287246    -0.13728208    -0.00001524     0.00004459    -0.00064623
N        -0.03880793    -0.09298783     1.43370391     0.00011776    -0.00010748     0.00061079
H         0.88841248    -0.16086985    -0.61503057     0.00061089    -0.00056539    -0.00057946
H         0.82793582     0.07032344     1.95094355    -0.00066215     0.00091688    -0.00055367
H        -0.95027314    -0.01850397     1.88180756    -0.00115670    -0.00029794     0.00074146
H        -0.97676334     0.10143392    -0.61306395    -0.00024690     0.00090866    -0.00039560
     6
  Step:    44            Position(A)                                  Velocity(au)
C        -0.03891955     0.05310618    -0.14080251    -0.00000837     0.00003894    -0.00061361
N        -0.03816458    -0.09358131     1.43704843     0.00011066    -0.00010498     0.00058560
H         0.89196064    -0.16404901    -0.61833230     0.00065054    -0.00057051    -0.00059812
H         0.82425920     0.07549881     1.94790869    -0.00064163     0.00093717    -0.00052466
H        -0.95659243    -0.02020861     1.88594600    -0.00109089    -0.00031259     0.00073252
H        -0.97846249     0.10660451    -0.61539269    -0.00035597     0.00094081    -0.00043564
     6