     6
  Step:   120            Position(A)                                  Velocity(au)
C        -0.03620688     0.04428482    -0.15818255     0.00004737     0.00003127     0.00043841
N        -0.05287399    -0.00985394     1.46221288    -0.00005979     0.00007857    -0.00032196
H         0.80901908    -0.53787297    -0.60519525    -0.00088496    -0.00184596     0.00044040
H         0.86130628    -0.05449708     2.00323694    -0.00045899     0.00103926    -0.00039726
H        -0.75352241    -0.71941378     1.79177337     0.00137856    -0.00173154    -0.00101683
H        -0.96352154     0.25123524    -0.73227808     0.00023176     0.00107374     0.00022369
