    14
  Step:     0            Position(A)                                  Velocity(au)
C        -6.00893793    -0.67795513    -0.12480770     0.00020811    -0.00000684     0.00004750
C        -4.70504253    -0.79066814     0.09415127    -0.00027868    -0.00013962    -0.00003460
H        -6.30528360     0.40658509    -0.32721433    -0.00033824     0.00013087    -0.00054893
H        -6.79165951    -1.40774930     0.10798686    -0.00028380    -0.00047689     0.00016980
H        -4.24620738    -1.76117176     0.39453116     0.00030836     0.00090811     0.00027555
C        -3.84550729     0.36173826    -0.00682256     0.00021826     0.00024637    -0.00009533
C        -2.49679228     0.46737472     0.19186539     0.00016650     0.00008955     0.00013259
H        -4.31034645     1.32212913    -0.38334513    -0.00014761    -0.00030012     0.00015863
H        -1.83477544    -0.28112823     0.59746899    -0.00112423     0.00101273    -0.00121256
C        -1.90117905     1.69406848    -0.02292255    -0.00032811    -0.00033441     0.00013862
H        -2.50451155     2.63784520    -0.27241860     0.00090086     0.00002564    -0.00040876
N        -0.57282962     1.83641637     0.22290928     0.00000763     0.00003093     0.00003087
H        -0.05187187     2.65648943    -0.06765284     0.00017923     0.00047346    -0.00015615
H        -0.07030460     0.98221915     0.30026154     0.00056527    -0.00047648    -0.00095619
    14
  Step:     1            Position(A)                                  Velocity(au)
C        -6.00710538    -0.67776388    -0.12430770     0.00012249     0.00004062     0.00004360
C        -4.70758288    -0.79231702     0.09386567    -0.00018201    -0.00015829    -0.00001761
H        -6.30943270     0.40615864    -0.33337486    -0.00041462    -0.00021380    -0.00057451
H        -6.79437145    -1.41301568     0.10945531    -0.00019489    -0.00046904     0.00009428
H        -4.24312327    -1.75056842     0.39728405     0.00025912     0.00100625     0.00023284
C        -3.84367612     0.36441680    -0.00800174     0.00011459     0.00024059    -0.00011980
C        -2.49461575     0.46835638     0.19341195     0.00022588     0.00009286     0.00014765
H        -4.31190562     1.31762394    -0.38100298    -0.00013953    -0.00050870     0.00026377
H        -1.84724221    -0.27095850     0.58427256    -0.00110107     0.00078570    -0.00116695
C        -1.90479645     1.69068681    -0.02145551    -0.00032942    -0.00028141     0.00012948
H        -2.49354676     2.63638636    -0.27664076     0.00108864    -0.00028734    -0.00036337
N        -0.57271911     1.83683158     0.22323696     0.00001457     0.00004320     0.00002875
H        -0.04997369     2.66175374    -0.06932887     0.00015241     0.00046774    -0.00014380
H        -0.06311706     0.97611798     0.28998455     0.00072499    -0.00059922    -0.00092634
    14
  Step:     2            Position(A)                                  Velocity(au)
C        -6.00625822    -0.67706645    -0.12385390     0.00002999     0.00008498     0.00003929
C        -4.70902436    -0.79413093     0.09376609    -0.00007979    -0.00016925    -0.00000103
H        -6.31435423     0.40190789    -0.33978293    -0.00048152    -0.00055873    -0.00059537
H        -6.79592302    -1.41801054     0.11004941    -0.00007627    -0.00043112     0.00001135
H        -4.24053859    -1.73915816     0.39962498     0.00022040     0.00105065     0.00020248
C        -3.84300048     0.36700163    -0.00944350     0.00000812     0.00022879    -0.00014301
C        -2.49185071     0.46940620     0.19509557     0.00027373     0.00010229     0.00015759
H        -4.31339897     1.31100035    -0.37757460    -0.00013924    -0.00068030     0.00035437
H        -1.85886338    -0.26393956     0.57193971    -0.00097040     0.00043851    -0.00105668
C        -1.90838566     1.68791214    -0.02008993    -0.00032265    -0.00022486     0.00012046
H        -2.48069551     2.63155912    -0.28036806     0.00124004    -0.00058000    -0.00032112
N        -0.57251081     1.83736135     0.22353825     0.00002567     0.00005132     0.00002604
H        -0.04853763     2.66672210    -0.07079884     0.00009731     0.00042287    -0.00011944
H        -0.05444415     0.96911006     0.27999606     0.00083255    -0.00063672    -0.00090273
    14
  Step:     3            Position(A)                                  Velocity(au)
C        -6.00644928    -0.67590483    -0.12344819    -0.00006513     0.00012480     0.00003506
C        -4.70932850    -0.79601962     0.09384308     0.00002383    -0.00017155     0.00001425
H        -6.31996683     0.39393537    -0.34639974    -0.00054325    -0.00088462    -0.00061410
H        -6.79603990    -1.42244728     0.10970367     0.00006218    -0.00037145    -0.00007594
H        -4.23830166    -1.72758336     0.40171374     0.00019841     0.00103284     0.00018856
C        -3.84349840     0.36942208    -0.01113036    -0.00009877     0.00021015    -0.00016429
C        -2.48862742     0.47059426     0.19685964     0.00031001     0.00011751     0.00016276
H        -4.31495170     1.30274099    -0.37325041    -0.00015404    -0.00080112     0.00042491
H        -1.86847152    -0.26136533     0.56115568    -0.00074300    -0.00001466    -0.00089105
C        -1.91185497     1.68576752    -0.01882011    -0.00030720    -0.00016767     0.00011237
H        -2.46641858     2.62369772    -0.28366582     0.00134368    -0.00083122    -0.00028790
N        -0.57215759     1.83795423     0.22380669     0.00004090     0.00005452     0.00002274
H        -0.04784482     2.67100477    -0.07194195     0.00002009     0.00034746    -0.00008552
H        -0.04490344     0.96218862     0.27023567     0.00088314    -0.00058427    -0.00088336
    14
  Step:     4            Position(A)                                  Velocity(au)
C        -6.00768296    -0.67433631    -0.12308683    -0.00015844     0.00015869     0.00003145
C        -4.70850312    -0.79788384     0.09407779     0.00012474    -0.00016456     0.00002744
H        -6.32623879     0.38255513    -0.35321758    -0.00060462    -0.00117193    -0.00063390
H        -6.79456278    -1.42613667     0.10838797     0.00020969    -0.00029921    -0.00016426
H        -4.23619793    -1.71656271     0.40375015     0.00019793     0.00094815     0.00019398
C        -3.84516122     0.37159897    -0.01303775    -0.00020365     0.00018396    -0.00018303
C        -2.48506867     0.47197693     0.19865622     0.00033613     0.00013627     0.00016436
H        -4.31676892     1.29347434    -0.36827885    -0.00019098    -0.00085878     0.00047051
H        -1.87511797    -0.26426029     0.55244637    -0.00044788    -0.00053825    -0.00068943
C        -1.91510632     1.68424394    -0.01763163    -0.00028250    -0.00011273     0.00010598
H        -2.45129999     2.61337470    -0.28666653     0.00138873    -0.00101905    -0.00027002
N        -0.57161597     1.83855416     0.22403571     0.00005966     0.00005270     0.00001883
H        -0.04809818     2.67432347    -0.07266972    -0.00007155     0.00025265    -0.00004527
H        -0.03512387     0.95632802     0.26067090     0.00087889    -0.00044880    -0.00086549
    14
  Step:     5            Position(A)                                  Velocity(au)
C        -6.00991548    -0.67243324    -0.12276020    -0.00024572     0.00018530     0.00002897
C        -4.70659963    -0.79961960     0.09444331     0.00021926    -0.00014812     0.00003791
H        -6.33319398     0.36829706    -0.36026759    -0.00067096    -0.00140095    -0.00065872
H        -6.79145256    -1.42899303     0.10611014     0.00035529    -0.00022398    -0.00025009
H        -4.23397158    -1.70684081     0.40595753     0.00022123     0.00079720     0.00021982
C        -3.84795359     0.37344654    -0.01513449    -0.00030414     0.00014982    -0.00019867
C        -2.48127401     0.47357553     0.20045526     0.00035462     0.00015468     0.00016426
H        -4.31912982     1.28395354    -0.36295713    -0.00025592    -0.00084404     0.00048760
H        -1.87826967    -0.27314056     0.54607316    -0.00012827    -0.00107837    -0.00047840
C        -1.91803529     1.68330140    -0.01650156    -0.00024799    -0.00006270     0.00010205
H        -2.43603752     2.60140402    -0.28957310     0.00136569    -0.00112217    -0.00027384
N        -0.57085232     1.83910720     0.22421872     0.00008085     0.00004626     0.00001434
H        -0.04941002     2.67653199    -0.07293241    -0.00016913     0.00015088    -0.00000237
H        -0.02567599     0.95237025     0.25130138     0.00082735    -0.00024576    -0.00084629
    14
  Step:     6            Position(A)                                  Velocity(au)
C        -6.01305861    -0.67028252    -0.12245303    -0.00032322     0.00020340     0.00002813
C        -4.70370637    -0.80112426     0.09490723     0.00030448    -0.00012272     0.00004534
H        -6.34091735     0.35190671    -0.36762825    -0.00074791    -0.00155268    -0.00069314
H        -6.78679003    -1.43103676     0.10291685     0.00048827    -0.00015546    -0.00032988
H        -4.23135802    -1.69912249     0.40855917     0.00026714     0.00058738     0.00026467
C        -3.85181494     0.37487653    -0.01738407    -0.00039810     0.00010777    -0.00021083
C        -2.47731059     0.47536081     0.20224964     0.00036837     0.00016798     0.00016447
H        -4.32236757     1.27500937    -0.35761174    -0.00035222    -0.00075300     0.00047478
H        -1.87792422    -0.28785176     0.54198047     0.00016840    -0.00157350    -0.00028562
C        -1.92053152     1.68287228    -0.01539912    -0.00020321    -0.00001978     0.00010121
H        -2.42142300     2.58882499    -0.29265739     0.00126798    -0.00112285    -0.00030501
N        -0.56984718     1.83956612     0.22434937     0.00010304     0.00003594     0.00000928
H        -0.05179826     2.67762417    -0.07272150    -0.00026420     0.00005480     0.00003947
H        -0.01702406     0.95095153     0.24215674     0.00073959     0.00000418    -0.00082328
    14
  Step:     7            Position(A)                                  Velocity(au)
C        -6.01698650    -0.66798354    -0.12214490    -0.00038791     0.00021203     0.00002933
C        -4.69993853    -0.80230438     0.09543513     0.00037847    -0.00008958     0.00004970
H        -6.34955589     0.33432914    -0.37543144    -0.00084083    -0.00161080    -0.00074208
H        -6.78077083    -1.43239393     0.09889330     0.00059856    -0.00010311    -0.00040023
H        -4.22812734    -1.69399076     0.41174778     0.00033044     0.00033351     0.00032431
C        -3.85666272     0.37580432    -0.01974688    -0.00048373     0.00005855    -0.00021937
C        -2.47321519     0.47725043     0.20405333     0.00037960     0.00017186     0.00016658
H        -4.32683522     1.26748026    -0.35257039    -0.00047940    -0.00058935     0.00043364
H        -1.87458566    -0.30756389     0.53982460     0.00040269    -0.00196904    -0.00013301
C        -1.92248085     1.68286875    -0.01428745    -0.00014805     0.00001473     0.00010386
H        -2.40829805     2.57683945    -0.29624571     0.00109430    -0.00101167    -0.00036699
N        -0.56859813     1.83989348     0.22442182     0.00012462     0.00002275     0.00000373
H        -0.05518987     2.67773076    -0.07206889    -0.00034891    -0.00002370     0.00007672
H        -0.00949594     0.95246163     0.23329061     0.00062889     0.00027765    -0.00079463
    14
  Step:     8            Position(A)                                  Velocity(au)
C        -6.02154498    -0.66564399    -0.12181144    -0.00043774     0.00021079     0.00003284
C        -4.69542654    -0.80308391     0.09599452     0.00044035    -0.00005059     0.00005135
H        -6.35931220     0.31666747    -0.38386271    -0.00095383    -0.00156480    -0.00080984
H        -6.77369547    -1.43329244     0.09416102     0.00067735    -0.00007580    -0.00045805
H        -4.22412890    -1.69182625     0.41565399     0.00040231     0.00005689     0.00039188
C        -3.86239753     0.37615743    -0.02218321    -0.00055979     0.00000369    -0.00022443
C        -2.46900604     0.47912050     0.20589395     0.00038932     0.00016342     0.00017140
H        -4.33285538     1.26211612    -0.34812495    -0.00063200    -0.00036607     0.00036924
H        -1.86911453    -0.33092832     0.53907062     0.00055132    -0.00222891    -0.00003251
C        -1.92377045     1.68319456    -0.01312694    -0.00008302     0.00004077     0.00011004
H        -2.39748315     2.56669286    -0.30068605     0.00085096    -0.00079268    -0.00045930
N        -0.56712085     1.84006383     0.22443099     0.00014396     0.00000787    -0.00000224
H        -0.05943128     2.67710567    -0.07104305    -0.00041666    -0.00007447     0.00010637
H        -0.00326590     0.95702575     0.22477277     0.00050968     0.00055032    -0.00075925
    14
  Step:     9            Position(A)                                  Velocity(au)
C        -6.02656293    -0.66337218    -0.12142644    -0.00047174     0.00020011     0.00003870
C        -4.69030509    -0.80341118     0.09655851     0.00049010    -0.00000820     0.00005091
H        -6.37042277     0.30009625    -0.39314827    -0.00108818    -0.00141414    -0.00089883
H        -6.76595257    -1.43405230     0.08887261     0.00071776    -0.00008109    -0.00050084
H        -4.21932596    -1.69274628     0.42032083     0.00047166    -0.00021729     0.00045876
C        -3.86890924     0.37588506    -0.02465676    -0.00062558    -0.00005443    -0.00022647
C        -2.46469817     0.48082551     0.20780301     0.00039723     0.00014163     0.00017890
H        -4.34066151     1.25947175    -0.34449252    -0.00079953    -0.00010512     0.00028982
H        -1.86252443    -0.35632553     0.53911329     0.00060853    -0.00233955     0.00001413
C        -1.92429711     1.68376067    -0.01188015    -0.00000945     0.00005976     0.00011925
H        -2.38968160     2.55949807    -0.30629367     0.00055344    -0.00048721    -0.00057578
N        -0.56544874     1.84006575     0.22437277     0.00015953    -0.00000730    -0.00000855
H        -0.06430514     2.67610150    -0.06974189    -0.00046270    -0.00009012     0.00012621
H         0.00165430     0.96450100     0.21668065     0.00039695     0.00079796    -0.00071683
    14
  Step:    10            Position(A)                                  Velocity(au)
C        -6.03186510    -0.66126631    -0.12096479    -0.00049015     0.00018147     0.00004662
C        -4.68470465    -0.80326329     0.09710826     0.00052835     0.00003494     0.00004917
H        -6.38311829     0.28573049    -0.40352644    -0.00124081    -0.00117163    -0.00100803
H        -6.75799314    -1.43506639     0.08320417     0.00071569    -0.00012424    -0.00052703
H        -4.21381042    -1.69657985     0.42569026     0.00052718    -0.00046355     0.00051588
C        -3.87608325     0.37496666    -0.02713763    -0.00068090    -0.00011280    -0.00022615
C        -2.46031587     0.48221887     0.20980773     0.00040222     0.00010712     0.00018846
H        -4.35034672     1.25981646    -0.34178448    -0.00096774     0.00016506     0.00020570
H        -1.85580168    -0.38211040     0.53937973     0.00058210    -0.00230678     0.00001272
C        -1.92397719     1.68450200    -0.01051801     0.00007045     0.00007448     0.00013050
H        -2.38537565     2.55603421    -0.31328242     0.00022562    -0.00013320    -0.00070428
N        -0.56363088     1.83990403     0.22424402     0.00017004    -0.00002122    -0.00001510
H        -0.06955376     2.67513421    -0.06828202    -0.00048461    -0.00006691     0.00013517
H         0.00541819     0.97448268     0.20909084     0.00030558     0.00099751    -0.00066780
    14
  Step:    11            Position(A)                                  Velocity(au)
C        -6.03728593    -0.65940221    -0.12040648    -0.00049447     0.00015739     0.00005595
C        -4.67874633    -0.80264678     0.09763417     0.00055604     0.00007624     0.00004694
H        -6.39756792     0.27446459    -0.41520093    -0.00140334    -0.00086436    -0.00113182
H        -6.75029546    -1.43677030     0.07734288     0.00067057    -0.00020724    -0.00053617
H        -4.20779287    -1.70288722     0.43160679     0.00055944    -0.00065997     0.00055519
C        -3.88380521     0.37341726    -0.02960427    -0.00072588    -0.00016813    -0.00022424
C        -2.45589881     0.48316896     0.21192603     0.00040286     0.00006169     0.00019916
H        -4.36183257     1.26308275    -0.33999254    -0.00112093     0.00041398     0.00012735
H        -1.84978997    -0.40679079     0.53939155     0.00048723    -0.00214890    -0.00002713
C        -1.92275583     1.68538996    -0.00902531     0.00015383     0.00008840     0.00014236
H        -2.38474568     2.55658417    -0.32170109    -0.00010356     0.00022122    -0.00082805
N        -0.56172872     1.83960160     0.22404247     0.00017459    -0.00003216    -0.00002185
H        -0.07490693     2.67463772    -0.06678485    -0.00048266    -0.00000554     0.00013361
H         0.00833952     0.98632341     0.20207135     0.00024939     0.00112853    -0.00061324
    14
  Step:    12            Position(A)                                  Velocity(au)
C        -6.04268248    -0.65782306    -0.11974069    -0.00048722     0.00013106     0.00006572
C        -4.67254031    -0.80159530     0.09813519     0.00057405     0.00011343     0.00004494
H        -6.41381913     0.26682100    -0.42828719    -0.00156250    -0.00053063    -0.00125998
H        -6.74332323    -1.43960023     0.07147433     0.00058598    -0.00032770    -0.00052918
H        -4.20157163    -1.71101802     0.43783616     0.00056244    -0.00079114     0.00057080
C        -3.89196320     0.37128839    -0.03204322    -0.00076069    -0.00021725    -0.00022141
C        -2.45150257     0.48356849     0.21416482     0.00039786     0.00000781     0.00020999
H        -4.37486926     1.26887315    -0.33899839    -0.00124497     0.00061440     0.00006369
H        -1.84514258    -0.42912174     0.53878620     0.00034144    -0.00188985    -0.00009485
C        -1.92061182     1.68643596    -0.00740361     0.00023756     0.00010482     0.00015334
H        -2.38764121     2.56087375    -0.33139762    -0.00040532     0.00052801    -0.00092915
N        -0.55981130     1.83920054     0.22376610     0.00017278    -0.00003843    -0.00002878
H        -0.08011281     2.67501296    -0.06535908    -0.00045977     0.00008863     0.00012339
H         0.01087411     0.99917152     0.19567506     0.00023967     0.00117540    -0.00055475
    14
  Step:    13            Position(A)                                  Velocity(au)
C        -6.04794475    -0.65653513    -0.11896878    -0.00047169     0.00010564     0.00007477
C        -4.66618785    -0.80016527     0.09861734     0.00058307     0.00014466     0.00004371
H        -6.43175062     0.26285599    -0.44276544    -0.00170217    -0.00021306    -0.00137913
H        -6.73747610    -1.44393938     0.06576613     0.00046992    -0.00047815    -0.00050833
H        -4.19548846    -1.72019491     0.44409414     0.00053424    -0.00084947     0.00055963
C        -3.90044674     0.36866455    -0.03444793    -0.00078537    -0.00025744    -0.00021818
C        -2.44719479     0.48333989     0.21652002     0.00038637    -0.00005171     0.00022000
H        -4.38906865     1.27652398    -0.33859927    -0.00132954     0.00074644     0.00002067
H        -1.84232033    -0.44813494     0.53731647     0.00016146    -0.00155465    -0.00018058
C        -1.91755886     1.68768314    -0.00567069     0.00031864     0.00012591     0.00016216
H        -2.39361280     2.56813537    -0.34202810    -0.00065609     0.00074957    -0.00099226
N        -0.55794879     1.83876098     0.22341290     0.00016483    -0.00003858    -0.00003594
H        -0.08496530     2.67657677    -0.06408551    -0.00042113     0.00020600     0.00010766
H         0.01358282     1.01203752     0.18993521     0.00028307     0.00113026    -0.00049408
    14
  Step:    14            Position(A)                                  Velocity(au)
C        -6.05300168    -0.65551202    -0.11810503    -0.00045143     0.00008359     0.00008201
C        -4.65978453    -0.79843069     0.09909140     0.00058341     0.00016851     0.00004358
H        -6.45105730     0.26215984    -0.45845824    -0.00180661     0.00005005    -0.00147533
H        -6.73304273    -1.45006070     0.06035353     0.00033418    -0.00064628    -0.00047709
H        -4.18988410    -1.72960171     0.45007923     0.00047652    -0.00083474     0.00052140
C        -3.90914477     0.36565650    -0.03681642    -0.00079977    -0.00028666    -0.00021489
C        -2.44304992     0.48243716     0.21897774     0.00036800    -0.00011395     0.00022835
H        -4.40395549     1.28520304    -0.33854622    -0.00136934     0.00079973     0.00000076
H        -1.84161037    -0.46313260     0.53483574    -0.00003779    -0.00116733    -0.00027577
C        -1.91364088     1.68919046    -0.00385610     0.00039460     0.00015225     0.00016801
H        -2.40199432     2.57727209    -0.35310531    -0.00084071     0.00086495    -0.00100752
N        -0.55620525     1.83835661     0.22297996     0.00015170    -0.00003174    -0.00004342
H        -0.08932578     2.67951964    -0.06300382    -0.00037337     0.00033386     0.00009049
H         0.01706677     1.02389805     0.18486620     0.00037922     0.00099607    -0.00043272
    14
  Step:    15            Position(A)                                  Velocity(au)
C        -6.05782072    -0.65470648    -0.11717460    -0.00042972     0.00006612     0.00008664
C        -4.65342459    -0.79647870     0.09957081     0.00057502     0.00018398     0.00004472
H        -6.47127370     0.26395094    -0.47504109    -0.00186361     0.00023162    -0.00153695
H        -6.73016527    -1.45807806     0.05532892     0.00019285    -0.00081623    -0.00043953
H        -4.18506356    -1.73845655     0.45550069     0.00039369    -0.00075275     0.00045810
C        -3.91794322     0.36239328    -0.03914896    -0.00080352    -0.00030358    -0.00021164
C        -2.43914398     0.48084707     0.22151557     0.00034280    -0.00017587     0.00023431
H        -4.41902560     1.29401953    -0.33858254    -0.00136395     0.00077312     0.00000334
H        -1.84314710    -0.47367244     0.53128358    -0.00024316    -0.00075057    -0.00037307
C        -1.90892612     1.69101393    -0.00199515     0.00046348     0.00018286     0.00017064
H        -2.41200505     2.58705783    -0.36406953    -0.00095298     0.00087028    -0.00097144
N        -0.55463016     1.83806670     0.22246297     0.00013507    -0.00001786    -0.00005138
H        -0.09313341     2.68388054    -0.06210589    -0.00032350     0.00045820     0.00007621
H         0.02187899     1.03382839     0.18046860     0.00051915     0.00078829    -0.00037153
    14
  Step:    16            Position(A)                                  Velocity(au)
C        -6.06240258    -0.65406546    -0.11620953    -0.00040918     0.00005315     0.00008824
C        -4.64720486    -0.79440576     0.10006979     0.00055753     0.00019036     0.00004713
H        -6.49182730     0.26722700    -0.49208196    -0.00186633     0.00031871    -0.00155658
H        -6.72882381    -1.46791737     0.05073805     0.00006036    -0.00097078    -0.00039974
H        -4.18127140    -1.74606952     0.46010106     0.00029183    -0.00061355     0.00037347
C        -3.92672325     0.35901514    -0.04144648    -0.00079618    -0.00030745    -0.00020846
C        -2.43555044     0.47858971     0.22410370     0.00031113    -0.00023443     0.00023725
H        -4.43379449     1.30211656    -0.33847312    -0.00131680     0.00067290     0.00002552
H        -1.84692996    -0.47955273     0.52667414    -0.00044273    -0.00032615    -0.00046600
C        -1.90350126     1.69319082    -0.00012312     0.00052382     0.00021558     0.00017023
H        -2.42284251     2.59631122    -0.37435732    -0.00099396     0.00077496    -0.00088604
N        -0.55325023     1.83796596     0.22185584     0.00011734     0.00000218    -0.00005999
H        -0.09640298     2.68954359    -0.06133663    -0.00027784     0.00056574     0.00006873
H         0.02842412     1.04114340     0.17673831     0.00068520     0.00053412    -0.00031043
    14
  Step:    17            Position(A)                                  Velocity(au)
C        -6.06677223    -0.65354364    -0.11524412    -0.00039155     0.00004357     0.00008679
C        -4.64122755    -0.79231416     0.10060182     0.00053040     0.00018727     0.00005068
H        -6.51210333     0.27092335    -0.50909431    -0.00181369     0.00031153    -0.00153163
H        -6.72884472    -1.47931571     0.04658374    -0.00005064    -0.00109393    -0.00036124
H        -4.17867916    -1.75187913     0.46367103     0.00017780    -0.00042983     0.00027231
C        -3.93536128     0.35566722    -0.04370947    -0.00077739    -0.00029807    -0.00020529
C        -2.43233745     0.47571855     0.22670589     0.00027350    -0.00028656     0.00023661
H        -4.44783312     1.30874046    -0.33802428    -0.00123389     0.00051041     0.00006307
H        -1.85283266    -0.48080767     0.52108888    -0.00062502     0.00008402    -0.00054850
C        -1.89746665     1.69573024     0.00172889     0.00057448     0.00024768     0.00016728
H        -2.43374976     2.60401161    -0.38345325    -0.00096967     0.00059642    -0.00075716
N        -0.55206314     1.83811444     0.22115064     0.00010127     0.00002672    -0.00006937
H        -0.09921158     2.69625716    -0.06060233    -0.00024105     0.00064574     0.00007096
H         0.03686902     1.04551321     0.17367735     0.00085336     0.00026850    -0.00024849
    14
  Step:    18            Position(A)                                  Velocity(au)
C        -6.07096855    -0.65311221    -0.11431093    -0.00037768     0.00003574     0.00008255
C        -4.63560144    -0.79030876     0.10117861     0.00049304     0.00017469     0.00005518
H        -6.53150521     0.27404242    -0.52558924    -0.00170932     0.00021998    -0.00146370
H        -6.72993154    -1.49184908     0.04283529    -0.00013096    -0.00117323    -0.00032647
H        -4.17738173    -1.75547293     0.46605835     0.00005861    -0.00021580     0.00016009
C        -3.94373020     0.35249433    -0.04593761    -0.00074695    -0.00027570    -0.00020204
C        -2.42956716     0.47232057     0.22928010     0.00023043    -0.00032924     0.00023189
H        -4.46078827     1.31328282    -0.33709341    -0.00112259     0.00029993     0.00011119
H        -1.86060343    -0.47771456     0.51467466    -0.00077823     0.00045688    -0.00061452
C        -1.89093346     1.69860933     0.00353634     0.00061461     0.00027631     0.00016241
H        -2.44405588     2.60935909    -0.39092170    -0.00088882     0.00035549    -0.00059272
N        -0.55103479     1.83855057     0.22033814     0.00008966     0.00005370    -0.00007962
H        -0.10167635     2.70367044    -0.05978423    -0.00021569     0.00069127     0.00008446
H         0.04709291     1.04701730     0.17130206     0.00099761     0.00002768    -0.00018428
    14
  Step:    19            Position(A)                                  Velocity(au)
C        -6.07503463    -0.65276178    -0.11343813    -0.00036756     0.00002794     0.00007600
C        -4.63044144    -0.78849253     0.10180909     0.00044498     0.00015302     0.00006033
H        -6.54949795     0.27573581    -0.54111562    -0.00156004     0.00005945    -0.00135742
H        -6.73170975    -1.50498226     0.03944167    -0.00017576    -0.00120125    -0.00029668
H        -4.17739704    -1.75660020     0.46717332    -0.00005884     0.00001342     0.00004267
C        -3.95170225     0.34963578    -0.04812954    -0.00070494    -0.00024110    -0.00019861
C        -2.42729640     0.46851586     0.23177900     0.00018231    -0.00035947     0.00022262
H        -4.47239203     1.31530207    -0.33559179    -0.00099088     0.00005721     0.00016497
H        -1.86985802    -0.47081255     0.50764509    -0.00088985     0.00076756    -0.00065788
C        -1.88402090     1.70177495     0.00528193     0.00064358     0.00029887     0.00015629
H        -2.45319433     2.61178866    -0.39642013    -0.00076126     0.00007339    -0.00040139
N        -0.55010164     1.83928920     0.21940877     0.00008491     0.00008109    -0.00009070
H        -0.10393029     2.71138002    -0.05875450    -0.00020211     0.00069974     0.00010935
H         0.05869362     1.04611868     0.16964580     0.00109510    -0.00015769    -0.00011643
    14
  Step:    20            Position(A)                                  Velocity(au)
C        -6.07900967    -0.65250090    -0.11264828    -0.00036060     0.00001871     0.00006766
C        -4.62586674    -0.78696124     0.10249845     0.00038598     0.00012322     0.00006574
H        -6.56563399     0.27534309    -0.55528541    -0.00137442    -0.00015231    -0.00121922
H        -6.73377656    -1.51812866     0.03634477    -0.00018438    -0.00117586    -0.00027205
H        -4.17866894    -1.75517929     0.46699185    -0.00016789     0.00024216    -0.00007387
C        -3.95915202     0.34721986    -0.05028251    -0.00065174    -0.00019557    -0.00019483
C        -2.42557882     0.46445644     0.23415044     0.00012932    -0.00037447     0.00020840
H        -4.48246573     1.31453437    -0.33348427    -0.00084694    -0.00020132     0.00021962
H        -1.88007063    -0.46092270     0.50028235    -0.00094667     0.00098969    -0.00067231
C        -1.87685397     1.70514762     0.00695546     0.00066101     0.00031322     0.00014953
H        -2.46070995     2.61096462    -0.39970298    -0.00059727    -0.00022965    -0.00019198
N        -0.54917725     1.84032455     0.21835395     0.00008866     0.00010728    -0.00010245