 Fermi distribution function

Calculation with static geometry


********************************************************************************
 iSCC Total electronic   Diff electronic      SCC error    
   10   -0.53900348E+01   -0.35971226E-12    0.88039229E-06
********************************************************************************

 Total charge:     1.00000000

 Atomic gross charges (e)
 Atom           Charge
    1       0.20781083
    2      -0.10762204
    3       0.14085404
    4       0.29248218
    5       0.27445673
    6       0.19201826

Nr. of electrons (up):     12.00000000
Atom populations (up)
 Atom       Population
    1       3.79218917
    2       5.10762204
    3       0.85914596
    4       0.70751782
    5       0.72554327
    6       0.80798174

l-shell populations (up)
 Atom Sh.   l       Population
    1   1   0       1.30947428
    1   2   1       2.48271489
    2   1   0       1.42039066
    2   2   1       3.68723138
    3   1   0       0.85914596
    4   1   0       0.70751782
    5   1   0       0.72554327
    6   1   0       0.80798174

Orbital populations (up)
 Atom Sh.   l   m       Population  Label
    1   1   0   0       1.30947428  s
    1   2   1  -1       0.57374950  p_y
    1   2   1   0       0.88705546  p_z
    1   2   1   1       1.02190993  p_x
    2   1   0   0       1.42039066  s
    2   2   1  -1       1.30896889  p_y
    2   2   1   0       1.11201483  p_z
    2   2   1   1       1.26624766  p_x
    3   1   0   0       0.85914596  s
    4   1   0   0       0.70751782  s
    5   1   0   0       0.72554327  s
    6   1   0   0       0.80798174  s

Fermi level:                        -0.4914407127 H          -13.3728 eV
Band energy:                        -8.8827328499 H         -241.7115 eV
TS:                                  0.0000000000 H            0.0000 eV
Band free energy (E-TS):            -8.8827328499 H         -241.7115 eV
Extrapolated E(0K):                 -8.8827328499 H         -241.7115 eV
Input / Output electrons (q):     12.0000000000     12.0000000000

Energy H0:                          -5.5229324280 H         -150.2866 eV
Energy SCC:                          0.1328975841 H            3.6163 eV
Total Electronic energy:            -5.3900348440 H         -146.6703 eV
Repulsive energy:                    0.1868397012 H            5.0842 eV
Total energy:                       -5.2031951428 H         -141.5861 eV
Extrapolated to 0:                  -5.2031951428 H         -141.5861 eV
Total Mermin free energy:           -5.2031951428 H         -141.5861 eV
Force related energy:               -5.2031951428 H         -141.5861 eV

SCC converged

Excitation Energy:                   0.1104385700 H            3.0052 eV

Total Forces
    1     -0.002503190769     -0.012621124196      0.033738837071
    2     -0.015991585206      0.009964344555     -0.033995144544
    3     -0.003507398340      0.011428700330      0.002970407623
    4     -0.005421227731     -0.008496562943      0.002643143178
    5      0.021284839595      0.004903182915     -0.004004420863
    6      0.006138562451     -0.005178540661     -0.001352822465

Maximal derivative component:        0.339951E-01 au


