 Fermi distribution function

Calculation with static geometry


********************************************************************************
 iSCC Total electronic   Diff electronic      SCC error    
    9   -0.54023807E+01   -0.84900265E-09    0.72548864E-06
********************************************************************************

 Total charge:     1.00000000

 Atomic gross charges (e)
 Atom           Charge
    1       0.30110910
    2      -0.18720814
    3       0.14842630
    4       0.31276525
    5       0.27408758
    6       0.15081991

Nr. of electrons (up):     12.00000000
Atom populations (up)
 Atom       Population
    1       3.69889090
    2       5.18720814
    3       0.85157370
    4       0.68723475
    5       0.72591242
    6       0.84918009

l-shell populations (up)
 Atom Sh.   l       Population
    1   1   0       1.29058565
    1   2   1       2.40830525
    2   1   0       1.41347556
    2   2   1       3.77373258
    3   1   0       0.85157370
    4   1   0       0.68723475
    5   1   0       0.72591242
    6   1   0       0.84918009

Orbital populations (up)
 Atom Sh.   l   m       Population  Label
    1   1   0   0       1.29058565  s
    1   2   1  -1       0.57132308  p_y
    1   2   1   0       0.90299277  p_z
    1   2   1   1       0.93398940  p_x
    2   1   0   0       1.41347556  s
    2   2   1  -1       1.37233278  p_y
    2   2   1   0       1.09445796  p_z
    2   2   1   1       1.30694185  p_x
    3   1   0   0       0.85157370  s
    4   1   0   0       0.68723475  s
    5   1   0   0       0.72591242  s
    6   1   0   0       0.84918009  s

Fermi level:                        -0.4851494119 H          -13.2016 eV
Band energy:                        -8.8916937462 H         -241.9553 eV
TS:                                  0.0000000000 H            0.0000 eV
Band free energy (E-TS):            -8.8916937462 H         -241.9553 eV
Extrapolated E(0K):                 -8.8916937462 H         -241.9553 eV
Input / Output electrons (q):     12.0000000000     12.0000000000

Energy H0:                          -5.5367453021 H         -150.6625 eV
Energy SCC:                          0.1343645867 H            3.6562 eV
Total Electronic energy:            -5.4023807154 H         -147.0063 eV
Repulsive energy:                    0.2073446484 H            5.6421 eV
Total energy:                       -5.1950360670 H         -141.3641 eV
Extrapolated to 0:                  -5.1950360670 H         -141.3641 eV
Total Mermin free energy:           -5.1950360670 H         -141.3641 eV
Force related energy:               -5.1950360670 H         -141.3641 eV

SCC converged

Excitation Energy:                   0.0948065165 H            2.5798 eV

Total Forces
    1     -0.012036385071      0.006263620630     -0.021140933148
    2      0.004530245900      0.009486090179      0.017740815330
    3     -0.002944673697     -0.016250785689      0.002818355613
    4     -0.008424654803      0.007917744817      0.004386745614
    5      0.010337321737     -0.016585772483     -0.004351679455
    6      0.008538145934      0.009169102546      0.000546696047

Maximal derivative component:        0.211409E-01 au


