|===============================================================================
|
|  DFTB+ release 20.1
|
|  Copyright (C) 2006 - 2020  DFTB+ developers group
|
|===============================================================================
|
|  When publishing results obtained with DFTB+, please cite the following
|  reference:
|
|  * DFTB+, a software package for efficient approximate density functional
|    theory based atomistic simulations, J. Chem. Phys. 152, 124101 (2020).
|    [doi: 10.1063/1.5143190]
|
|  You should also cite additional publications crediting the parametrization
|  data you use. Please consult the documentation of the SK-files for the
|  references.
|
|===============================================================================

Reading input file 'dftb_in.hsd'
Parser version: 8

--------------------------------------------------------------------------------
Reading SK-files:
Done.


Processed input in HSD format written to 'dftb_pin.hsd'

Starting initialization...
--------------------------------------------------------------------------------
OpenMP threads:              1
Chosen random seed:          510228121
Mode:                        Static calculation
Self consistent charges:     Yes
SCC-tolerance:                 0.100000E-05
Max. scc iterations:                   1000
Shell resolved Hubbard:      No
Spin polarisation:           No
Nr. of up electrons:             6.000000
Nr. of down electrons:           6.000000
Periodic boundaries:         No
Electronic solver:           Relatively robust
Maximal SCC-cycles:                    1000
Initial charges:             Set automatically (system chrg:   0.100E+01)
Included shells:             C:  s, p
                             N:  s, p
                             H:  s
Spin coupling constants:     C   1(s)-1(s):  -0.455900E-01
                             C   1(s)-2(p):  -0.293000E-01
                             C   2(p)-1(s):  -0.293000E-01
                             C   2(p)-2(p):  -0.275500E-01
                             N   1(s)-1(s):  -0.468700E-01
                             N   1(s)-2(p):  -0.317000E-01
                             N   2(p)-1(s):  -0.317000E-01
                             N   2(p)-2(p):  -0.307200E-01
                             H   1(s)-1(s):  -0.792500E-01
Range separated hybrid:      Yes
  Screening parameter omega:   0.300000E+00
  Range separated algorithm:   MatrixBased
Extra options:
                             Mulliken analysis
                             Force calculation
Force type                   original
                             Eigenvector printing


REKS Calcuation:             Yes
SSR(2,2) Calcuation:         Yes
Energy Functional:           (PPS+OSS)/2
Number of Core Orbitals:                  5
Number of Active Orbitals:                2
Number of Basis:                         12
Number of States:                         2
State-Averaging Weight:          0.500000
                                 0.500000
State of Interest:                        1
Initial Guess:               Diagonalize H0 matrix
Newton-Raphson for FON opt:  Yes
NR max. Iterations:                      50
Level Shifting:              Yes
Shift Value:                     0.300000
W Scale Factor:              C  =    3.000000
                             N  =    3.000000
                             H  =    3.000000
Transition Dipole:           No
Gradient of Microstate:      No
CP-REKS Solver:              Preconditioned Conjugate-Gradient
CG max. Iterations:                     100
CG Tolerance:                  0.100000E-07
Memory for A and Hxc:        Direct Updating Without Saving
Non-Adiabatic Coupling:      Yes

--------------------------------------------------------------------------------

***  Geometry step: 0

  iSCC       reks energy        Diff energy         x_a       SCC error   
    1       -6.2603663335       0.0000000000     0.999169    1.18303578
    2       -6.2745977710      -0.0142314374     0.999676    0.10947083
    3       -6.2793637676      -0.0047659966     0.999827    0.05153843
    4       -6.2820468517      -0.0026830841     0.999891    0.02626453
    5       -6.2838270558      -0.0017802042     0.999923    0.01379608
    6       -6.2850768400      -0.0012497841     0.999940    0.01022151
    7       -6.2859574581      -0.0008806181     0.999950    0.00853187
    8       -6.2865661366      -0.0006086785     0.999956    0.00734669
    9       -6.2869763385      -0.0004102019     0.999960    0.00641138
   10       -6.2872463356      -0.0002699971     0.999963    0.00547644
   11       -6.2874207095      -0.0001743739     0.999964    0.00460988
   12       -6.2875317860      -0.0001110765     0.999965    0.00384205
   13       -6.2876019060      -0.0000701201     0.999966    0.00318057
   14       -6.2876459458      -0.0000440398     0.999966    0.00262078
   15       -6.2876735483      -0.0000276025     0.999966    0.00215242
   16       -6.2876908512      -0.0000173028     0.999967    0.00176346
   17       -6.2877017157      -0.0000108645     0.999967    0.00144205
   18       -6.2877085555      -0.0000068398     0.999967    0.00117739
   19       -6.2877128752      -0.0000043196     0.999967    0.00096002
   20       -6.2877156123      -0.0000027371     0.999967    0.00078186
   21       -6.2877173524      -0.0000017401     0.999967    0.00063610
   22       -6.2877184621      -0.0000011097     0.999967    0.00051702
   23       -6.2877191718      -0.0000007097     0.999967    0.00041987
   24       -6.2877196268      -0.0000004550     0.999967    0.00034071
   25       -6.2877199192      -0.0000002924     0.999967    0.00027629
   26       -6.2877201075      -0.0000001882     0.999967    0.00022390
   27       -6.2877202288      -0.0000001214     0.999967    0.00018159
   28       -6.2877203072      -0.0000000784     0.999967    0.00014793
   29       -6.2877203579      -0.0000000507     0.999967    0.00012036
   30       -6.2877203907      -0.0000000328     0.999967    0.00009782
   31       -6.2877204119      -0.0000000212     0.999967    0.00007943
   32       -6.2877204257      -0.0000000138     0.999967    0.00006444
   33       -6.2877204346      -0.0000000089     0.999966    0.00005224
   34       -6.2877204404      -0.0000000058     0.999966    0.00004233
   35       -6.2877204441      -0.0000000038     0.999966    0.00003427
   36       -6.2877204466      -0.0000000024     0.999966    0.00002774
   37       -6.2877204481      -0.0000000016     0.999966    0.00002244
   38       -6.2877204492      -0.0000000010     0.999966    0.00001815
   39       -6.2877204498      -0.0000000007     0.999966    0.00001467
   40       -6.2877204503      -0.0000000004     0.999966    0.00001185
   41       -6.2877204506      -0.0000000003     0.999966    0.00000958
   42       -6.2877204507      -0.0000000002     0.999966    0.00000773
   43       -6.2877204509      -0.0000000001     0.999966    0.00000625
   44       -6.2877204509      -0.0000000001     0.999966    0.00000504
   45       -6.2877204510      -0.0000000001     0.999966    0.00000407
   46       -6.2877204510      -0.0000000000     0.999966    0.00000328
   47       -6.2877204510      -0.0000000000     0.999966    0.00000265
   48       -6.2877204510      -0.0000000000     0.999966    0.00000214
   49       -6.2877204511      -0.0000000000     0.999966    0.00000173
   50       -6.2877204511      -0.0000000000     0.999966    0.00000139
   51       -6.2877204511      -0.0000000000     0.999966    0.00000112
   52       -6.2877204511      -0.0000000000     0.999966    0.00000091
  
--------------------------------------------------
 Final SA-REKS(2,2) energy:      -6.28772045
  
 State     Energy      FON(1)    FON(2)   Spin
  PPS   -6.41688278   1.999933  0.000067  0.00
  OSS   -6.15855812   1.000000  1.000000  0.00
 Trip   -6.23783342   1.000000  1.000000  1.00
--------------------------------------------------

 Lagrangian Wab:   0.00295265  0.00295255

--------------------------------------------------
 SSR: 2SI-2SA-REKS(2,2) Hamiltonian matrix
               PPS           OSS
   PPS    -6.41688278    0.00415143
   OSS     0.00415143   -6.15855812
--------------------------------------------------

----------------------------------------------------------------
 SSR: 2SI-2SA-REKS(2,2) states
                    E_n       C_{PPS}    C_{OSS}
 SSR state  1   -6.41694948  -0.999871   0.016064
 SSR state  2   -6.15849143  -0.016064  -0.999871
----------------------------------------------------------------

 unrelaxed SSR FONs for S0:  1.999675  0.000325

Total Energy:                       -6.4169494766 H         -174.6141 eV
Extrapolated to 0:                  -6.4169494766 H         -174.6141 eV

----------------------------------------------------------------------------------
 Solving CP-REKS equation for  1 state vector...
----------------------------------------------------------------------------------
  CG solver: Constructing Y initial guess
  CG solver: Iteration    1    eps =    0.000051809218
  CG solver: Iteration    2    eps =    0.000010657059
  CG solver: Iteration    3    eps =    0.000000424444
  CG solver: Iteration    4    eps =    0.000000105407
  CG solver: Iteration    5    eps =    0.000000006376
  Convergence reached in CG solver after    5 iterations
  CG solver: Calculating converged R, Z, Q2 matrix
----------------------------------------------------------------------------------

----------------------------------------------------------------------------------
 Solving CP-REKS equation for SI between  1 and  2 state vectors...
----------------------------------------------------------------------------------
  CG solver: Constructing Y initial guess
  CG solver: Iteration    1    eps =    0.000854328778
  CG solver: Iteration    2    eps =    0.000799967633
  CG solver: Iteration    3    eps =    0.000191687401
  CG solver: Iteration    4    eps =    0.000002469823
  CG solver: Iteration    5    eps =    0.000000340146
  CG solver: Iteration    6    eps =    0.000000006896
  Convergence reached in CG solver after    6 iterations
  CG solver: Calculating converged R, Z, Q2 matrix
----------------------------------------------------------------------------------

--------------------------------------------------
 Gradient Information
--------------------------------------------------
           1 st state (SSR)
    -0.00263134    -0.00089948    -0.00843856
     0.00241868     0.00305030     0.00871102
     0.00197494    -0.00691852    -0.00045402
    -0.00095302     0.00611697     0.00216100
     0.00108618    -0.00847940    -0.00226317
    -0.00189544     0.00713013     0.00028373

           2 st state (SSR)
    -0.00022955    -0.00309991     0.09215838
    -0.00100374     0.00255515    -0.10979376
    -0.01137118     0.00519539     0.01825075
    -0.00710588    -0.00480509    -0.00795320
     0.00823673     0.00758850    -0.00995298
     0.01147361    -0.00743404     0.01729081
--------------------------------------------------
 Coupling Information
--------------------------------------------------
 between  1 and  2 states
--------------------------------------------------
 g vector - difference gradient
    -0.00118524     0.00111897    -0.05046546
     0.00168025     0.00025048     0.05935987
     0.00666735    -0.00630236    -0.00935733
     0.00306159     0.00571671     0.00509940
    -0.00353452    -0.00830482     0.00384870
    -0.00668944     0.00752101    -0.00848518

 h vector - derivative coupling
     0.00050641     0.00056600    -0.00438746
    -0.00099071     0.00008624     0.00239194
    -0.00028494    -0.00753770    -0.00000358
    -0.00051101     0.00786731     0.00123477
     0.00132566    -0.00829845     0.00005639
    -0.00004540     0.00731661     0.00070794

 G vector - GDV
    -0.00120090     0.00110021    -0.05029847
     0.00171121     0.00024758     0.05925239
     0.00667306    -0.00605696    -0.00935238
     0.00307643     0.00546103     0.00505710
    -0.00357528    -0.00803395     0.00384491
    -0.00668453     0.00728209    -0.00850354

 H vector - DCV - non-adiabatic coupling
     0.00181101     0.00232785    -0.02323929
    -0.00362234     0.00036464     0.01662791
    -0.00027318    -0.02993240    -0.00117688
    -0.00159561     0.03113424     0.00540881
     0.00468713    -0.03312321     0.00069645
    -0.00100702     0.02922889     0.00168301
--------------------------------------------------


--------------------------------------------------------------------------------
DFTB+ running times                          cpu [s]             wall clock [s]
--------------------------------------------------------------------------------
SCC                                    +     0.02  ( 68.6%)      0.03  ( 64.1%)
Post-SCC processing                    +     0.01  ( 27.5%)      0.01  ( 25.6%)
--------------------------------------------------------------------------------
Missing                                +     0.00  (  3.9%)      0.00  ( 10.3%)
Total                                  =     0.03  (100.0%)      0.04  (100.0%)
--------------------------------------------------------------------------------
