    14
  Step:     0            Position(A)                                  Velocity(au)
C        -5.97000822    -0.63946806    -0.14914306     0.00008558    -0.00001195     0.00003926
C        -4.72141981    -0.77199729     0.19204132    -0.00032684    -0.00000690     0.00005191
H        -6.48763696     0.20979039    -0.58083454    -0.00005525     0.00107465    -0.00155413
H        -6.60310349    -1.54014888    -0.04962688     0.00016389    -0.00010083    -0.00063831
H        -4.34736492    -1.67097828     0.69855239     0.00035151    -0.00075024    -0.00053686
C        -3.87052033     0.34396232    -0.04194311     0.00005088    -0.00024279     0.00028544
C        -2.52155955     0.46019516     0.22519410     0.00012905     0.00020906     0.00006037
H        -4.33644832     1.24805451    -0.53621646    -0.00023114     0.00080275     0.00002660
H        -1.97540111    -0.31321275     0.85701051    -0.00078790    -0.00034962    -0.00081712
C        -1.83968159     1.63845485    -0.11996131    -0.00034822    -0.00045844    -0.00012369
H        -2.33866524     2.54765286    -0.63390043     0.00092680     0.00066225    -0.00001410
N        -0.59578212     1.88181088     0.25583097     0.00037533     0.00032705    -0.00002523
H        -0.04526182     2.68732259    -0.16213715    -0.00055306     0.00062163     0.00015003
H        -0.07048075     1.03488833     0.60046723    -0.00015017    -0.00041614     0.00000126
    14
  Step:     1            Position(A)                                  Velocity(au)
C        -5.96980603    -0.63977818    -0.14886276    -0.00005246    -0.00004030     0.00000878
C        -4.72437733    -0.77201095     0.19278222    -0.00021068     0.00000264     0.00008471
H        -6.48773445     0.22203102    -0.59784979     0.00006307     0.00111399    -0.00152926
H        -6.60148882    -1.54063988    -0.05663083     0.00012676     0.00000984    -0.00064014
H        -4.34348632    -1.67903811     0.69231714     0.00034779    -0.00070691    -0.00060910
C        -3.87038400     0.34134713    -0.03896939    -0.00002741    -0.00023283     0.00025706
C        -2.51968634     0.46247450     0.22603061     0.00021089     0.00020585     0.00009195
H        -4.33865649     1.25569147    -0.53530651    -0.00016422     0.00057168     0.00015200
H        -1.98477463    -0.31600893     0.84704536    -0.00090792    -0.00017022    -0.00099021
C        -1.84376900     1.63360504    -0.12146277    -0.00039153    -0.00042366    -0.00014975
H        -2.32807681     2.55276355    -0.63322124     0.00099649     0.00026396     0.00013655
N        -0.59129236     1.88538708     0.25560376     0.00043962     0.00032344    -0.00001661
H        -0.05240392     2.69233396    -0.15951593    -0.00073580     0.00030872     0.00032004
H        -0.07253780     1.03218936     0.59995313    -0.00022042    -0.00006708    -0.00009757
    14
  Step:     2            Position(A)                                  Velocity(au)
C        -5.97115583    -0.64034972    -0.14895097    -0.00019508    -0.00006018    -0.00002721
C        -4.72602888    -0.77193956     0.19389443    -0.00009068     0.00000902     0.00011893
H        -6.48625719     0.23416102    -0.61429009     0.00022573     0.00106250    -0.00145282
H        -6.60033034    -1.53993362    -0.06363121     0.00007746     0.00011348    -0.00063746
H        -4.33975628    -1.68644331     0.68522710     0.00032670    -0.00063419    -0.00069027
C        -3.87111992     0.33886866    -0.03631937    -0.00010756    -0.00021842     0.00022680
C        -2.51694590     0.46469843     0.22720563     0.00028676     0.00019971     0.00012161
H        -4.34004084     1.26056103    -0.53289120    -0.00008521     0.00030538     0.00029691
H        -1.99526351    -0.31693654     0.83534768    -0.00098665    -0.00001557    -0.00112827
C        -1.84824710     1.62918647    -0.12323734    -0.00041931    -0.00038066    -0.00017299
H        -2.31686506     2.55342742    -0.63091319     0.00103692    -0.00014089     0.00027855
N        -0.58616460     1.88888678     0.25546769     0.00049069     0.00031301    -0.00000858
H        -0.06135886     2.69407648    -0.15513567    -0.00087522     0.00003941     0.00046453
H        -0.07530285     1.03342081     0.59833266    -0.00027216     0.00028859    -0.00019519
    14
  Step:     3            Position(A)                                  Velocity(au)
C        -5.97407379    -0.64109465    -0.14945807    -0.00033609    -0.00007252    -0.00006681
C        -4.72636107    -0.77181363     0.19538410     0.00002791     0.00001302     0.00015285
H        -6.48279626     0.24527515    -0.62963292     0.00041838     0.00093727    -0.00133325
H        -6.59979426    -1.53815736    -0.07057640     0.00001035     0.00020116    -0.00063006
H        -4.33633922    -1.69291223     0.67721622     0.00029323    -0.00053997    -0.00077438
C        -3.87273702     0.33656884    -0.03400771    -0.00018738    -0.00020076     0.00019573
C        -2.51341283     0.46684350     0.22869098     0.00035491     0.00019219     0.00014806
H        -4.34052070     1.26237228    -0.52881095    -0.00000329     0.00002087     0.00045163
H        -2.00635958    -0.31634957     0.82236222    -0.00101429     0.00009903    -0.00122056
C        -1.85294226     1.62527742    -0.12524734    -0.00043120    -0.00033169    -0.00019226
H        -2.30539213     2.54968132    -0.62712736     0.00104072    -0.00053181     0.00040159
N        -0.58055750     1.89223471     0.25541607     0.00052634     0.00029578    -0.00000114
H        -0.07155108     2.69319619    -0.14935340    -0.00095404    -0.00015624     0.00056987
H        -0.07849193     1.03850281     0.59568290    -0.00029095     0.00062290    -0.00028002
    14
  Step:     4            Position(A)                                  Velocity(au)
C        -5.97850836    -0.64193632    -0.15041258    -0.00046958    -0.00007842    -0.00010803
C        -4.72541830    -0.77165476     0.19723830     0.00014003     0.00001545     0.00018478
H        -6.47710432     0.25466562    -0.64345753     0.00062648     0.00075647    -0.00118024
H        -6.60010390    -1.53553287    -0.07741496    -0.00007919     0.00026491    -0.00061818
H        -4.33334124    -1.69825613     0.66828606     0.00025285    -0.00043306    -0.00085532
C        -3.87521932     0.33447660    -0.03203731    -0.00026452    -0.00018106     0.00016495
C        -2.50918153     0.46890305     0.23044478     0.00041345     0.00018472     0.00017014
H        -4.34011289     1.26101770    -0.52301084     0.00007281    -0.00026511     0.00060670
H        -2.01745296    -0.31477007     0.80864561    -0.00098249     0.00015877    -0.00125768
C        -1.85768045     1.62193010    -0.12744342    -0.00042726    -0.00027920    -0.00020655
H        -2.29409722     2.54179309    -0.62212754     0.00100101    -0.00088684     0.00049525
N        -0.57464982     1.89535758     0.25544277     0.00054508     0.00027216     0.00000572
H        -0.08223020     2.69065845    -0.14266869    -0.00095871    -0.00025177     0.00062452
H        -0.08166792     1.04704803     0.59220679    -0.00026348     0.00090809    -0.00034085
    14
  Step:     5            Position(A)                                  Velocity(au)
C        -5.98434682    -0.64281029    -0.15182143    -0.00059051    -0.00007900    -0.00014898
C        -4.72329774    -0.77147564     0.19942656     0.00024125     0.00001708     0.00021326
H        -6.46909078     0.26182448    -0.65545288     0.00083633     0.00053806    -0.00100387
H        -6.60152671    -1.53236205    -0.08410036    -0.00019427     0.00029849    -0.00060242
H        -4.33080759    -1.70238616     0.65850452     0.00021113    -0.00032272    -0.00092722
C        -3.87852387     0.33260789    -0.03039914    -0.00033644    -0.00016050     0.00013554
C        -2.50436787     0.47088466     0.23241315     0.00046046     0.00017833     0.00018693
H        -4.33892793     1.25657259    -0.51553813     0.00013458    -0.00053565     0.00075279
H        -2.02785333    -0.31287617     0.79484801    -0.00088578     0.00015140    -0.00123301
C        -1.86228948     1.61916940    -0.12976610    -0.00040769    -0.00022571    -0.00021500
H        -2.28349314     2.53028008    -0.61629283     0.00091116    -0.00118226     0.00054878
N        -0.56863293     1.89818884     0.25554125     0.00054616     0.00024312     0.00001184
H        -0.09252465     2.68768819    -0.13569074    -0.00088216    -0.00022908     0.00062133
H        -0.08425597     1.05836898     0.58822623    -0.00017832     0.00111806    -0.00036752
    14
  Step:     6            Position(A)                                  Velocity(au)
C        -5.99142696    -0.64366463    -0.15367175    -0.00069501    -0.00007546    -0.00018797
C        -4.72014051    -0.77128100     0.20190369     0.00032810     0.00001860     0.00023709
H        -6.45880799     0.26643662    -0.66541917     0.00103553     0.00029941    -0.00081440
H        -6.60435388    -1.52900276    -0.09059415    -0.00033588     0.00029837    -0.00058361
H        -4.32872235    -1.70531630     0.64800141     0.00017354    -0.00021829    -0.00098477
C        -3.88257959     0.33096533    -0.02907206    -0.00040063    -0.00014037     0.00010863
C        -2.49910809     0.47280440     0.23453418     0.00049433     0.00017345     0.00019795
H        -4.33716865     1.24929923    -0.50654203     0.00017359    -0.00077329     0.00088055
H        -2.03683111    -0.31145786     0.78167123    -0.00072329     0.00007033    -0.00114470
C        -1.86659947     1.61699234    -0.13214690    -0.00037269    -0.00017373    -0.00021681
H        -2.27416374     2.51592898    -0.61012183     0.00076515    -0.00139345     0.00055146
N        -0.56270161     1.90067628     0.25570171     0.00052980     0.00021039     0.00001670
H        -0.10152922     2.68564687    -0.12907582    -0.00072676    -0.00008441     0.00056024
H        -0.08556893     1.07150765     0.58416651    -0.00002721     0.00123118    -0.00035197
    14
  Step:     7            Position(A)                                  Velocity(au)
C        -5.99955151    -0.64446117    -0.15593353    -0.00078057    -0.00006918    -0.00022355
C        -4.71612003    -0.77106874     0.20461337     0.00039819     0.00002056     0.00025545
H        -6.44643649     0.26837454    -0.67326952     0.00121301     0.00005767    -0.00062232
H        -6.60887480    -1.52583454    -0.09686803    -0.00050248     0.00026455    -0.00056274
H        -4.32701108    -1.70716173     0.63696080     0.00014516    -0.00012869    -0.00102349
C        -3.88728845     0.32953712    -0.02802270    -0.00045481    -0.00012205     0.00008531
C        -2.49355350     0.47467922     0.23674378     0.00051413     0.00016972     0.00020338
H        -4.33513036     1.23965532    -0.49627451     0.00018138    -0.00095975     0.00098055
H        -2.04367677    -0.31133759     0.76980560    -0.00050038    -0.00008193    -0.00099770
C        -1.87044289     1.61536870    -0.13450932    -0.00032259    -0.00012564    -0.00021137
H        -2.26675395     2.49979565    -0.60422865     0.00055844    -0.00149752     0.00049365
N        -0.55704260     1.90279143     0.25590665     0.00049740     0.00017651     0.00001943
H        -0.10842401     2.68584151    -0.12343451    -0.00050631     0.00016652     0.00045043
H        -0.08485115     1.08530337     0.58052613     0.00019282     0.00123470    -0.00028988
    14
  Step:     8            Position(A)                                  Velocity(au)
C        -6.00850341    -0.64517803    -0.15856235    -0.00084607    -0.00006180    -0.00025454
C        -4.71142929    -0.77083131     0.20749206     0.00045033     0.00002338     0.00026785
H        -6.43227104     0.26769822    -0.67903351     0.00135895    -0.00016986    -0.00043849
H        -6.61534649    -1.52321531    -0.10290514    -0.00068959     0.00020120    -0.00054086
H        -4.32554673    -1.70813166     0.62561052     0.00013035    -0.00006185    -0.00104002
C        -3.89252940     0.32829524    -0.02720573    -0.00049712    -0.00010706     0.00006662
C        -2.48786047     0.47651743     0.23898342     0.00051993     0.00016591     0.00020405
H        -4.33320072     1.22830294    -0.48509054     0.00014985    -0.00107660     0.00104381
H        -2.04777794    -0.31325025     0.75984466    -0.00022943    -0.00029125    -0.00080473
C        -1.87365672     1.61424362    -0.13677093    -0.00025800    -0.00008335    -0.00019831
H        -2.26194672     2.48316780    -0.59932232     0.00028969    -0.00147796     0.00036907
N        -0.55182003     1.90453782     0.25612679     0.00045170     0.00014455     0.00001887
H        -0.11260570     2.68928982    -0.11922174    -0.00024541     0.00048755     0.00031046
H        -0.08135071     1.09851905     0.57782486     0.00047691     0.00112977    -0.00018255
    14
  Step:     9            Position(A)                                  Velocity(au)
C        -6.01806092    -0.64581311    -0.16150198    -0.00089165    -0.00005529    -0.00027993
C        -4.70626820    -0.77055731     0.21047314     0.00048434     0.00002729     0.00027420
H        -6.41670677     0.26465858    -0.68286223     0.00146487    -0.00036545    -0.00027421
H        -6.62396092    -1.52143291    -0.10870030    -0.00088994     0.00011674    -0.00051904
H        -4.32415936    -1.70851483     0.61420829     0.00013242    -0.00002397    -0.00103237
C        -3.89816381     0.32719491    -0.02656517    -0.00052620    -0.00009684     0.00005344
C        -2.48217895     0.47830892     0.24120773     0.00051278     0.00015999     0.00020144
H        -4.33185201     1.21610274    -0.47343907     0.00007214    -0.00110704     0.00106258
H        -2.04869600    -0.31770925     0.75220069     0.00007097    -0.00053212    -0.00058531
C        -1.87608711     1.61354521    -0.13884774    -0.00018012    -0.00004777    -0.00017785
H        -2.26041646     2.46746238    -0.59615454    -0.00003686    -0.00133128     0.00017803
N        -0.54716087     1.90595366     0.25631957     0.00039661     0.00011737     0.00001396
H        -0.11379280     2.69650757    -0.11664253     0.00002454     0.00082746     0.00016513
H        -0.07441781     1.11001919     0.57653256     0.00081044     0.00093507    -0.00003835
    14
  Step:    10            Position(A)                                  Velocity(au)
C        -6.02801000    -0.64638766    -0.16468640    -0.00091848    -0.00005189    -0.00029894
C        -4.70083346    -0.77023419     0.21349071     0.00050089     0.00003225     0.00027472
H        -6.40022429     0.25970339    -0.68503239     0.00152388    -0.00051130    -0.00014093
H        -6.63481563    -1.52066131    -0.11426012    -0.00109402     0.00002297    -0.00049828
H        -4.32264972    -1.70865601     0.60302554     0.00015324    -0.00001866    -0.00100016
C        -3.90404102     0.32617668    -0.02603673    -0.00054129    -0.00009244     0.00004631
C        -2.47664252     0.48001742     0.24339041     0.00049446     0.00014943     0.00019740
H        -4.33162248     1.20408435    -0.46184447    -0.00005599    -0.00103900     0.00103188
H        -2.04622536    -0.32489142     0.74703981     0.00037852    -0.00077131    -0.00036279
C        -1.87759725     1.61319846    -0.14066183    -0.00009092    -0.00001833    -0.00015101
H        -2.26275302     2.45404346    -0.59542753    -0.00040893    -0.00107312    -0.00006936
N        -0.54314333     1.90710542     0.25643211     0.00033682     0.00009688     0.00000405
H        -0.11206892     2.70739216    -0.11560916     0.00027168     0.00113088     0.00004004
H        -0.06362086     1.11897549     0.57698597     0.00116864     0.00068662     0.00012728
    14
  Step:    11            Position(A)                                  Velocity(au)
C        -6.03815433    -0.64694826    -0.16804191    -0.00092843    -0.00005387    -0.00031096
C        -4.69531035    -0.76985187     0.21648319     0.00050122     0.00003781     0.00026994
H        -6.38336897     0.25347281    -0.68594523     0.00153130    -0.00059074    -0.00004947
H        -6.64789476    -1.52093035    -0.11960120    -0.00129123    -0.00006652    -0.00047938
H        -4.32080696    -1.70892310     0.59232793     0.00019294    -0.00004623    -0.00094484
C        -3.91000546     0.32517266    -0.02555211    -0.00054224    -0.00009411     0.00004533
C        -2.47136161     0.48157801     0.24552615     0.00046718     0.00013184     0.00019368
H        -4.33307682     1.19337260    -0.45086462    -0.00023407    -0.00086946     0.00095159
H        -2.04041517    -0.33458318     0.74426400     0.00067094    -0.00097442    -0.00015976
C        -1.87807626     1.61314414    -0.14215132     0.00000677     0.00000722    -0.00011969
H        -2.26936263     2.44398582    -0.59767184    -0.00080519    -0.00074010    -0.00035191
N        -0.53979227     1.90807300     0.25640822     0.00027709     0.00008352    -0.00001073
H        -0.10784928     2.72124765    -0.11576668     0.00047001     0.00135054    -0.00004420
H        -0.04885158     1.12504038     0.57931712     0.00151919     0.00043194     0.00029397
    14
  Step:    12            Position(A)                                  Velocity(au)
C        -6.04832113    -0.64756613    -0.17148933    -0.00092381    -0.00006324    -0.00031565
C        -4.68986825    -0.76940693     0.21939626     0.00048690     0.00004317     0.00026064
H        -6.36672424     0.24677985    -0.68611457     0.00148536    -0.00059042    -0.00000860
H        -6.66306381    -1.52211664    -0.12474747    -0.00147118    -0.00013840    -0.00046286
H        -4.31842869    -1.70966730     0.58235533     0.00024981    -0.00010314    -0.00086960
C        -3.91590346     0.32411778    -0.02504509    -0.00052961    -0.00010093     0.00004996
C        -2.46642211     0.48290177     0.24762755     0.00043312     0.00010554     0.00019165
H        -4.33674331     1.18506320    -0.44102660    -0.00045515    -0.00060850     0.00082808
H        -2.03154721    -0.34620862     0.74354481     0.00092952    -0.00111290     0.00000602
C        -1.87744909     1.61335632    -0.14328019     0.00010939     0.00003231    -0.00008650
H        -2.28036799     2.43785238    -0.60312618    -0.00119663    -0.00038459    -0.00063961
N        -0.53708139     1.90893252     0.25619734     0.00022166     0.00007634    -0.00002956
H        -0.10178661     2.73693773    -0.11657611     0.00060337     0.00145634    -0.00007579
H        -0.03038570     1.12842504     0.58341715     0.00182736     0.00021982     0.00044030
    14
  Step:    13            Position(A)                                  Velocity(au)
C        -6.05836451    -0.64833173    -0.17494737    -0.00090712    -0.00008130    -0.00031303
C        -4.68465847    -0.76890742     0.22218511     0.00045959     0.00004708     0.00024772
H        -6.35087386     0.24055632    -0.68613346     0.00138808    -0.00050368    -0.00002301
H        -6.68007972    -1.52395803    -0.12972707    -0.00162500    -0.00018154    -0.00044892
H        -4.31534199    -1.71117946     0.57330382     0.00032025    -0.00018201    -0.00077908
C        -3.92159174     0.32296468    -0.02445910    -0.00050473    -0.00011058     0.00005900
C        -2.46188618     0.48388691     0.24971884     0.00039434     0.00006999     0.00019201
H        -4.34303409     1.18006056    -0.43274869    -0.00070489    -0.00028114     0.00067473
H        -2.02008024    -0.35892991     0.74439578     0.00114124    -0.00116891     0.00012400
C        -1.87568308     1.61385100    -0.14404368     0.00021298     0.00006056    -0.00005424
H        -2.29554113     2.43557208    -0.61166446    -0.00155099    -0.00006289    -0.00089946
N        -0.53494310     1.90974305     0.25576157     0.00017366     0.00007356    -0.00005113
H        -0.09464933     2.75310778    -0.11742463     0.00066629     0.00143816    -0.00005253
H        -0.00887449     1.12984927     0.58894946     0.00206244     0.00008941     0.00054815
    14
  Step:    14            Position(A)                                  Velocity(au)
C        -6.06816621    -0.64934470    -0.17833738    -0.00088084    -0.00010822    -0.00030363
C        -4.67981395    -0.76837688     0.22481565     0.00042091     0.00004804     0.00023219
H        -6.33635742     0.23576087    -0.68661790     0.00124564    -0.00033419    -0.00009107
H        -6.69861370    -1.52608819    -0.13456853    -0.00174624    -0.00018857    -0.00043745
H        -4.31142256    -1.71364907     0.56531155     0.00039920    -0.00027223    -0.00067890
C        -3.92694540     0.32169858    -0.02375425    -0.00046955    -0.00011966     0.00007073
C        -2.45779521     0.48443304     0.25182815     0.00035258     0.00002597     0.00019480
H        -4.35216402     1.17891266    -0.42626570    -0.00096267     0.00007491     0.00051033
H        -2.00658045    -0.37178073     0.74625759     0.00129933    -0.00113667     0.00019103
C        -1.87278964     1.61468109    -0.14446676     0.00031371     0.00009455    -0.00002524
H        -2.31429895     2.43647646    -0.62280361    -0.00183871     0.00017848    -0.00110277
N        -0.53328234     1.91054188     0.25507873     0.00013492     0.00007332    -0.00007405
H        -0.08721032     2.76840019    -0.11772538     0.00066209     0.00130326     0.00001994
H         0.01473404     1.13038110     0.59540892     0.00220301     0.00006285     0.00060600
    14
  Step:    15            Position(A)                                  Velocity(au)
C        -6.07763465    -0.65069934    -0.18158986    -0.00084731    -0.00014281    -0.00028861
C        -4.67545033    -0.76785637     0.22726464     0.00037240     0.00004446     0.00021498
H        -6.32362306     0.23324531    -0.68812578     0.00106809    -0.00009830    -0.00020350
H        -6.71828217    -1.52808344    -0.13929715    -0.00183141    -0.00015650    -0.00042799
H        -4.30660864    -1.71713498     0.55845162     0.00048064    -0.00036135    -0.00057498
C        -3.93186396     0.32034694    -0.02291166    -0.00042641    -0.00012426     0.00008323
C        -2.45417289     0.48445502     0.25398039     0.00030935    -0.00002466     0.00019948
H        -4.36409431     1.18169925    -0.42158428    -0.00120482     0.00041614     0.00035560
H        -1.99165483    -0.38379679     0.74857484     0.00140239    -0.00102083     0.00020989
C        -1.86882018     1.61591942    -0.14459595     0.00040827     0.00013509    -0.00000095
H        -2.33576647     2.43947678    -0.63578976    -0.00203819     0.00031231    -0.00123081
N        -0.53199157     1.91134718     0.25414148     0.00010599     0.00007416    -0.00009712
H        -0.08016476     2.78161917    -0.11698831     0.00060009     0.00107094     0.00013112
H         0.03932068     1.13122425     0.60220695     0.00223950     0.00014365     0.00061005
    14
  Step:    16            Position(A)                                  Velocity(au)
C        -6.08670280    -0.65246899    -0.18465123    -0.00080861    -0.00018255    -0.00026967
C        -4.67166702    -0.76740413     0.22951876     0.00031549     0.00003495     0.00019692
H        -6.31299084     0.23361032    -0.69106978     0.00086792     0.00017552    -0.00034371
H        -6.73867936    -1.52951197    -0.14393157    -0.00187978    -0.00008650    -0.00041982
H        -4.30090754    -1.72155420     0.55273286     0.00055833    -0.00043682    -0.00047281
C        -3.93627384     0.31898014    -0.02193343    -0.00037770    -0.00012090     0.00009477
C        -2.45102760     0.48389351     0.25619215     0.00026596    -0.00007925     0.00020517
H        -4.37852169     1.18801651    -0.41848623    -0.00140895     0.00070233     0.00022881
H        -1.97590057    -0.39411340     0.75084936     0.00145285    -0.00083329     0.00018724
C        -1.86385803     1.61763649    -0.14448749     0.00049416     0.00018110     0.00001827
H        -2.35888823     2.44330886    -0.64972997    -0.00213837     0.00033255    -0.00127668
N        -0.53096354     1.91216431     0.25295410     0.00008643     0.00007519    -0.00011943
H        -0.07408216     2.79182899    -0.11485698     0.00049285     0.00076719     0.00026817
H         0.06372740     1.13352381     0.60875483     0.00217351     0.00032003     0.00056328
    14
  Step:    17            Position(A)                                  Velocity(au)
C        -6.09532463    -0.65469298    -0.18748933    -0.00076646    -0.00022402    -0.00024886
C        -4.66854842    -0.76709184     0.23157268     0.00025154     0.00001855     0.00017863
H        -6.30463575     0.23708514    -0.69564507     0.00065800     0.00045091    -0.00049034
H        -6.75940589    -1.52997583    -0.14848143    -0.00189300     0.00001683    -0.00041205
H        -4.29439403    -1.72669130     0.54810806     0.00062651    -0.00048782    -0.00037691
C        -3.94012694     0.31770203    -0.02083830    -0.00032560    -0.00010726     0.00010417
C        -2.44835449     0.48272118     0.25846891     0.00022356    -0.00013479     0.00021082
H        -4.39491773     1.19706416    -0.41657858    -0.00155792     0.00090438     0.00014236
H        -1.95987096    -0.40202669     0.75267098     0.00145557    -0.00058997     0.00013162
C        -1.85800945     1.61988133    -0.14419627     0.00056965     0.00023008     0.00003288
H        -2.38254731     2.44675187    -0.66371959    -0.00213812     0.00024980    -0.00124358
N        -0.53010084     1.91299201     0.25152882     0.00007506     0.00007596    -0.00014038
H        -0.06938268     2.79840281    -0.11112148     0.00035443     0.00042103     0.00041780
H         0.08687041     1.13822548     0.61452983     0.00201535     0.00057036     0.00047362
    14
  Step:    18            Position(A)                                  Velocity(au)
C        -6.10347064    -0.65736992    -0.19009561    -0.00072213    -0.00026358    -0.00022826
C        -4.66616402    -0.76699836     0.23342660     0.00018193    -0.00000502     0.00016047
H        -6.29859574     0.24347495    -0.70179701     0.00044961     0.00069070    -0.00062144
H        -6.78009229    -1.52914377    -0.15294601    -0.00187458     0.00014644    -0.00040371
H        -4.28720154    -1.73222625     0.54448726     0.00068041    -0.00050661    -0.00029047
C        -3.94339686     0.31663354    -0.01965457    -0.00027187    -0.00008261     0.00011087
C        -2.44613678     0.48094467     0.26080430     0.00018316    -0.00018823     0.00021538
H        -4.41260421     1.20780159    -0.41537192    -0.00164191     0.00100790     0.00010149
H        -1.94405720    -0.40702004     0.75372885     0.00141671    -0.00030832     0.00005221
C        -1.85139579     1.62266985    -0.14376823     0.00063361     0.00027883     0.00004386
H        -2.40566362     2.44877372    -0.67693569    -0.00204372     0.00008436    -0.00114133
N        -0.52932156     1.91382612     0.24988292     0.00007032     0.00007629    -0.00015963
H        -0.06632838     2.80103977    -0.10571680     0.00019941     0.00006248     0.00056707
H         0.10781700     1.14600146     0.61911619     0.00178101     0.00086834     0.00035187
    14
  Step:    19            Position(A)                                  Velocity(au)
C        -6.11112262    -0.66045925    -0.19248302    -0.00067644    -0.00029802    -0.00020958
C        -4.66456825    -0.76720173     0.23508338     0.00010807    -0.00003531     0.00014260
H        -6.29479967     0.25219543    -0.70924036     0.00025103     0.00086420    -0.00071873
H        -6.80041602    -1.52677228    -0.15731345    -0.00182932     0.00029380    -0.00039381
H        -4.27950870    -1.73777430     0.54175339     0.00071665    -0.00048927    -0.00021529
C        -3.94607465     0.31589472    -0.01841277    -0.00021796    -0.00004774     0.00011495
C        -2.44434754     0.47860324     0.26318075     0.00014559    -0.00023674     0.00021788
H        -4.43083759     1.21911400    -0.41435828    -0.00165836     0.00101249     0.00010509
H        -1.92887766    -0.40877167     0.75381308     0.00134323    -0.00000602    -0.00004190
C        -1.84414792     1.62598119    -0.14323674     0.00068534     0.00032409     0.00005238
H        -2.42725758     2.44859743    -0.68868842    -0.00186582    -0.00014007    -0.00098288
N        -0.52856249     1.91466105     0.24803669     0.00007043     0.00007602    -0.00017692
H        -0.06502030     2.79976968    -0.09871579     0.00004261    -0.00027810     0.00070372
H         0.12583337     1.15722213     0.62222772     0.00148985     0.00118644     0.00021032
    14
  Step:    20            Position(A)                                  Velocity(au)
C        -6.11826904    -0.66388958    -0.19468059    -0.00062982    -0.00032505    -0.00019396
C        -4.66379967    -0.76777090     0.23654617     0.00003145    -0.00007116     0.00012492
H        -6.29310404     0.26238098    -0.71752070     0.00006731     0.00095210    -0.00077043
H        -6.82011225    -1.52271629    -0.16156132    -0.00176277     0.00044984    -0.00038140
H        -4.27152349    -1.74292993     0.53977742     0.00073321    -0.00043575    -0.00015188
C        -3.94816507     0.31558905    -0.01713977    -0.00016503    -0.00000467     0.00011692
C        -2.44295165     0.47576549     0.26557087     0.00011151    -0.00027784     0.00021751
H        -4.44888396     1.22995174    -0.41307298    -0.00161048     0.00092809     0.00014756
H        -1.91467156    -0.40715181     0.75281216     0.00124260     0.00029967    -0.00014190
C        -1.83640275     1.62976005    -0.14262236     0.00072436     0.00036299     0.00005952
H        -2.44648205     2.44570933    -0.69843799    -0.00161698    -0.00040047    -0.00078179
N        -0.52778070     1.91548924     0.24601240     0.00007350     0.00007493    -0.00019213