|===============================================================================
|
|  DFTB+ release 20.1
|
|  Copyright (C) 2006 - 2020  DFTB+ developers group
|
|===============================================================================
|
|  When publishing results obtained with DFTB+, please cite the following
|  reference:
|
|  * DFTB+, a software package for efficient approximate density functional
|    theory based atomistic simulations, J. Chem. Phys. 152, 124101 (2020).
|    [doi: 10.1063/1.5143190]
|
|  You should also cite additional publications crediting the parametrization
|  data you use. Please consult the documentation of the SK-files for the
|  references.
|
|===============================================================================

Reading input file 'dftb_in.hsd'
Parser version: 8

--------------------------------------------------------------------------------
Reading SK-files:
Done.


Processed input in HSD format written to 'dftb_pin.hsd'

Starting initialization...
--------------------------------------------------------------------------------
OpenMP threads:              1
Chosen random seed:          511930851
Mode:                        Static calculation
Self consistent charges:     Yes
SCC-tolerance:                 0.100000E-05
Max. scc iterations:                   1000
Shell resolved Hubbard:      No
Spin polarisation:           No
Nr. of up electrons:             6.000000
Nr. of down electrons:           6.000000
Periodic boundaries:         No
Electronic solver:           Relatively robust
Maximal SCC-cycles:                    1000
Initial charges:             Set automatically (system chrg:   0.100E+01)
Included shells:             C:  s, p
                             N:  s, p
                             H:  s
Spin coupling constants:     C   1(s)-1(s):  -0.455900E-01
                             C   1(s)-2(p):  -0.293000E-01
                             C   2(p)-1(s):  -0.293000E-01
                             C   2(p)-2(p):  -0.275500E-01
                             N   1(s)-1(s):  -0.468700E-01
                             N   1(s)-2(p):  -0.317000E-01
                             N   2(p)-1(s):  -0.317000E-01
                             N   2(p)-2(p):  -0.307200E-01
                             H   1(s)-1(s):  -0.792500E-01
Range separated hybrid:      Yes
  Screening parameter omega:   0.300000E+00
  Range separated algorithm:   MatrixBased
Extra options:
                             Mulliken analysis
                             Force calculation
Force type                   original
                             Eigenvector printing


REKS Calcuation:             Yes
SSR(2,2) Calcuation:         Yes
Energy Functional:           (PPS+OSS)/2
Number of Core Orbitals:                  5
Number of Active Orbitals:                2
Number of Basis:                         12
Number of States:                         2
State-Averaging Weight:          0.500000
                                 0.500000
State of Interest:                        1
Initial Guess:               Diagonalize H0 matrix
Newton-Raphson for FON opt:  Yes
NR max. Iterations:                      50
Level Shifting:              Yes
Shift Value:                     0.300000
W Scale Factor:              C  =    3.000000
                             N  =    3.000000
                             H  =    3.000000
Transition Dipole:           No
Gradient of Microstate:      No
CP-REKS Solver:              Preconditioned Conjugate-Gradient
CG max. Iterations:                     100
CG Tolerance:                  0.100000E-07
Memory for A and Hxc:        Direct Updating Without Saving
Non-Adiabatic Coupling:      Yes

--------------------------------------------------------------------------------

***  Geometry step: 0

  iSCC       reks energy        Diff energy         x_a       SCC error   
    1       -6.2618184988       0.0000000000     0.999317    1.18662114
    2       -6.2753058540      -0.0134873552     0.999720    0.10431817
    3       -6.2799182013      -0.0046123473     0.999847    0.04716306
    4       -6.2825313849      -0.0026131836     0.999903    0.02387224
    5       -6.2842175845      -0.0016861996     0.999930    0.01252195
    6       -6.2853428983      -0.0011253138     0.999945    0.00906121
    7       -6.2860892684      -0.0007463700     0.999954    0.00820980
    8       -6.2865743308      -0.0004850624     0.999959    0.00707639
    9       -6.2868827673      -0.0003084365     0.999962    0.00589203
   10       -6.2870753674      -0.0001926001     0.999964    0.00478467
   11       -6.2871940771      -0.0001187098     0.999965    0.00381479
   12       -6.2872666529      -0.0000725758     0.999966    0.00300084
   13       -6.2873108481      -0.0000441951     0.999966    0.00233755
   14       -6.2873377413      -0.0000268933     0.999967    0.00180817
   15       -6.2873541335      -0.0000163921     0.999967    0.00139189
   16       -6.2873641579      -0.0000100244     0.999967    0.00114056
   17       -6.2873703147      -0.0000061568     0.999967    0.00093356
   18       -6.2873741144      -0.0000037997     0.999967    0.00076283
   19       -6.2873764711      -0.0000023567     0.999967    0.00062232
   20       -6.2873779399      -0.0000014688     0.999967    0.00050691
   21       -6.2873788595      -0.0000009196     0.999967    0.00041516
   22       -6.2873794376      -0.0000005781     0.999967    0.00034145
   23       -6.2873798024      -0.0000003648     0.999967    0.00027992
   24       -6.2873800333      -0.0000002309     0.999967    0.00022885
   25       -6.2873801799      -0.0000001466     0.999967    0.00018666
   26       -6.2873802731      -0.0000000933     0.999967    0.00015194
   27       -6.2873803326      -0.0000000594     0.999967    0.00012347
   28       -6.2873803705      -0.0000000380     0.999967    0.00010017
   29       -6.2873803948      -0.0000000243     0.999967    0.00008117
   30       -6.2873804103      -0.0000000155     0.999967    0.00006569
   31       -6.2873804203      -0.0000000100     0.999967    0.00005311
   32       -6.2873804267      -0.0000000064     0.999967    0.00004290
   33       -6.2873804308      -0.0000000041     0.999967    0.00003463
   34       -6.2873804334      -0.0000000026     0.999967    0.00002793
   35       -6.2873804351      -0.0000000017     0.999967    0.00002251
   36       -6.2873804362      -0.0000000011     0.999967    0.00001814
   37       -6.2873804368      -0.0000000007     0.999967    0.00001461
   38       -6.2873804373      -0.0000000004     0.999967    0.00001176
   39       -6.2873804376      -0.0000000003     0.999967    0.00000946
   40       -6.2873804378      -0.0000000002     0.999967    0.00000761
   41       -6.2873804379      -0.0000000001     0.999967    0.00000612
   42       -6.2873804380      -0.0000000001     0.999967    0.00000492
   43       -6.2873804380      -0.0000000000     0.999967    0.00000395
   44       -6.2873804380      -0.0000000000     0.999967    0.00000318
   45       -6.2873804381      -0.0000000000     0.999967    0.00000255
   46       -6.2873804381      -0.0000000000     0.999967    0.00000205
   47       -6.2873804381      -0.0000000000     0.999967    0.00000165
   48       -6.2873804381      -0.0000000000     0.999967    0.00000132
   49       -6.2873804381      -0.0000000000     0.999967    0.00000106
   50       -6.2873804381      -0.0000000000     0.999967    0.00000085
  
--------------------------------------------------
 Final SA-REKS(2,2) energy:      -6.28738044
  
 State     Energy      FON(1)    FON(2)   Spin
  PPS   -6.41643621   1.999934  0.000066  0.00
  OSS   -6.15832466   1.000000  1.000000  0.00
 Trip   -6.23749176   1.000000  1.000000  1.00
--------------------------------------------------

 Lagrangian Wab:   0.00277060  0.00277050

--------------------------------------------------
 SSR: 2SI-2SA-REKS(2,2) Hamiltonian matrix
               PPS           OSS
   PPS    -6.41643621    0.00389559
   OSS     0.00389559   -6.15832466
--------------------------------------------------

----------------------------------------------------------------
 SSR: 2SI-2SA-REKS(2,2) states
                    E_n       C_{PPS}    C_{OSS}
 SSR state  1   -6.41649499  -0.999886   0.015087
 SSR state  2   -6.15826588  -0.015087  -0.999886
----------------------------------------------------------------

 unrelaxed SSR FONs for S0:  1.999706  0.000294

Total Energy:                       -6.4164949942 H         -174.6017 eV
Extrapolated to 0:                  -6.4164949942 H         -174.6017 eV

----------------------------------------------------------------------------------
 Solving CP-REKS equation for  1 state vector...
----------------------------------------------------------------------------------
  CG solver: Constructing Y initial guess
  CG solver: Iteration    1    eps =    0.000053183447
  CG solver: Iteration    2    eps =    0.000008892804
  CG solver: Iteration    3    eps =    0.000000377502
  CG solver: Iteration    4    eps =    0.000000068532
  CG solver: Iteration    5    eps =    0.000000006317
  Convergence reached in CG solver after    5 iterations
  CG solver: Calculating converged R, Z, Q2 matrix
----------------------------------------------------------------------------------

----------------------------------------------------------------------------------
 Solving CP-REKS equation for SI between  1 and  2 state vectors...
----------------------------------------------------------------------------------
  CG solver: Constructing Y initial guess
  CG solver: Iteration    1    eps =    0.000793122254
  CG solver: Iteration    2    eps =    0.000676564453
  CG solver: Iteration    3    eps =    0.000169549961
  CG solver: Iteration    4    eps =    0.000002316860
  CG solver: Iteration    5    eps =    0.000000311355
  CG solver: Iteration    6    eps =    0.000000011507
  CG solver: Iteration    7    eps =    0.000000000380
  Convergence reached in CG solver after    7 iterations
  CG solver: Calculating converged R, Z, Q2 matrix
----------------------------------------------------------------------------------

--------------------------------------------------
 Gradient Information
--------------------------------------------------
           1 st state (SSR)
    -0.00014796    -0.00675373     0.00307241
    -0.01085686     0.00407206     0.00089660
     0.00769849     0.00056277    -0.00061302
     0.01130138    -0.00093617    -0.00155871
    -0.00272830     0.00218651     0.00269476
    -0.00526675     0.00086856    -0.00449204

           2 st state (SSR)
    -0.00859636    -0.00632682     0.10226463
     0.01444933     0.00735442    -0.11860818
    -0.00785233    -0.01363998     0.01649017
    -0.00740001     0.00729851    -0.00940679
     0.00265965    -0.00474549    -0.00685049
     0.00673971     0.01005936     0.01611067
--------------------------------------------------
 Coupling Information
--------------------------------------------------
 between  1 and  2 states
--------------------------------------------------
 g vector - difference gradient
     0.00421075    -0.00019781    -0.04972058
    -0.01270984    -0.00172795     0.05982246
     0.00801052     0.00708487    -0.00854022
     0.00960996    -0.00407930     0.00393980
    -0.00290917     0.00349842     0.00480157
    -0.00621223    -0.00457823    -0.01030303

 h vector - derivative coupling
    -0.00050917     0.00052149    -0.00337523
    -0.00168886    -0.00284978     0.00141966
     0.00767142    -0.00065384     0.00050581
     0.00844815     0.00132233     0.00046301
    -0.00708828     0.00102166     0.00088688
    -0.00683326     0.00063815     0.00009987

 G vector - GDV
     0.00422420    -0.00021346    -0.04959611
    -0.01265309    -0.00164118     0.05975239
     0.00777541     0.00710137    -0.00855159
     0.00935069    -0.00411734     0.00392404
    -0.00269398     0.00346600     0.00477263
    -0.00600323    -0.00459540    -0.01030136

 H vector - DCV - non-adiabatic coupling
    -0.00147890     0.00199545    -0.01887409
    -0.00802221    -0.01123273     0.01248486
     0.03063024    -0.00170308     0.00096003
     0.03382366     0.00464179     0.00225252
    -0.02777700     0.00436337     0.00399391
    -0.02717578     0.00193520    -0.00081723
--------------------------------------------------


--------------------------------------------------------------------------------
DFTB+ running times                          cpu [s]             wall clock [s]
--------------------------------------------------------------------------------
SCC                                    +     0.02  ( 66.7%)      0.02  ( 61.3%)
--------------------------------------------------------------------------------
Missing                                +     0.01  ( 33.3%)      0.01  ( 38.7%)
Total                                  =     0.03  (100.0%)      0.03  (100.0%)
--------------------------------------------------------------------------------
