     6
  Step:     0            Position(A)                                  Velocity(au)
C        -0.04790647     0.02204245     0.03530435     0.00001122    -0.00008969    -0.00034036
N        -0.04239913    -0.05068885     1.27937232    -0.00013005     0.00008018     0.00024486
H         0.96040429    -0.00730357    -0.49345692    -0.00031637     0.00038039     0.00020362
H         0.81789760    -0.16850472     1.88892672     0.00160090    -0.00054598     0.00137711
H        -0.86124029    -0.06635539     1.86120342     0.00062167    -0.00021765    -0.00101832
H        -0.96994963     0.01411640    -0.56392804    -0.00023270     0.00033784     0.00009063
     6
  Step:     1            Position(A)                                  Velocity(au)
C        -0.04782404     0.02156850     0.03319225     0.00001896    -0.00008383    -0.00042936
N        -0.04307204    -0.05026511     1.28094658    -0.00011388     0.00007481     0.00032873
H         0.95853975    -0.00520342    -0.49245567    -0.00036257     0.00038752     0.00016034
H         0.82644506    -0.17148667     1.89624586     0.00150713    -0.00054187     0.00128678
H        -0.85821463    -0.06753105     1.85586949     0.00046988    -0.00021296    -0.00091972
H        -0.97128959     0.01593333    -0.56362326    -0.00025789     0.00032674     0.00002066
     6
  Step:     2            Position(A)                                  Velocity(au)
C        -0.04769901     0.02112527     0.03060660     0.00002669    -0.00007840    -0.00051240
N        -0.04364512    -0.04987038     1.28296907    -0.00009372     0.00006954     0.00040777
H         0.95643729    -0.00306358    -0.49170259    -0.00040239     0.00039446     0.00011257
H         0.83438745    -0.17443348     1.90300569     0.00138072    -0.00053283     0.00117341
H        -0.85609924    -0.06868547     1.85114049     0.00029004    -0.00020968    -0.00079749
H        -0.97277126     0.01769132    -0.56370199    -0.00028400     0.00031594    -0.00004931
     6
  Step:     3            Position(A)                                  Velocity(au)
C        -0.04753188     0.02071026     0.02758284     0.00003421    -0.00007343    -0.00058822
N        -0.04409806    -0.04950384     1.28541060    -0.00007021     0.00006446     0.00048080
H         0.95413466    -0.00088512    -0.49122335    -0.00043464     0.00040110     0.00006004
H         0.84156042    -0.17731979     1.90909167     0.00122682    -0.00051937     0.00104118
H        -0.85503943    -0.06982648     1.84713903     0.00008631    -0.00020777    -0.00065480
H        -0.97439868     0.01939211    -0.56416310    -0.00031049     0.00030542    -0.00011866
     6
  Step:     4            Position(A)                                  Velocity(au)
C        -0.04732420     0.02032084     0.02416276     0.00004134    -0.00006895    -0.00065571
N        -0.04441431    -0.04916428     1.28823621    -0.00004409     0.00005961     0.00054686
H         0.95167593     0.00133036    -0.49104490    -0.00045820     0.00040731     0.00000261
H         0.84782707    -0.18012307     1.91441169     0.00105040    -0.00050199     0.00089416
H        -0.85515372    -0.07096159     1.84396727    -0.00013550    -0.00020714    -0.00049602
H        -0.97617261     0.02103719    -0.56500192    -0.00033667     0.00029511    -0.00018668
     6
  Step:     5            Position(A)                                  Velocity(au)
C        -0.04707861     0.01995430     0.02039377     0.00004786    -0.00006495    -0.00071388
N        -0.04458147    -0.04885027     1.29140625    -0.00001618     0.00005505     0.00060513
H         0.94911106     0.00358059    -0.49119473    -0.00047205     0.00041297    -0.00005969
H         0.85307686    -0.18282353     1.91889512     0.00085632    -0.00048120     0.00073627
H        -0.85652509    -0.07209749     1.84170077    -0.00036807    -0.00020755    -0.00032655
H        -0.97808983     0.02262768    -0.56620981    -0.00036172     0.00028492    -0.00025256
     6
  Step:     6            Position(A)                                  Velocity(au)
C        -0.04679893     0.01960797     0.01632810     0.00005356    -0.00006143    -0.00076190
N        -0.04459186    -0.04856017     1.29487736     0.00001262     0.00005078     0.00065499
H         0.94649524     0.00586258    -0.49169997    -0.00047537     0.00041790    -0.00012663
H         0.85722502    -0.18540419     1.92249217     0.00064940    -0.00045753     0.00057139
H        -0.85919327    -0.07323946     1.84038345    -0.00060284    -0.00020873    -0.00015257
H        -0.98014247     0.02416418    -0.56777370    -0.00038476     0.00027475    -0.00031543
     6
  Step:     7            Position(A)                                  Velocity(au)
C        -0.04649009     0.01927926     0.01202206     0.00005824    -0.00005837    -0.00079911
N        -0.04444285    -0.04829225     1.29860329     0.00004133     0.00004684     0.00069599
H         0.94388771     0.00817251    -0.49258616    -0.00046758     0.00042196    -0.00019774
H         0.86021251    -0.18785092     1.92517354     0.00043453    -0.00043154     0.00040334
H        -0.86314905    -0.07439096     1.84002430    -0.00083047    -0.00021027     0.00001933
H        -0.98231758     0.02564664    -0.56967574    -0.00040481     0.00026447    -0.00037437
     6
  Step:     8            Position(A)                                  Velocity(au)
C        -0.04615811     0.01896574     0.00753497     0.00006172    -0.00005572    -0.00082510
N        -0.04413707    -0.04804475     1.30253572     0.00006899     0.00004322     0.00072782
H         0.94135018     0.01050568    -0.49387584    -0.00044847     0.00042499    -0.00027227
H         0.86200638    -0.19015269     1.92693032     0.00021668    -0.00040383     0.00023596
H        -0.86833146    -0.07555315     1.84059617    -0.00104152    -0.00021174     0.00018261
H        -0.98459682     0.02707429    -0.57189307    -0.00042089     0.00025396    -0.00042843
     6
  Step:     9            Position(A)                                  Velocity(au)
C        -0.04580988     0.01866516     0.00292805     0.00006386    -0.00005345    -0.00083969
N        -0.04368242    -0.04781588     1.30662509     0.00009466     0.00003993     0.00075037
H         0.93894485     0.01285663    -0.49558704    -0.00041823     0.00042687    -0.00034921
H         0.86260067    -0.19230185     1.92777418     0.00000100    -0.00037510     0.00007311
H        -0.87462841    -0.07672475     1.84203703    -0.00122710    -0.00021272     0.00033124
H        -0.98695649     0.02844570    -0.57439779    -0.00043209     0.00024311    -0.00047674
     6
  Step:    10            Position(A)                                  Velocity(au)
C        -0.04545299     0.01837551    -0.00173702     0.00006458    -0.00005153    -0.00084304
N        -0.04309180    -0.04760387     1.31082138     0.00011748     0.00003696     0.00076371
H         0.93673204     0.01521921    -0.49773190    -0.00037756     0.00042753    -0.00042734
H         0.86201741    -0.19429464     1.92773757    -0.00020727    -0.00034614    -0.00008138
H        -0.88188132    -0.07790200     1.84425372    -0.00137966    -0.00021277     0.00046011
H        -0.98936798     0.02975879    -0.57715725    -0.00043763     0.00023185    -0.00051852
     6
  Step:    11            Position(A)                                  Velocity(au)
C        -0.04509540     0.01809500    -0.00639968     0.00006385    -0.00004992    -0.00083566
N        -0.04238253    -0.04740692     1.31507507     0.00013675     0.00003434     0.00076815
H         0.93476734     0.01758695    -0.50031534    -0.00032769     0.00042698    -0.00050528
H         0.86030740    -0.19613168     1.92687374    -0.00040291    -0.00031782    -0.00022381
H        -0.88989351    -0.07907890     1.84712787    -0.00149361    -0.00021156     0.00056549
H        -0.99179858     0.03101100    -0.58013484    -0.00043695     0.00022013    -0.00055321
     6
  Step:    12            Position(A)                                  Velocity(au)
C        -0.04474505     0.01782205    -0.01100249     0.00006173    -0.00004858    -0.00081844
N        -0.04157559    -0.04722317     1.31933836     0.00015193     0.00003207     0.00076425
H         0.93309876     0.01995348    -0.50333425    -0.00027030     0.00042537    -0.00058161
H         0.85755005    -0.19781855     1.92525603    -0.00058101    -0.00029112    -0.00035079
H        -0.89844194    -0.08024773     1.85052367    -0.00156583    -0.00020888     0.00064522
H        -0.99421278     0.03219953    -0.58329108    -0.00042979     0.00020796    -0.00058056
     6
  Step:    13            Position(A)                                  Velocity(au)
C        -0.04440949     0.01755524    -0.01549315     0.00005835    -0.00004750    -0.00079265
N        -0.04069448    -0.04705065     1.32356643     0.00016273     0.00003018     0.00075283
H         0.93176409     0.02231314    -0.50677744    -0.00020750     0.00042293    -0.00065506
H         0.85385192    -0.19936621     1.92297624    -0.00073725    -0.00026705    -0.00045945
H        -0.90729106    -0.08139968     1.85429670    -0.00159579    -0.00020461     0.00069877
H        -0.99657386     0.03332159    -0.58658524    -0.00041619     0.00019541    -0.00060063
     6
  Step:    14            Position(A)                                  Velocity(au)
C        -0.04409545     0.01729330    -0.01982632     0.00005389    -0.00004666    -0.00075986
N        -0.03976408    -0.04688723     1.32771890     0.00016907     0.00002871     0.00073497
H         0.93078882     0.02466156    -0.51062636    -0.00014158     0.00042002    -0.00072461
H         0.84934300    -0.20079140     1.92014142    -0.00086812    -0.00024668    -0.00054761
H        -0.91620631    -0.08252542     1.85830244    -0.00158544    -0.00019880     0.00072718
H        -0.99884580     0.03437481    -0.58997731    -0.00039650     0.00018260    -0.00061388
     6
  Step:    15            Position(A)                                  Velocity(au)
C        -0.04380858     0.01703499    -0.02396535     0.00004858    -0.00004607    -0.00072178
N        -0.03880944    -0.04673058     1.33176113     0.00017106     0.00002769     0.00071188
H         0.93018549     0.02699627    -0.51485669    -0.00007482     0.00041708    -0.00078965
H         0.84417261    -0.20211659     1.91687055    -0.00097109    -0.00023099    -0.00061380
H        -0.92496833    -0.08361620     1.86240456    -0.00153880    -0.00019162     0.00073271
H        -1.00099472     0.03535751    -0.59342989    -0.00037130     0.00016968    -0.00062109
     6
  Step:    16            Position(A)                                  Velocity(au)
C        -0.04355320     0.01677907    -0.02788302     0.00004265    -0.00004573    -0.00068016
N        -0.03785466    -0.04657810     1.33566510     0.00016898     0.00002719     0.00068484
H         0.92995370     0.02931716    -0.51944060    -0.00000933     0.00041461    -0.00084993
H         0.83850349    -0.20336978     1.91329003    -0.00104463    -0.00022095    -0.00065733
H        -0.93338284    -0.08466434     1.86648113    -0.00146114    -0.00018331     0.00071845
H        -1.00299033     0.03626886    -0.59691005    -0.00034131     0.00015682    -0.00062325
     6
  Step:    17            Position(A)                                  Velocity(au)
C        -0.04333230     0.01652425    -0.03156156     0.00003804    -0.00004327    -0.00068542
N        -0.03692221    -0.04642695     1.33940966     0.00016205     0.00002550     0.00069460
H         0.93008130     0.03162679    -0.52434895     0.00001697     0.00044840    -0.00086978
H         0.83250592    -0.20458418     1.90952931    -0.00110590    -0.00025689    -0.00070377
H        -0.94128674    -0.08566348     1.87042839    -0.00133390    -0.00013340     0.00067405
H        -1.00480661     0.03710891    -0.60039050    -0.00028239     0.00010316    -0.00058545
     6
  Step:    18            Position(A)                                  Velocity(au)
C        -0.04312830     0.01629583    -0.03553808     0.00003494    -0.00003860    -0.00073781
N        -0.03604486    -0.04629331     1.34342268     0.00015042     0.00002265     0.00074144
H         0.93014325     0.03432510    -0.52915466     0.00000405     0.00050887    -0.00085050
H         0.82615233    -0.20623885     1.90542997    -0.00115281    -0.00032921    -0.00075310
H        -0.94828045    -0.08615422     1.87400924    -0.00116158    -0.00005185     0.00060124
H        -1.00614420     0.03742103    -0.60344859    -0.00019625     0.00001750    -0.00050930
     6
  Step:    19            Position(A)                                  Velocity(au)
C        -0.04294222     0.01609324    -0.03979939     0.00003172    -0.00003413    -0.00078676
N        -0.03524276    -0.04617408     1.34768809     0.00013536     0.00002044     0.00078434
H         0.93012649     0.03730852    -0.53384501    -0.00001029     0.00055474    -0.00082985
H         0.81963449    -0.20825994     1.90112074    -0.00116457    -0.00039273    -0.00077836
H        -0.95425614    -0.08624234     1.87714137    -0.00097353     0.00001449     0.00051709
H        -1.00699777     0.03730428    -0.60607700    -0.00011058    -0.00005385    -0.00043335
     6
  Step:    20            Position(A)                                  Velocity(au)
C        -0.04277427     0.01591495    -0.04431877     0.00002853    -0.00002995    -0.00083070
N        -0.03453423    -0.04606518     1.35217639     0.00011716     0.00001901     0.00082169
H         0.93002846     0.04051627    -0.53841627    -0.00002459     0.00059154    -0.00080901
H         0.81315507    -0.21062193     1.89674310    -0.00113967    -0.00045386    -0.00077799
H        -0.95914562    -0.08599256     1.87978019    -0.00077594     0.00007093     0.00042708
H        -1.00737835     0.03682002    -0.60828500    -0.00002786    -0.00011582    -0.00035991
     6
  Step:    21            Position(A)                                  Velocity(au)
C        -0.04262402     0.01575915    -0.04906571     0.00002546    -0.00002610    -0.00086911
N        -0.03393584    -0.04596205     1.35685388     0.00009614     0.00001840     0.00085289
H         0.92985223     0.04390702    -0.54286940    -0.00003800     0.00062202    -0.00078860
H         0.80692161    -0.21332269     1.89244237    -0.00107760    -0.00051596    -0.00075168
H        -0.96291163    -0.08545112     1.88190536    -0.00057383     0.00012015     0.00033500
H        -1.00730859     0.03601235    -0.61009170     0.00005003    -0.00017090    -0.00029046
     6
  Step:    22            Position(A)                                  Velocity(au)
C        -0.04249045     0.01562396    -0.05400850     0.00002262    -0.00002257    -0.00090177
N        -0.03346233    -0.04585999     1.36168529     0.00007265     0.00001865     0.00087770
H         0.92960480     0.04745118    -0.54720839    -0.00004990     0.00064789    -0.00076897
H         0.80114083    -0.21637441     1.88836254    -0.00097901    -0.00058108    -0.00070008
H        -0.96554323    -0.08465304     1.88351511    -0.00037165     0.00016372     0.00024388
H        -1.00682052     0.03491462    -0.61152330     0.00012148    -0.00022077    -0.00022616
     6
  Step:    23            Position(A)                                  Velocity(au)
C        -0.04237199     0.01550763    -0.05911496     0.00002009    -0.00001934    -0.00092857
N        -0.03312624    -0.04575418     1.36663488     0.00004712     0.00001975     0.00089603
H         0.92929619     0.05112699    -0.55143876    -0.00005979     0.00067021    -0.00075032
H         0.79601160    -0.21979813     1.88464077    -0.00084594    -0.00065030    -0.00062478
H        -0.96705330    -0.08362661     1.88462317    -0.00017356     0.00020266     0.00015632
H        -1.00595481     0.03355211    -0.61261195     0.00018501    -0.00026653    -0.00016795
     6
  Step:    24            Position(A)                                  Velocity(au)
C        -0.04226662     0.01540848    -0.06435272     0.00001796    -0.00001640    -0.00094941
N        -0.03293738    -0.04563994     1.37166704     0.00002011     0.00002166     0.00090788
H         0.92893871     0.05491729    -0.55556700    -0.00006731     0.00068963    -0.00073273
H         0.79171705    -0.22361875     1.88140252    -0.00068203    -0.00072394    -0.00052840
H        -0.96747673    -0.08239542     1.88525650     0.00001646     0.00023762     0.00007460
H        -1.00475949     0.03194544    -0.61339426     0.00023930    -0.00030890    -0.00011662
     6
  Step:    25            Position(A)                                  Velocity(au)
C        -0.04217192     0.01532498    -0.06968928     0.00001630    -0.00001371    -0.00096424
N        -0.03290220    -0.04551290     1.37674675    -0.00000770     0.00002431     0.00091339
H         0.92854646     0.05880797    -0.55959978    -0.00007218     0.00070657    -0.00071618
H         0.78841524    -0.22786122     1.87875550    -0.00049270    -0.00080159    -0.00041467
H        -0.96686997    -0.08098003     1.88545406     0.00019446     0.00026902     0.00000085
H        -1.00328954     0.03011165    -0.61391083     0.00028312    -0.00034838    -0.00007285
     6
  Step:    26            Position(A)                                  Velocity(au)
C        -0.04208505     0.01525573    -0.07509208     0.00001518    -0.00001127    -0.00097307
N        -0.03302312    -0.04536917     1.38184002    -0.00003551     0.00002759     0.00091277
H         0.92813476     0.06278680    -0.56354356    -0.00007422     0.00072128    -0.00070063
H         0.78622957    -0.23254661     1.87678407    -0.00028503    -0.00088223    -0.00028825
H        -0.96531085    -0.07939918     1.88526597     0.00035653     0.00029711    -0.00006296
H        -1.00160624     0.02806529    -0.61420569     0.00031540    -0.00038534    -0.00003723
     6
  Step:    27            Position(A)                                  Velocity(au)
C        -0.04200287     0.01519949    -0.08052877     0.00001463    -0.00000903    -0.00097598
N        -0.03329782    -0.04520552     1.38691453    -0.00006244     0.00003137     0.00090639
H         0.92771964     0.06684265    -0.56740435    -0.00007336     0.00073394    -0.00068599
H         0.78524023    -0.23768876     1.87554456    -0.00006747    -0.00096426    -0.00015453
H        -0.96289841    -0.07767045     1.88475267     0.00049884     0.00032204    -0.00011505
H        -0.99977618     0.02581916    -0.61432554     0.00033531    -0.00042003    -0.00001016
     6
  Step:    28            Position(A)                                  Velocity(au)
C        -0.04192198     0.01515513    -0.08596749     0.00001472    -0.00000698    -0.00097312
N        -0.03371891    -0.04501960     1.39193999    -0.00008754     0.00003548     0.00089469
H         0.92731727     0.07096511    -0.57118755    -0.00006963     0.00074465    -0.00067218
H         0.78547780    -0.24329146     1.87506213     0.00015068    -0.00104569    -0.00001928
H        -0.95975222    -0.07581073     1.88398401     0.00061779     0.00034392    -0.00015379
H        -0.99786989     0.02338484    -0.61431896     0.00034231    -0.00045264     0.00000810
     6
  Step:    29            Position(A)                                  Velocity(au)
C        -0.04183879     0.01512164    -0.09137739     0.00001544    -0.00000511    -0.00096478
N        -0.03427377    -0.04481002     1.39688874    -0.00010990     0.00003973     0.00087821
H         0.92694341     0.07514426    -0.57489793    -0.00006315     0.00075355    -0.00065911
H         0.78692003    -0.24934642     1.87532964     0.00035991    -0.00112427     0.00011177
H        -0.95601115    -0.07383638     1.88303815     0.00071014     0.00036285    -0.00017786
H        -0.99596006     0.02077298    -0.61423529     0.00033622    -0.00048333     0.00001752
     6
  Step:    30            Position(A)                                  Velocity(au)
C        -0.04174970     0.01509814    -0.09672920     0.00001681    -0.00000339    -0.00095132
N        -0.03494476    -0.04457643     1.40173613    -0.00012866     0.00004394     0.00085759
H         0.92661283     0.07937063    -0.57853966    -0.00005417     0.00076075    -0.00064672
H         0.78949241    -0.25583224     1.87630892     0.00055124    -0.00119772     0.00023336
H        -0.95183092    -0.07176328     1.88200001     0.00077327     0.00037896    -0.00018628
H        -0.99411950     0.01799352    -0.61412357     0.00031727    -0.00051225     0.00001830
     6
  Step:    31            Position(A)                                  Velocity(au)
C        -0.04165117     0.01508382    -0.10199576     0.00001879    -0.00000180    -0.00093326
N        -0.03570986    -0.04431953     1.40646085    -0.00014316     0.00004794     0.00083348
H         0.92633883     0.08363548    -0.58211641    -0.00004297     0.00076643    -0.00063497
H         0.79307285    -0.26271496     1.87793432     0.00071694    -0.00126396     0.00034107
H        -0.94738012    -0.06960659     1.88095896     0.00080543     0.00039238    -0.00017852
H        -0.99241876     0.01505545    -0.61403104     0.00028613    -0.00053959     0.00001089
     6
  Step:    32            Position(A)                                  Velocity(au)
C        -0.04153985     0.01507801    -0.10715269     0.00002133    -0.00000033    -0.00091118
N        -0.03654371    -0.04404095     1.41104514    -0.00015291     0.00005157     0.00080658
H         0.92613289     0.08793087    -0.58563154    -0.00002995     0.00077083    -0.00062382
H         0.79749990    -0.26994933     1.88011829     0.00085100    -0.00132129     0.00043159
H        -0.94283519    -0.06738083     1.88000616     0.00080577     0.00040336    -0.00015451
H        -0.99092380     0.01196686    -0.61400189     0.00024382    -0.00056558    -0.00000405
     6
  Step:    33            Position(A)                                  Velocity(au)
C        -0.04141274     0.01508010    -0.11217884     0.00002438     0.00000103    -0.00088575
N        -0.03741872    -0.04374317     1.41547488    -0.00015765     0.00005471     0.00077757
H         0.92600414     0.09225007    -0.58908805    -0.00001553     0.00077422    -0.00061327
H         0.80258341    -0.27748132     1.88275765     0.00094946    -0.00136850     0.00050283
H        -0.93837504    -0.06509877     1.87923216     0.00077459     0.00041223    -0.00011471
H        -0.98969394     0.00873470    -0.61407629     0.00019176    -0.00059046    -0.00002569
     6
  Step:    34            Position(A)                                  Velocity(au)
C        -0.04126728     0.01508958    -0.11705667     0.00002783     0.00000231    -0.00085766
N        -0.03830647    -0.04342926     1.41973957    -0.00015737     0.00005726     0.00074713
H         0.92595922     0.09658777    -0.59248884    -0.00000017     0.00077688    -0.00060332
H         0.80811623    -0.28525123     1.88574067     0.00101043    -0.00140495     0.00055392
H        -0.93417412    -0.06277153     1.87872352     0.00071337     0.00041932    -0.00006013
H        -0.98877968     0.00536463    -0.61428917     0.00013167    -0.00061451    -0.00005302
     6
  Step:    35            Position(A)                                  Velocity(au)
C        -0.04110145     0.01510599    -0.12177251     0.00003159     0.00000352    -0.00082761
N        -0.03917908    -0.04310268     1.42383224    -0.00015230     0.00005919     0.00071587
H         0.92600219     0.10094021    -0.59583674     0.00001566     0.00077915    -0.00059397
H         0.81388599    -0.29319691     1.88895368     0.00103403    -0.00143055     0.00058507
H        -0.93039539    -0.06040826     1.87855954     0.00062478     0.00042504     0.00000767
H        -0.98822105     0.00186084    -0.61466937     0.00006553    -0.00063803    -0.00008491
     6
  Step:    36            Position(A)                                  Velocity(au)
C        -0.04091388     0.01512895    -0.12631644     0.00003553     0.00000466    -0.00079625
N        -0.04001046    -0.04276706     1.42774911    -0.00014283     0.00006047     0.00068432
H         0.92613449     0.10530536    -0.59913451     0.00003153     0.00078133    -0.00058521
H         0.81968550    -0.30125698     1.89228680     0.00102195    -0.00144570     0.00059740
H        -0.92718373    -0.05801596     1.87880933     0.00051256     0.00042977     0.00008667
H        -0.98804653    -0.00177399    -0.61523915    -0.00000459    -0.00066130    -0.00012017
     6
  Step:    37            Position(A)                                  Velocity(au)
C        -0.04070386     0.01515815    -0.13068207     0.00003955     0.00000575    -0.00076417
N        -0.04077730    -0.04242601     1.43148928    -0.00012954     0.00006114     0.00065293
H         0.92635504     0.10968280    -0.60238487     0.00004701     0.00078369    -0.00057701
H         0.82532096    -0.30937337     1.89563820     0.00097710    -0.00145117     0.00059259
H        -0.92466018    -0.05559942     1.87952929     0.00038135     0.00043390     0.00017443
H        -0.98827245    -0.00553868    -0.61601394    -0.00007655    -0.00068459    -0.00015760
     6
  Step:    38            Position(A)                                  Velocity(au)
C        -0.04047139     0.01519330    -0.13486618     0.00004351     0.00000680    -0.00073183
N        -0.04145984    -0.04208298     1.43505436    -0.00011310     0.00006123     0.00062210
H         0.92666042     0.11407358    -0.60559029     0.00006169     0.00078647    -0.00056930
H         0.83061761    -0.31749322     1.89891695     0.00090315    -0.00144798     0.00057273
H        -0.92291702    -0.05316133     1.88076093     0.00023654     0.00043778     0.00026821
H        -0.98890296    -0.00943336    -0.61700246    -0.00014822    -0.00070810    -0.00019605
     6
  Step:    39            Position(A)                                  Velocity(au)
C        -0.04021714     0.01523416    -0.13886811     0.00004730     0.00000780    -0.00069962
N        -0.04204239    -0.04174111     1.43844791    -0.00009423     0.00006079     0.00059210
H         0.92704503     0.11847998    -0.60875291     0.00007520     0.00078982    -0.00056199
H         0.83542339    -0.32557012     1.90204460     0.00080425    -0.00143729     0.00054007
H        -0.92201433    -0.05070250     1.88252942     0.00008397     0.00044171     0.00036504
H        -0.98993039    -0.01345927    -0.61820693    -0.00021759    -0.00073199    -0.00023441
     6
  Step:    40            Position(A)                                  Velocity(au)
C        -0.03994248     0.01528051    -0.14268921     0.00005080     0.00000877    -0.00066783
N        -0.04251352    -0.04140318     1.44167507    -0.00007370     0.00005990     0.00056315
H         0.92750131     0.12290517    -0.61187431     0.00008722     0.00079385    -0.00055494
H         0.83961061    -0.33356472     1.90495588     0.00068469    -0.00142031     0.00049690
H        -0.92197810    -0.04822220     1.88484277    -0.00007030     0.00044591     0.00046188
H        -0.99133596    -0.01761836    -0.61962358    -0.00028276    -0.00075635    -0.00027165
     6
  Step:    41            Position(A)                                  Velocity(au)
C        -0.03964938     0.01533214    -0.14633238     0.00005390     0.00000969    -0.00063664
N        -0.04286614    -0.04107156     1.44474215    -0.00005225     0.00005863     0.00053539
H         0.92801991     0.12735285    -0.61495541     0.00009745     0.00079862    -0.00054800
H         0.84307611    -0.34144489     1.90759837     0.00054870    -0.00139827     0.00044542
H        -0.92280003    -0.04571859     1.88769183    -0.00022027     0.00045053     0.00055572
H        -0.99309077    -0.02191298    -0.62124320    -0.00034203    -0.00078119    -0.00030687
     6
  Step:    42            Position(A)                                  Velocity(au)
C        -0.03934034     0.01538882    -0.14980150     0.00005651     0.00001058    -0.00060620
N        -0.04309727    -0.04074815     1.44765622    -0.00003060     0.00005706     0.00050893
H         0.92858994     0.13182697    -0.61799628     0.00010561     0.00080411    -0.00054100
H         0.84574045    -0.34918549     1.90993190     0.00040039    -0.00137233     0.00038772
H        -0.92443883    -0.04318910     1.89105096    -0.00036031     0.00045565     0.00064371
H        -0.99515696    -0.02634549    -0.62305178    -0.00039390    -0.00080647    -0.00033925
     6
  Step:    43            Position(A)                                  Velocity(au)
C        -0.03901838     0.01545031    -0.15310110     0.00005855     0.00001143    -0.00057655
N        -0.04320778    -0.04043442     1.45042480    -0.00000938     0.00005527     0.00048380
H         0.92919911     0.13633142    -0.62099611     0.00011147     0.00081028    -0.00053376
H         0.84754679    -0.35676815     1.91192765     0.00024363    -0.00134365     0.00032575
H        -0.92682315    -0.04063084     1.89487944    -0.00048537     0.00046129     0.00072333
H        -0.99748904    -0.03091793    -0.62503126    -0.00043712    -0.00083209    -0.00036814
     6
  Step:    44            Position(A)                                  Velocity(au)
C        -0.03868686     0.01551637    -0.15623598     0.00005997     0.00001222    -0.00054774
N        -0.04320197    -0.04013137     1.45305555     0.00001082     0.00005333     0.00046000
H         0.92983401     0.14086986    -0.62395316     0.00011485     0.00081705    -0.00052611
H         0.84845944    -0.36418095     1.91356729     0.00008209    -0.00131333     0.00026127
H        -0.92985564    -0.03804101     1.89912344    -0.00059122     0.00046739     0.00079240
H        -1.00003534    -0.03563179    -0.62716026    -0.00047070    -0.00085791    -0.00039297
     6