    14
  Step:   600            Position(A)                                  Velocity(au)
C        -4.67176092    -0.58127136    -0.84414462    -0.00011336     0.00007049    -0.00019812
C        -4.58311578    -0.51168482     0.47323419     0.00079722    -0.00001775     0.00005467
H        -4.67947044     0.39087476    -1.38353440     0.00119987    -0.00121682    -0.00288558
H        -5.02261080    -1.29359160    -1.57164820    -0.00309644    -0.00026819     0.00053134
H        -4.57735634    -1.35979858     1.18532112     0.00296878     0.00040293     0.00037971
C        -4.16792483     0.78763274     0.91659284    -0.00000096    -0.00014721     0.00033874
C        -3.24612995     1.53834955     0.29576837    -0.00046784     0.00089665     0.00005875
H        -5.03083938     1.37140898     1.32041913    -0.00268978    -0.00134379    -0.00165526
H        -3.53844891     2.53869066     0.06718631     0.00057122     0.00082497     0.00030726
C        -2.00962597     1.16137586    -0.41512783     0.00034593    -0.00041874    -0.00004103
H        -1.88661436     1.53267515    -1.42928681    -0.00025492     0.00283916    -0.00023119
N        -0.84492495     0.69454998     0.08059921    -0.00033010    -0.00033787     0.00013764
H         0.07091594     0.66025100    -0.47576659    -0.00095253    -0.00209620     0.00010204
H        -0.99358235     0.61774238     1.10197790     0.00015606     0.00098413    -0.00099917
