 Fermi distribution function

Calculation with static geometry


********************************************************************************
 iSCC Total electronic   Diff electronic      SCC error    
   14   -0.52468302E+01   -0.55244698E-12    0.40700820E-09
********************************************************************************

 Total charge:     1.00000000

 Atomic gross charges (e)
 Atom           Charge
    1       0.29469562
    2      -0.18425355
    3       0.18434758
    4       0.26331051
    5       0.26021695
    6       0.18168289

Nr. of electrons (up):     12.00000000
Atom populations (up)
 Atom       Population
    1       3.70530438
    2       5.18425355
    3       0.81565242
    4       0.73668949
    5       0.73978305
    6       0.81831711

l-shell populations (up)
 Atom Sh.   l       Population
    1   1   0       1.42233220
    1   2   1       2.28297219
    2   1   0       1.53680941
    2   2   1       3.64744414
    3   1   0       0.81565242
    4   1   0       0.73668949
    5   1   0       0.73978305
    6   1   0       0.81831711

Orbital populations (up)
 Atom Sh.   l   m       Population  Label
    1   1   0   0       1.42233220  s
    1   2   1  -1       0.40600141  p_y
    1   2   1   0       0.86636516  p_z
    1   2   1   1       1.01060561  p_x
    2   1   0   0       1.53680941  s
    2   2   1  -1       1.34749803  p_y
    2   2   1   0       1.11885852  p_z
    2   2   1   1       1.18108759  p_x
    3   1   0   0       0.81565242  s
    4   1   0   0       0.73668949  s
    5   1   0   0       0.73978305  s
    6   1   0   0       0.81831711  s

Fermi level:                        -0.5222492481 H          -14.2111 eV
Band energy:                        -8.6399615462 H         -235.1053 eV
TS:                                  0.0000000000 H            0.0000 eV
Band free energy (E-TS):            -8.6399615462 H         -235.1053 eV
Extrapolated E(0K):                 -8.6399615462 H         -235.1053 eV
Input / Output electrons (q):     12.0000000000     12.0000000000

Energy H0:                          -5.3834216603 H         -146.4904 eV
Energy SCC:                          0.1365914358 H            3.7168 eV
Total Electronic energy:            -5.2468302245 H         -142.7735 eV
Repulsive energy:                    0.1293541226 H            3.5199 eV
Total energy:                       -5.1174761019 H         -139.2536 eV
Extrapolated to 0:                  -5.1174761019 H         -139.2536 eV
Total Mermin free energy:           -5.1174761019 H         -139.2536 eV
Force related energy:               -5.1174761019 H         -139.2536 eV

SCC converged

Excitation Energy:                   0.0917986065 H            2.4980 eV

Total Forces
    1      0.011087051082     -0.009638431798      0.023907718389
    2     -0.013108046071     -0.003572233993     -0.029806542631
    3     -0.003482081179      0.013307081952     -0.001442547644
    4     -0.003046017230     -0.007195617825      0.004461538220
    5      0.011973766747      0.010736097551      0.002714727490
    6     -0.003424673349     -0.003636895886      0.000165106176

Maximal derivative component:        0.298065E-01 au


