     6
  Step:     0            Position(A)                                  Velocity(au)
C        -0.03951783     0.03155055     0.03015677    -0.00009188     0.00002167     0.00023082
N        -0.03281618    -0.07218407     1.28496509     0.00023054    -0.00002538    -0.00018312
H         0.88996905    -0.08186841    -0.53487681    -0.00044614    -0.00001253     0.00017598
H         0.74404770    -0.09264156     1.89922975    -0.00180648    -0.00001726    -0.00121384
H        -0.92258905     0.09519977     1.83356525    -0.00101243     0.00040818     0.00044947
H        -0.99744399     0.03666976    -0.52155335     0.00115620    -0.00028394     0.00038262
     6
  Step:     1            Position(A)                                  Velocity(au)
C        -0.04002697     0.03169893     0.03122429    -0.00009402     0.00003275     0.00015895
N        -0.03160853    -0.07234508     1.28414509     0.00020842    -0.00003338    -0.00011683
H         0.88771269    -0.08197295    -0.53417829    -0.00037503    -0.00002612     0.00007812
H         0.73468400    -0.09272066     1.89293530    -0.00158989    -0.00001252    -0.00106521
H        -0.92794146     0.09745000     1.83592727    -0.00093352     0.00041248     0.00040664
H        -0.99118677     0.03507232    -0.51964507     0.00112252    -0.00030024     0.00030993
     6
  Step:     2            Position(A)                                  Velocity(au)
C        -0.04054648     0.03190885     0.03189584    -0.00009556     0.00004411     0.00008643
N        -0.03053590    -0.07254927     1.28368683     0.00018139    -0.00004115    -0.00005121
H         0.88586589    -0.08215422    -0.53402205    -0.00029710    -0.00004047    -0.00002174
H         0.72665264    -0.09277855     1.88757530    -0.00132124    -0.00000942    -0.00087360
H        -0.93280274     0.09971272     1.83801428    -0.00083428     0.00041291     0.00035006
H        -0.98516250     0.03338482    -0.51816244     0.00107070    -0.00031681     0.00022695
     6
  Step:     3            Position(A)                                  Velocity(au)
C        -0.04107267     0.03218163     0.03217011    -0.00009647     0.00005573     0.00001414
N        -0.02962367    -0.07279539     1.28358471     0.00015029    -0.00004875     0.00001309
H         0.88446164    -0.08241585    -0.53441623    -0.00021431    -0.00005544    -0.00012262
H         0.72022614    -0.09282378     1.88337584    -0.00100789    -0.00000777    -0.00064451
H        -0.93707066     0.10196836     1.83975785    -0.00071892     0.00041056     0.00028260
H        -0.97947050     0.03160563    -0.51716161     0.00100217    -0.00033410     0.00013407
     6
  Step:     4            Position(A)                                  Velocity(au)
C        -0.04160160     0.03251844     0.03205050    -0.00009667     0.00006761    -0.00005735
N        -0.02889212    -0.07308243     1.28383004     0.00011598    -0.00005622     0.00007582
H         0.88352184    -0.08276061    -0.53536323    -0.00012841    -0.00007090    -0.00022374
H         0.71562869    -0.09286350     1.88052593    -0.00065869    -0.00000724    -0.00038493
H        -0.94066604     0.10420323     1.84110525    -0.00059101     0.00040636     0.00020677
H        -0.97420117     0.02973059    -0.51669600     0.00091823    -0.00035255     0.00003156
     6
  Step:     5            Position(A)                                  Velocity(au)
C        -0.04212903     0.03292043     0.03154346    -0.00009609     0.00007974    -0.00012763
N        -0.02835625    -0.07340978     1.28441327     0.00007938    -0.00006366     0.00013703
H         0.88305847    -0.08319056    -0.53686116    -0.00004097    -0.00008671    -0.00032447
H         0.71302832    -0.09290292     1.87916952    -0.00028381    -0.00000745    -0.00010323
H        -0.94352894     0.10640883     1.84201738    -0.00045341     0.00040109     0.00012474
H        -0.96943652     0.02775311    -0.51681672     0.00082003    -0.00037254    -0.00008034
     6
  Step:     6            Position(A)                                  Velocity(au)
C        -0.04265034     0.03338875     0.03065746    -0.00009462     0.00009211    -0.00019641
N        -0.02802571    -0.07377720     1.28532560     0.00004141    -0.00007110     0.00019691
H         0.88307466    -0.08370697    -0.53890466     0.00004650    -0.00010272    -0.00042417
H         0.71253105    -0.09294485     1.87939928     0.00010533    -0.00000794     0.00019104
H        -0.94561471     0.10858085     1.84246675    -0.00030844     0.00039533     0.00003841
H        -0.96525110     0.02566458    -0.51757286     0.00070858    -0.00039429    -0.00020127
     6
  Step:     7            Position(A)                                  Velocity(au)
C        -0.04316045     0.03392446     0.02940251    -0.00009215     0.00010465    -0.00026330
N        -0.02790480    -0.07418476     1.28655974     0.00000306    -0.00007856     0.00025569
H         0.88356532    -0.08431023    -0.54148485     0.00013246    -0.00011870    -0.00052196
H         0.71417642    -0.09298952     1.88125199     0.00049616    -0.00000824     0.00048727
H        -0.94689109     0.11071816     1.84243601    -0.00015817     0.00038947    -0.00005044
H        -0.96171257     0.02345510    -0.51901064     0.00058499    -0.00041786    -0.00033047
     6
  Step:     8            Position(A)                                  Velocity(au)
C        -0.04365371     0.03452828     0.02779040    -0.00008854     0.00011724    -0.00032776
N        -0.02799236    -0.07463265     1.28810974    -0.00003462    -0.00008603     0.00031337
H         0.88451704    -0.08499949    -0.54458821     0.00021521    -0.00013434    -0.00061659
H         0.71793367    -0.09303455     1.88470506     0.00087506    -0.00000786     0.00077398
H        -0.94733695     0.11282175     1.84191750    -0.00000478     0.00038372    -0.00013986
H        -0.95888128     0.02111454    -0.52117135     0.00045065    -0.00044304    -0.00046656
     6
  Step:     9            Position(A)                                  Velocity(au)
C        -0.04412393     0.03520021     0.02583578    -0.00008368     0.00012963    -0.00038893
N        -0.02828156    -0.07512091     1.28996980    -0.00007051    -0.00009340     0.00036962
H         0.88590723    -0.08577217    -0.54819454     0.00029272    -0.00014921    -0.00070625
H         0.72369881    -0.09307509     1.88967440     0.00122757    -0.00000641     0.00103915
H        -0.94694315     0.11489384     1.84091407     0.00014899     0.00037817    -0.00022755
H        -0.95680854     0.01863390    -0.52408777     0.00030763    -0.00046931    -0.00060718
     6
  Step:    10            Position(A)                                  Velocity(au)
C        -0.04456439     0.03593897     0.02355777    -0.00007749     0.00014148    -0.00044558
N        -0.02875966    -0.07564907     1.29213219    -0.00010339    -0.00010051     0.00042363
H         0.88770267    -0.08662334    -0.55227408     0.00036268    -0.00016275    -0.00078855
H         0.73129297    -0.09310425     1.89601384     0.00153900    -0.00000354     0.00127078
H        -0.94571553     0.11693722     1.83944109     0.00029959     0.00037280    -0.00031073
H        -0.95553341     0.01600712    -0.52777916     0.00015887    -0.00049581    -0.00074884
     6
  Step:    11            Position(A)                                  Velocity(au)
C        -0.04496809     0.03674143     0.02098197    -0.00006996     0.00015237    -0.00049614
N        -0.02940780    -0.07621573     1.29458448    -0.00013205    -0.00010711     0.00047407
H         0.88985794    -0.08754506    -0.55678440     0.00042248    -0.00017430    -0.00086061
H         0.74046347    -0.09311368     1.90351729     0.00179536     0.00000091     0.00145771
H        -0.94367966     0.11895478     1.83752927     0.00044242     0.00036759    -0.00038603
H        -0.95507790     0.01323293    -0.53224500     0.00000843    -0.00052134    -0.00088680
     6
  Step:    12            Position(A)                                  Velocity(au)
C        -0.04532806     0.03760206     0.01814234    -0.00006117     0.00016176    -0.00053882
N        -0.03020099    -0.07681823     1.29730663    -0.00015533    -0.00011294     0.00051914
H         0.89231411    -0.08852582    -0.56166763     0.00046951    -0.00018315    -0.00091924
H         0.75088941    -0.09309432     1.91192482     0.00198459     0.00000697     0.00159063
H        -0.94088652     0.12094947     1.83522761     0.00057192     0.00036256    -0.00044968
H        -0.95544137     0.01031672    -0.53745862    -0.00013858    -0.00054443    -0.00101534
     6
  Step:    13            Position(A)                                  Velocity(au)
C        -0.04563787     0.03851251     0.01508245    -0.00005131     0.00016912    -0.00057179
N        -0.03110850    -0.07745233     1.30026858    -0.00017225    -0.00011769     0.00055682
H         0.89499865    -0.08955032    -0.56684913     0.00050140    -0.00018862    -0.00096139
H         0.76219272    -0.09303738     1.92093305     0.00209798     0.00001447     0.00166317
H        -0.93741774     0.12292445     1.83260570     0.00068196     0.00035781    -0.00049784
H        -0.95659519     0.00727200    -0.54336192    -0.00027628    -0.00056350    -0.00112816
     6
  Step:    14            Position(A)                                  Velocity(au)
C        -0.04589223     0.03946154     0.01185549    -0.00004068     0.00017399    -0.00059355
N        -0.03209487    -0.07811221     1.30342882    -0.00018215    -0.00012109     0.00058510
H         0.89782701    -0.09059970    -0.57223809     0.00051644    -0.00019019    -0.00098463
H         0.77395659    -0.09293518     1.93021126     0.00213157     0.00002310     0.00167294
H        -0.93338841     0.12488361     1.82975390     0.00076657     0.00035358    -0.00052706
H        -0.95847911     0.00412105    -0.54986272    -0.00039864    -0.00057707    -0.00121922
     6
  Step:    15            Position(A)                                  Velocity(au)
C        -0.04608750     0.04043538     0.00852269    -0.00002968     0.00017605    -0.00060322
N        -0.03312152    -0.07879057     1.30673493    -0.00018480    -0.00012297     0.00060247
H         0.90070614    -0.09165225    -0.57773094     0.00051395    -0.00018758    -0.00098770
H         0.78575012    -0.09278208     1.93942185     0.00208715     0.00003241     0.00162220
H        -0.92894580     0.12683212     1.82678084     0.00082092     0.00035024    -0.00053494
H        -0.96100088     0.00089443    -0.55683642    -0.00050027    -0.00058401    -0.00128372
     6
  Step:    16            Position(A)                                  Velocity(au)
C        -0.04622222     0.04141857     0.00514984    -0.00001876     0.00017525    -0.00060091
N        -0.03414919    -0.07947922     1.31012615    -0.00018055    -0.00012332     0.00060832
H         0.90354037    -0.09268495    -0.58321791     0.00049469    -0.00018089    -0.00097114
H         0.79715843    -0.09257495     1.94824443     0.00197279     0.00004190     0.00151806
H        -0.92426261     0.12877711     1.82380726     0.00084236     0.00034839    -0.00052072
H        -0.96404041    -0.00237115    -0.56413319    -0.00057741    -0.00058397    -0.00131923
     6
  Step:    17            Position(A)                                  Velocity(au)
C        -0.04629728     0.04239545     0.00180183    -0.00000832     0.00017191    -0.00058806
N        -0.03514083    -0.08016987     1.31353870    -0.00017030    -0.00012235     0.00060342
H         0.90623900    -0.09367542    -0.58859265     0.00046091    -0.00017065    -0.00093762
H         0.80781468    -0.09231341     1.95640053     0.00180230     0.00005118     0.00137197
H        -0.91952445     0.13072864     1.82095688     0.00083131     0.00034886    -0.00048564
H        -0.96745892    -0.00563691    -0.57159123    -0.00062879    -0.00057760    -0.00132670
     6
  Step:    18            Position(A)                                  Velocity(au)
C        -0.04631585     0.04335212    -0.00146442     0.00000128     0.00016670    -0.00056737
N        -0.03606466    -0.08085541     1.31691316    -0.00015545    -0.00012051     0.00058995
H         0.90872452    -0.09460437    -0.59376391     0.00041610    -0.00015778    -0.00089185
H         0.81742991    -0.09199932     1.96367582     0.00159333     0.00005998     0.00119805
H        -0.91491237     0.13270093     1.81834502     0.00079146     0.00035281    -0.00043280
H        -0.97111275    -0.00886776    -0.57905538    -0.00065601    -0.00056676    -0.00131076
     6
  Step:    19            Position(A)                                  Velocity(au)
C        -0.04628280     0.04427841    -0.00460689     0.00000989     0.00016054    -0.00054233
N        -0.03689670    -0.08153112     1.32020247    -0.00013757    -0.00011841     0.00057114
H         0.91093911    -0.09545760    -0.59866650     0.00036424    -0.00014336    -0.00083964
H         0.82581208    -0.09163585     1.96993314     0.00136389     0.00006831     0.00101035
H        -0.91058456     0.13471382     1.81606817     0.00072880     0.00036164    -0.00036637
H        -0.97486883    -0.01203877    -0.58639692    -0.00066305    -0.00055415    -0.00127869
     6
  Step:    20            Position(A)                                  Velocity(au)
C        -0.04620387     0.04516922    -0.00760265     0.00001751     0.00015435    -0.00051630
N        -0.03762177    -0.08219564     1.32337749    -0.00011809    -0.00011668     0.00055032
H         0.91284710    -0.09622698    -0.60326726     0.00030878    -0.00012838    -0.00078648
H         0.83286697    -0.09122615     1.97511133     0.00112862     0.00007635     0.00081998
H        -0.90666360     0.13679405     1.81419832     0.00064979     0.00037672    -0.00029030
H        -0.97861742    -0.01513984    -0.59352807    -0.00065494    -0.00054258    -0.00123833
     6
  Step:    21            Position(A)                                  Velocity(au)
C        -0.04608469     0.04602445    -0.01044723     0.00002427     0.00014880    -0.00049171
N        -0.03823247    -0.08285098     1.32642758    -0.00009795    -0.00011578     0.00053001
H         0.91443194    -0.09690981    -0.60756305     0.00025197    -0.00011344    -0.00073618
H         0.83857890    -0.09077225     1.97920867     0.00089643     0.00008433     0.00063351
H        -0.90323425     0.13897522     1.81278431     0.00055971     0.00039909    -0.00020747
H        -0.98227735    -0.01817638    -0.60040471    -0.00063607    -0.00053417    -0.00119578
     6
  Step:    22            Position(A)                                  Velocity(au)
C        -0.04593015     0.04684767    -0.01314919     0.00003030     0.00014417    -0.00046961
N        -0.03872671    -0.08350164     1.32935601    -0.00007769    -0.00011592     0.00051140
H         0.91568931    -0.09750660    -0.61157145     0.00019479    -0.00009875    -0.00069039
H         0.84297882    -0.09027487     1.98225741     0.00067095     0.00009248     0.00045342
H        -0.90034995     0.14129588     1.81185798     0.00046199     0.00042914    -0.00011956
H        -0.98579238    -0.02116534    -0.60701663    -0.00060925    -0.00052990    -0.00115418
     6
  Step:    23            Position(A)                                  Velocity(au)
C        -0.04574430     0.04764408    -0.01572290     0.00003572     0.00014046    -0.00044997
N        -0.03910519    -0.08415328     1.33217271    -0.00005749    -0.00011709     0.00049456
H         0.91662020    -0.09801913    -0.61531898     0.00013741    -0.00008423    -0.00064908
H         0.84611636    -0.08973338     1.98430241     0.00045273     0.00010085     0.00027992
H        -0.89804417     0.14379624     1.81144122     0.00035874     0.00046653    -0.00002757
H        -0.98912169    -0.02412931    -0.61337082    -0.00057559    -0.00052972    -0.00111393
     6
  Step:    24            Position(A)                                  Velocity(au)
C        -0.04553058     0.04841876    -0.01818241     0.00004057     0.00013746    -0.00043213
N        -0.03936982    -0.08481137     1.33488792    -0.00003751    -0.00011910     0.00047886
H         0.91722634    -0.09844872    -0.61883173     0.00007978    -0.00006968    -0.00061132
H         0.84804281    -0.08914680     1.98538850     0.00024141     0.00010940     0.00011263
H        -0.89633727     0.14651431     1.81154960     0.00025179     0.00051027     0.00006741
H        -0.99223068    -0.02709054    -0.61947653    -0.00053522    -0.00053292    -0.00107389
     6
  Step:    25            Position(A)                                  Velocity(au)
C        -0.04529219     0.04917571    -0.02053796     0.00004485     0.00013493    -0.00041525
N        -0.03952316    -0.08548035     1.33750850    -0.00001792    -0.00012170     0.00046352
H         0.91750913    -0.09879558    -0.62213076     0.00002195    -0.00005493    -0.00057609
H         0.84880637    -0.08851433     1.98555742     0.00003717     0.00011801    -0.00004840
H        -0.89523853     0.14948200     1.81219239     0.00014341     0.00055893     0.00016391
H        -0.99508550    -0.03006745    -0.62533686    -0.00048798    -0.00053859    -0.00103252
     6
  Step:    26            Position(A)                                  Velocity(au)
C        -0.04503238     0.04991760    -0.02279528     0.00004851     0.00013265    -0.00039863
N        -0.03956884    -0.08616332     1.34003700     0.00000101    -0.00012466     0.00044785
H         0.91747023    -0.09905887    -0.62523131    -0.00003575    -0.00003984    -0.00054255
H         0.84845569    -0.08783582     1.98485079    -0.00015889     0.00012653    -0.00020238
H        -0.89474424     0.15272325     1.81337047     0.00003642     0.00061093     0.00026001
H        -0.99765144    -0.03307352    -0.63094638    -0.00043382    -0.00054589    -0.00098848
     6
  Step:    27            Position(A)                                  Velocity(au)
C        -0.04475454     0.05064587    -0.02495613     0.00005152     0.00013046    -0.00038174
N        -0.03951202    -0.08686204     1.34247218     0.00001889    -0.00012777     0.00043136
H         0.91711293    -0.09923709    -0.62814396    -0.00009280    -0.00002436    -0.00051016
H         0.84704534    -0.08711192     1.98331442    -0.00034476     0.00013482    -0.00034783
H        -0.89483491     0.15625314     1.81507412    -0.00006588     0.00066465     0.00035347
H        -0.99989367    -0.03611766    -0.63629244    -0.00037300    -0.00055413    -0.00094090
     6
  Step:    28            Position(A)                                  Velocity(au)
C        -0.04446226     0.05136111    -0.02701937     0.00005385     0.00012824    -0.00036423
N        -0.03935985    -0.08757709     1.34481007     0.00003531    -0.00013083     0.00041371
H         0.91644333    -0.09932842    -0.63087632    -0.00014854    -0.00000850    -0.00047866
H         0.84464082    -0.08634401     1.98100198    -0.00051780     0.00014276    -0.00048284
H        -0.89547325     0.16007775     1.81728169    -0.00016003     0.00071849     0.00044199
H        -1.00177873    -0.03920511    -0.64135768    -0.00030601    -0.00056281    -0.00088936
     6
  Step:    29            Position(A)                                  Velocity(au)
C        -0.04415932     0.05206325    -0.02898187     0.00005547     0.00012592    -0.00034586
N        -0.03912176    -0.08830804     1.34704480     0.00004983    -0.00013369     0.00039469
H         0.91547115    -0.09933104    -0.63343447    -0.00020219     0.00000771    -0.00044798
H         0.84132224    -0.08553408     1.97797764    -0.00067491     0.00015025    -0.00060521
H        -0.89660371     0.16419450     1.81995929    -0.00024268     0.00077097     0.00052332
H        -1.00327597    -0.04233833    -0.64612230    -0.00023359    -0.00057157    -0.00083374
     6
  Step:    30            Position(A)                                  Velocity(au)
C        -0.04384964     0.05275181    -0.03083921     0.00005635     0.00012345    -0.00032649
N        -0.03880953    -0.08905364     1.34916931     0.00006201    -0.00013623     0.00037419
H         0.91421022    -0.09924330    -0.63582404    -0.00025295     0.00002420    -0.00041816
H         0.83718669    -0.08468454     1.97431772    -0.00081275     0.00015725    -0.00071252
H        -0.89815358     0.16859282     1.82306155    -0.00031084     0.00082072     0.00059546
H        -1.00435864    -0.04551782    -0.65056596    -0.00015661    -0.00058012    -0.00077420
     6
  Step:    31            Position(A)                                  Velocity(au)
C        -0.04353725     0.05342606    -0.03258625     0.00005649     0.00012080    -0.00030609
N        -0.03843722    -0.08981195     1.35117577     0.00007145    -0.00013834     0.00035213
H         0.91267868    -0.09906385    -0.63805081    -0.00030002     0.00004091    -0.00038934
H         0.83234979    -0.08379811     1.97011163    -0.00092783     0.00016372    -0.00080235
H        -0.90003530     0.17325503     1.82653302    -0.00036207     0.00086659     0.00065675
H        -1.00500487    -0.04874264    -0.65466918    -0.00007608    -0.00058830    -0.00071109
     6
  Step:    32            Position(A)                                  Velocity(au)
C        -0.04322616     0.05408514    -0.03421754     0.00005589     0.00011798    -0.00028464
N        -0.03802096    -0.09058053     1.35305587     0.00007780    -0.00013996     0.00032849
H         0.91089889    -0.09879172    -0.64012123    -0.00034264     0.00005777    -0.00036170
H         0.82694607    -0.08287759     1.96546199    -0.00101681     0.00016966    -0.00087238
H        -0.90214981     0.17815752     1.83031022    -0.00039461     0.00090765     0.00070594
H        -1.00519830    -0.05201094    -0.65841440     0.00000692    -0.00059601    -0.00064493
     6
  Step:    33            Position(A)                                  Velocity(au)
C        -0.04292039     0.05472815    -0.03572765     0.00005458     0.00011499    -0.00026221
N        -0.03757862    -0.09135661     1.35480113     0.00008079    -0.00014105     0.00030329
H         0.90889719    -0.09842623    -0.64204268    -0.00038015     0.00007473    -0.00033546
H         0.82112792    -0.08192570     1.96048371    -0.00107666     0.00017512    -0.00092055
H        -0.90439039     0.18327213     1.83432404    -0.00040747     0.00094325     0.00074228
H        -1.00492855    -0.05532044    -0.66178684     0.00009123    -0.00060326    -0.00057633
     6
  Step:    34            Position(A)                                  Velocity(au)
C        -0.04262377     0.05535426    -0.03711145     0.00005271     0.00011149    -0.00027356
N        -0.03712937    -0.09213725     1.35640310     0.00007848    -0.00014424     0.00030220
H         0.90670338    -0.09796700    -0.64382353    -0.00042803     0.00016147    -0.00027653
H         0.81506345    -0.08094488     1.95530223    -0.00111264     0.00013063    -0.00094898
H        -0.90664691     0.18856780     1.83850242    -0.00037092     0.00103003     0.00075582
H        -1.00419140    -0.05866886    -0.66477510     0.00019285    -0.00064624    -0.00047002
     6
  Step:    35            Position(A)                                  Velocity(au)
C        -0.04233856     0.05595884    -0.03874726     0.00005047     0.00010746    -0.00032207
N        -0.03671233    -0.09294880     1.35813685     0.00007076    -0.00014920     0.00032826
H         0.90417257    -0.09664393    -0.64509505    -0.00048677     0.00031297    -0.00018304
H         0.80884647    -0.08048381     1.95000876    -0.00112337     0.00004014    -0.00096037
H        -0.90848466     0.19464172     1.84266690    -0.00028536     0.00115709     0.00074461
H        -1.00279982    -0.06245368    -0.66697496     0.00031074    -0.00071732    -0.00032503
     6
  Step:    36            Position(A)                                  Velocity(au)
C        -0.04206645     0.05654087    -0.04066795     0.00004784     0.00010313    -0.00037351
N        -0.03634797    -0.09378483     1.36002796     0.00005934    -0.00015295     0.00035637
H         0.90132822    -0.09451097    -0.64584471    -0.00053892     0.00045546    -0.00008969
H         0.80265855    -0.08050160     1.94469723    -0.00109884    -0.00004397    -0.00095140
H        -0.90979801     0.20134509     1.84672485    -0.00018237     0.00126032     0.00071809
H        -1.00076004    -0.06658988    -0.66836423     0.00042545    -0.00077528    -0.00017843
     6
  Step:    37            Position(A)                                  Velocity(au)
C        -0.04180994     0.05709849    -0.04287492     0.00004471     0.00009840    -0.00042375
N        -0.03605654    -0.09463899     1.36207505     0.00004435    -0.00015545     0.00038304
H         0.89821705    -0.09161066    -0.64608620    -0.00058094     0.00058990    -0.00000029
H         0.79670334    -0.08096974     1.93949496    -0.00103638    -0.00012307    -0.00091798
H        -0.91050002     0.20856933     1.85060243    -0.00006540     0.00134439     0.00067905
H        -0.99809820    -0.07102123    -0.66894680     0.00053361    -0.00082349    -0.00003427
     6
  Step:    38            Position(A)                                  Velocity(au)
C        -0.04157180     0.05762944    -0.04535590     0.00004108     0.00009322    -0.00047065
N        -0.03585732    -0.09550463     1.36426558     0.00002606    -0.00015668     0.00040663
H         0.89490129    -0.08798486    -0.64584796    -0.00061027     0.00071603     0.00008262
H         0.79119297    -0.08186314     1.93454151    -0.00093571    -0.00019747    -0.00085902
H        -0.91052157     0.21621812     1.85423721     0.00006203     0.00141103     0.00062958
H        -0.99485662    -0.07570020    -0.66874333     0.00063229    -0.00086312     0.00010443
     6
  Step:    39            Position(A)                                  Velocity(au)
C        -0.04135487     0.05813127    -0.04808921     0.00003694     0.00008759    -0.00051270
N        -0.03576778    -0.09637484     1.36658007     0.00000493    -0.00015660     0.00042609
H         0.89145593    -0.08367783    -0.64517081    -0.00062487     0.00083322     0.00015692
H         0.78633671    -0.08315754     1.92997793    -0.00079867    -0.00026723    -0.00077530
H        -0.90981277     0.22420196     1.85757749     0.00019610     0.00146139     0.00057182
H        -0.99109308    -0.08058369    -0.66778986     0.00071870    -0.00089489     0.00023480
     6
  Step:    40            Position(A)                                  Velocity(au)
C        -0.04116183     0.05860152    -0.05104587     0.00003236     0.00008154    -0.00054876
N        -0.03580259    -0.09724262     1.36899436    -0.00001843    -0.00015524     0.00044079
H         0.88796652    -0.07873783    -0.64410647    -0.00062319     0.00094074     0.00022077
H         0.78232938    -0.08482882     1.92593728    -0.00062940    -0.00033232    -0.00066934
H        -0.90834529     0.23243666     1.86058323     0.00033276     0.00149659     0.00050802
H        -0.98688046    -0.08563172    -0.66613747     0.00079030    -0.00091943     0.00035418
     6
  Step:    41            Position(A)                                  Velocity(au)
C        -0.04099503     0.05903797    -0.05419124     0.00002741     0.00007513    -0.00057800
N        -0.03597270    -0.09810102     1.37148154    -0.00004325    -0.00015264     0.00045043
H         0.88452622    -0.07321706    -0.64271597    -0.00060431     0.00103804     0.00027270
H         0.77933803    -0.08685283     1.92253511    -0.00043428    -0.00039273    -0.00054530
H        -0.90611263     0.24084360     1.86322647     0.00046801     0.00151798     0.00044052
H        -0.98230518    -0.09080748    -0.66385148     0.00084493    -0.00093745     0.00046013
     6
  Step:    42            Position(A)                                  Velocity(au)
C        -0.04085637     0.05943870    -0.05748658     0.00002220     0.00006845    -0.00059994
N        -0.03628452    -0.09894347     1.37401362    -0.00006865    -0.00014892     0.00045505
H         0.88123263    -0.06717076    -0.64106779    -0.00056794     0.00112484     0.00031170
H         0.77749012    -0.08920501     1.91986094    -0.00022158    -0.00044847    -0.00040866
H        -0.90313024     0.24935170     1.86549199     0.00059805     0.00152728     0.00037169
H        -0.97746526    -0.09607785    -0.66101019     0.00088094    -0.00094983     0.00055061
     6
  Step:    43            Position(A)                                  Velocity(au)
C        -0.04074711     0.05980232    -0.06089090     0.00001685     0.00006160    -0.00061445
N        -0.03673937    -0.09976404     1.37656321    -0.00009372    -0.00014424     0.00045496
H         0.87818391    -0.06065570    -0.63923516    -0.00051454     0.00120124     0.00033732
H         0.77686364    -0.09186097     1.91797148    -0.00000077    -0.00049972    -0.00026576
H        -0.89943402     0.25789911     1.86737724     0.00071954     0.00152660     0.00030383
H        -0.97246745    -0.10141444    -0.65770265     0.00089732    -0.00095763     0.00062414
     6
  Step:    44            Position(A)                                  Velocity(au)
C        -0.04066777     0.06012801    -0.06436285     0.00001152     0.00005470    -0.00062178
N        -0.03733334    -0.10055770     1.37910505    -0.00011757    -0.00013882     0.00045075
H         0.87547445    -0.05372779    -0.63729292    -0.00044534     0.00126785     0.00034971
H         0.77748153    -0.09479737     1.91688683     0.00021826    -0.00054678    -0.00012320
H        -0.89507797     0.26643574     1.86889211     0.00082977     0.00151838     0.00023904
H        -0.96742342    -0.10679457    -0.65402551     0.00089383    -0.00096214     0.00067991
     6