     6
  Step:   300            Position(A)                                  Velocity(au)
C        -0.01218498     0.00780633     0.02345614    -0.00011051    -0.00013917     0.00010950
N        -0.07293803    -0.05237464     1.29530425     0.00032294     0.00001343    -0.00016326
H         0.22093516    -0.88140825    -0.57290615    -0.00061599     0.00013253    -0.00074675
H         0.08532233     0.81180477     1.83138311    -0.00247510     0.00038160     0.00035004
H        -0.14106170    -0.95496582     1.77019149    -0.00085967     0.00047518     0.00048948
H        -0.21937075     0.98959329    -0.41612945     0.00077983     0.00048242     0.00087119
