     6
  Step:     0            Position(A)                                  Velocity(au)
C        -0.03287397     0.01860766     0.02919753    -0.00009953    -0.00004600    -0.00027811
N        -0.03981697    -0.05115222     1.29090246     0.00005415     0.00004954     0.00025266
H         0.91751448    -0.03328917    -0.54350794     0.00073090     0.00029028    -0.00025148
H         0.77859328    -0.10952772     1.81949004    -0.00045397    -0.00041265     0.00026988
H        -0.94822543    -0.06994004     1.85896755     0.00021474    -0.00008658    -0.00035490
H        -1.01578151     0.03207800    -0.52966254    -0.00005807     0.00006876     0.00013949
     6
  Step:     1            Position(A)                                  Velocity(au)
C        -0.03343238     0.01840503     0.02727914    -0.00010397    -0.00002822    -0.00042255
N        -0.03959720    -0.05087743     1.29259827     0.00002620     0.00005124     0.00036623
H         0.92162733    -0.03187160    -0.54479568     0.00076454     0.00022855    -0.00021739
H         0.77693992    -0.11197865     1.82139375    -0.00014784    -0.00048541     0.00042878
H        -0.94679881    -0.07054257     1.85675944     0.00030349    -0.00013439    -0.00044868
H        -1.01606707     0.03231038    -0.52877607    -0.00004521     0.00001559     0.00018318
     6
  Step:     2            Position(A)                                  Velocity(au)
C        -0.03401122     0.01829899     0.02457565    -0.00010697    -0.00001073    -0.00056477
N        -0.03953042    -0.05059178     1.29490835    -0.00000134     0.00005347     0.00047707
H         0.92587705    -0.03078927    -0.54588575     0.00077975     0.00016791    -0.00017991
H         0.77697615    -0.11483715     1.82418002     0.00015874    -0.00056106     0.00059002
H        -0.94490580    -0.07141005     1.85405984     0.00038381    -0.00018332    -0.00053281
H        -1.01627605     0.03224854    -0.52765894    -0.00002901    -0.00003864     0.00022313
     6
  Step:     3            Position(A)                                  Velocity(au)
C        -0.03460260     0.01828769     0.02110065    -0.00010842     0.00000627    -0.00070328
N        -0.03961181    -0.05029250     1.29781729    -0.00002747     0.00005602     0.00058423
H         0.93015762    -0.03003469    -0.54676382     0.00077438     0.00010934    -0.00014041
H         0.77867652    -0.11811651     1.82784839     0.00045501    -0.00063726     0.00074775
H        -0.94260005    -0.07254802     1.85093064     0.00045232    -0.00023233    -0.00060335
H        -1.01638444     0.03188769    -0.52633506    -0.00000787    -0.00009289     0.00025776
     6
  Step:     4            Position(A)                                  Velocity(au)
C        -0.03519815     0.01836764     0.01687651    -0.00010822     0.00002237    -0.00083557
N        -0.03983120    -0.04997847     1.30130418    -0.00005118     0.00005854     0.00068599
H         0.93435448    -0.02959225    -0.54742292     0.00074780     0.00005466    -0.00010019
H         0.78195735    -0.12181350     1.83236597     0.00072983    -0.00071017     0.00089528
H        -0.93995409    -0.07395343     1.84745471     0.00050509    -0.00027933    -0.00065645
H        -1.01636225     0.03123161    -0.52483711     0.00001811    -0.00014511     0.00028537
     6
  Step:     5            Position(A)                                  Velocity(au)
C        -0.03578892     0.01853295     0.01194085    -0.00010624     0.00003712    -0.00095795
N        -0.04017286    -0.04965080     1.30533735    -0.00007140     0.00006063     0.00077967
H         0.93835526    -0.02943550    -0.54786218     0.00070145     0.00000563    -0.00006030
H         0.78667718    -0.12590165     1.83766279     0.00097246    -0.00077539     0.00102525
H        -0.93706309    -0.07561010     1.84373437     0.00053769    -0.00032199    -0.00068878
H        -1.01618593     0.03029696    -0.52320678     0.00004656    -0.00019296     0.00030429
     6
  Step:     6            Position(A)                                  Velocity(au)
C        -0.03636524     0.01877538     0.00635272    -0.00010236     0.00005012    -0.00106606
N        -0.04061554    -0.04931241     1.30986943    -0.00008715     0.00006204     0.00086204
H         0.94206044    -0.02953040    -0.54808532     0.00063841    -0.00003680    -0.00002170
H         0.79264055    -0.13033172     1.84362907     0.00117328    -0.00082915     0.00113042
H        -0.93404723    -0.07749069     1.83988798     0.00054574    -0.00035869    -0.00069782
H        -1.01585075     0.02911178    -0.52149423     0.00007352    -0.00023473     0.00031311
     6
  Step:     7            Position(A)                                  Velocity(au)
C        -0.03691675     0.01908519     0.00019510    -0.00009654     0.00006116    -0.00115562
N        -0.04113310    -0.04896719     1.31483528    -0.00009767     0.00006268     0.00092993
H         0.94538924    -0.02984097    -0.54810122     0.00056256    -0.00007256     0.00001445
H         0.79960437    -0.13503713     1.85011765     0.00132453    -0.00086881     0.00120477
H        -0.93105016    -0.07956211     1.83604580     0.00052579    -0.00038876    -0.00068210
H        -1.01537590     0.02771067    -0.51975700     0.00009481    -0.00026956     0.00031071
     6
  Step:     8            Position(A)                                  Velocity(au)
C        -0.03743281     0.01945172    -0.00642685    -0.00008882     0.00007011    -0.00122328
N        -0.04169564    -0.04861927     1.32015320    -0.00010248     0.00006254     0.00098085
H         0.94828162    -0.03033286    -0.54792554     0.00047808    -0.00010207     0.00004681
H         0.80728804    -0.13993964     1.85695222     0.00142121    -0.00089294     0.00124456
H        -0.92823264    -0.08178987     1.83234482     0.00047613    -0.00041224    -0.00064146
H        -1.01480229     0.02613085    -0.51805814     0.00010705    -0.00029720     0.00029657
     6
  Step:     9            Position(A)                                  Velocity(au)
C        -0.03790317     0.01986389    -0.01339102    -0.00007941     0.00007698    -0.00126733
N        -0.04227124    -0.04827262     1.32572890    -0.00010151     0.00006170     0.00101358
H         0.95069891    -0.03097458    -0.54758133     0.00038923    -0.00012591     0.00007412
H         0.81538880    -0.14495443     1.86394010     0.00146214    -0.00090130     0.00124901
H        -0.92576206    -0.08414054     1.82892160     0.00039742    -0.00042962    -0.00057738
H        -1.01418694     0.02440993    -0.51646319     0.00010810    -0.00031786     0.00027085
     6
  Step:    10            Position(A)                                  Velocity(au)
C        -0.03831880     0.02031067    -0.02056734    -0.00006866     0.00008189    -0.00128831
N        -0.04282825    -0.04793082     1.33146239    -0.00009516     0.00006031     0.00102863
H         0.95262450    -0.03173775    -0.54709852     0.00030024    -0.00014480     0.00009538
H         0.82360218    -0.14999601     1.87088824     0.00145044    -0.00089501     0.00122061
H        -0.92379840    -0.08658342     1.82590257     0.00029284    -0.00044183    -0.00049321
H        -1.01359609     0.02258432    -0.51503603     0.00009712    -0.00033216     0.00023455
     6
  Step:    11            Position(A)                                  Velocity(au)
C        -0.03867274     0.02078171    -0.02782991    -0.00005706     0.00008511    -0.00128918
N        -0.04333774    -0.04759672     1.33725747    -0.00008422     0.00005855     0.00102844
H         0.95406388    -0.03259749    -0.54651238     0.00021498    -0.00015961     0.00011002
H         0.83164479    -0.15498541     1.87762022     0.00139330    -0.00087665     0.00116479
H        -0.92248007    -0.08909245     1.82339385     0.00016759    -0.00045025    -0.00039372
H        -1.01309844     0.02068717    -0.51383439     0.00007444    -0.00034120     0.00018936
     6
  Step:    12            Position(A)                                  Velocity(au)
C        -0.03896068     0.02126812    -0.03506994    -0.00004508     0.00008703    -0.00127488
N        -0.04377565    -0.04727219     1.34303180    -0.00006974     0.00005665     0.00101694
H         0.95504287    -0.03353327    -0.54586089     0.00013653    -0.00017136     0.00011798
H         0.83927599    -0.15985780     1.88399147     0.00130069    -0.00084982     0.00108888
H        -0.92191308    -0.09164852     1.82147340     0.00002789    -0.00045662    -0.00028432
H        -1.01275873     0.01874601    -0.51290589     0.00004125    -0.00034645     0.00013731
     6
  Step:    13            Position(A)                                  Velocity(au)
C        -0.03918111     0.02176312    -0.04220601    -0.00005222     0.00013873    -0.00197000
N        -0.04412412    -0.04695790     1.34872491    -0.00008314     0.00008636     0.00157252
H         0.95560347    -0.03452987    -0.54518204     0.00010538    -0.00028531     0.00018824
H         0.84631197    -0.16456834     1.88989888     0.00186296    -0.00128872     0.00157531
H        -0.92216560    -0.09424147     1.82018776    -0.00018924    -0.00072865    -0.00026774
H        -1.01263327     0.01678048    -0.51228601    -0.00000129    -0.00055039     0.00012655
     6
  Step:    14            Position(A)                                  Velocity(au)
C        -0.03944193     0.02252265    -0.05285895    -0.00003963     0.00012843    -0.00177595
N        -0.04453559    -0.04648242     1.35725497    -0.00006053     0.00008104     0.00142714
H         0.95628658    -0.03610744    -0.54445627     0.00013901    -0.00027000     0.00006778
H         0.85637537    -0.17160666     1.89847657     0.00166313    -0.00118631     0.00143462
H        -0.92368458    -0.09825135     1.81907558    -0.00034621    -0.00068321    -0.00012329
H        -1.01303444     0.01374891    -0.51207257    -0.00014248    -0.00051689    -0.00004871
     6
  Step:    15            Position(A)                                  Velocity(au)
C        -0.03963219     0.02322510    -0.06242229    -0.00002758     0.00011881    -0.00158943
N        -0.04481317    -0.04603544     1.36497050    -0.00003668     0.00007635     0.00128809
H         0.95718588    -0.03760337    -0.54441043     0.00017996    -0.00025672    -0.00004989
H         0.86524395    -0.17807254     1.90622962     0.00144790    -0.00108860     0.00128866
H        -0.92610666    -0.10201863     1.81878430    -0.00050298    -0.00064354     0.00001833
H        -1.01425515     0.01089650    -0.51284049    -0.00028648    -0.00048774    -0.00021702
     6
  Step:    16            Position(A)                                  Velocity(au)
C        -0.03975573     0.02387445    -0.07094386    -0.00001640     0.00011051    -0.00141995
N        -0.04495291    -0.04561371     1.37191112    -0.00001265     0.00007259     0.00116300
H         0.95833417    -0.03902849    -0.54502394     0.00022658    -0.00024664    -0.00016439
H         0.87284983    -0.18399293     1.91313924     0.00123069    -0.00100142     0.00114756
H        -0.92940764    -0.10557364     1.81928418    -0.00065584    -0.00061224     0.00015376
H        -1.01629406     0.00819931    -0.51454185    -0.00043011    -0.00046530    -0.00037814
     6
  Step:    17            Position(A)                                  Velocity(au)
C        -0.03981811     0.02447816    -0.07852235    -0.00000617     0.00010354    -0.00126740
N        -0.04495666    -0.04521233     1.37815715     0.00001094     0.00006969     0.00105182
H         0.95975489    -0.04039985    -0.54627439     0.00027691    -0.00023954    -0.00027615
H         0.87919805    -0.18942714     1.91924112     0.00101509    -0.00092466     0.00101326
H        -0.93354282    -0.10896051     1.82052775    -0.00080031    -0.00058848     0.00028113
H        -1.01913188     0.00562066    -0.51712796    -0.00057023    -0.00044937    -0.00053230
     6
  Step:    18            Position(A)                                  Velocity(au)
C        -0.03982534     0.02504353    -0.08525469     0.00000307     0.00009757    -0.00112812
N        -0.04482934    -0.04482683     1.38378777     0.00003363     0.00006739     0.00095158
H         0.96146086    -0.04173330    -0.54814204     0.00032854    -0.00023465    -0.00038499
H         0.88431176    -0.19443377     1.92458051     0.00080103    -0.00085584     0.00088452
H        -0.93844440    -0.11221849     1.82245859    -0.00093063    -0.00056995     0.00039837
H        -1.02273282     0.00312521    -0.52055230    -0.00070274    -0.00043860    -0.00067863
     6
  Step:    19            Position(A)                                  Velocity(au)
C        -0.03978359     0.02557617    -0.09121700     0.00001122     0.00009233    -0.00099868
N        -0.04457825    -0.04445405     1.38886524     0.00005488     0.00006545     0.00085942
H         0.96345192    -0.04304035    -0.55060671     0.00037888    -0.00023113    -0.00049012
H         0.88821201    -0.19905788     1.92919455     0.00058857    -0.00079261     0.00076001
H        -0.94401511    -0.11537414     1.82501057    -0.00104072    -0.00055433     0.00050309
H        -1.02703980     0.00068513    -0.52476454    -0.00082305    -0.00043157    -0.00081540
     6
  Step:    20            Position(A)                                  Velocity(au)
C        -0.03969937     0.02607998    -0.09646589     0.00001820     0.00008756    -0.00087687
N        -0.04421322    -0.04409207     1.39343561     0.00007420     0.00006371     0.00077341
H         0.96571414    -0.04432793    -0.55364410     0.00042545    -0.00022831    -0.00059041
H         0.89091909    -0.20333165     1.93311239     0.00037891    -0.00073349     0.00063933
H        -0.95012753    -0.11844138     1.82810634    -0.00112546    -0.00053979     0.00059313
H        -1.03197241    -0.00171957    -0.52970600    -0.00092694    -0.00042716    -0.00094076
     6
  Step:    21            Position(A)                                  Velocity(au)
C        -0.03957956     0.02655761    -0.10104529     0.00002395     0.00008314    -0.00076148
N        -0.04374653    -0.04373991     1.39753391     0.00009116     0.00006206     0.00069243
H         0.96822057    -0.04559938    -0.55722421     0.00046611    -0.00022574    -0.00068479
H         0.89245903    -0.20727908     1.93636044     0.00017409    -0.00067773     0.00052284
H        -0.95662975    -0.12142428     1.83165857    -0.00118128    -0.00052503     0.00066687
H        -1.03742930    -0.00410268    -0.53530901    -0.00101106    -0.00042458    -0.00105321
     6
  Step:    22            Position(A)                                  Velocity(au)
C        -0.03943125     0.02701087    -0.10499217     0.00002842     0.00007896    -0.00065195
N        -0.04319246    -0.04339715     1.40118866     0.00010544     0.00006044     0.00061585
H         0.97093311    -0.04685549    -0.56131160     0.00049908    -0.00022308    -0.00077238
H         0.89286836    -0.21092013     1.93896665    -0.00002348    -0.00062511     0.00041134
H        -0.96335421    -0.12432014     1.83557322    -0.00120629    -0.00050922     0.00072347
H        -1.04329323    -0.00647354    -0.54149877    -0.00107319    -0.00042324    -0.00115178
     6
  Step:    23            Position(A)                                  Velocity(au)
C        -0.03926155     0.02744105    -0.10833993     0.00003165     0.00007496    -0.00054797
N        -0.04256673    -0.04306368     1.40442463     0.00011684     0.00005881     0.00054329
H         0.97380482    -0.04809538    -0.56586637     0.00052304    -0.00022012    -0.00085254
H         0.89219628    -0.21427346     1.94096297    -0.00021133    -0.00057568     0.00030580
H        -0.97012702    -0.12712196     1.83975346    -0.00120020    -0.00049183     0.00076278
H        -1.04943730    -0.00883831    -0.54819634    -0.00111222    -0.00042273    -0.00123606
     6
  Step:    24            Position(A)                                  Velocity(au)
C        -0.03907731     0.02784910    -0.11112012     0.00003370     0.00007110    -0.00044939
N        -0.04188588    -0.04273948     1.40726424     0.00012525     0.00005718     0.00047448
H         0.97678225    -0.04931708    -0.57084553     0.00053705    -0.00021675    -0.00092488
H         0.89050502    -0.21735795     1.94238643    -0.00038713    -0.00052963     0.00020723
H        -0.97677597    -0.12982026     1.84410336    -0.00116398    -0.00047260     0.00078528
H        -1.05573107    -0.01120087    -0.55532161    -0.00112798    -0.00042273    -0.00130612
     6
  Step:    25            Position(A)                                  Velocity(au)
C        -0.03888489     0.02823573    -0.11336308     0.00003466     0.00006735    -0.00035605
N        -0.04116672    -0.04242455     1.40972817     0.00013068     0.00005556     0.00040916
H         0.97980775    -0.05051807    -0.57620437     0.00054055    -0.00021289    -0.00098922
H         0.88786910    -0.22019347     1.94327935    -0.00054874    -0.00048720     0.00011659
H        -0.98313753    -0.13240453     1.84853101    -0.00109965    -0.00045146     0.00079191
H        -1.06204543    -0.01356337    -0.56279567    -0.00112111    -0.00042298    -0.00136238
     6
  Step:    26            Position(A)                                  Velocity(au)
C        -0.03869006     0.02860153    -0.11509809     0.00003466     0.00006369    -0.00026777
N        -0.04042587    -0.04211875     1.41183558     0.00013318     0.00005397     0.00034708
H         0.98282150    -0.05169557    -0.58189752     0.00053330    -0.00020853    -0.00104553
H         0.88437429    -0.22280118     1.94368905    -0.00069426    -0.00044865     0.00003475
H        -0.98906177    -0.13486416     1.85295089    -0.00100992    -0.00042845     0.00078393
H        -1.06825664    -0.01592664    -0.57054274    -0.00109286    -0.00042331    -0.00140554
     6
  Step:    27            Position(A)                                  Velocity(au)
C        -0.03849780     0.02894698    -0.11635326     0.00003384     0.00006011    -0.00018432
N        -0.03967949    -0.04182182     1.41360405     0.00013286     0.00005246     0.00028795
H         0.98576316    -0.05284676    -0.58787989     0.00051532    -0.00020368    -0.00109392
H         0.88011623    -0.22520358     1.94366743    -0.00082203    -0.00041422    -0.00003751
H        -0.99441535    -0.13718911     1.85728522    -0.00089790    -0.00040373     0.00076281
H        -1.07424946    -0.01829052    -0.57849146    -0.00104487    -0.00042355    -0.00143645
     6
  Step:    28            Position(A)                                  Velocity(au)
C        -0.03831232     0.02927247    -0.11715538     0.00003234     0.00005660    -0.00010546
N        -0.03894297    -0.04153328     1.41504955     0.00012985     0.00005104     0.00023148
H         0.98857330    -0.05396899    -0.59410728     0.00048687    -0.00019838    -0.00113458
H         0.87519919    -0.22742449     1.94327038    -0.00093056    -0.00038415    -0.00009950
H        -0.99908370    -0.13937038     1.86146496    -0.00076703    -0.00037749     0.00073013
H        -1.07991897    -0.02065406    -0.58657570    -0.00097909    -0.00042357    -0.00145607
     6
  Step:    29            Position(A)                                  Velocity(au)
C        -0.03813703     0.02957834    -0.11752971     0.00003029     0.00005313    -0.00003090
N        -0.03823089    -0.04125245     1.41618632     0.00012432     0.00004976     0.00017735
H         0.99119450    -0.05505978    -0.60053683     0.00044836    -0.00019264    -0.00116775
H         0.86973517    -0.22948902     1.94255747    -0.00101856    -0.00035866    -0.00015059
H        -1.00297208    -0.14140025     1.86543027    -0.00062085    -0.00034997     0.00068753
H        -1.08517181    -0.02301577    -0.59473492    -0.00089753    -0.00042330    -0.00146536
     6
  Step:    30            Position(A)                                  Velocity(au)
C        -0.03797457     0.02986488    -0.11749995     0.00002783     0.00004972     0.00003962
N        -0.03755681    -0.04097846     1.41702689     0.00011644     0.00004866     0.00012525
H         0.99357233    -0.05611690    -0.60712733     0.00040035    -0.00018653    -0.00119374
H         0.86384265    -0.23142346     1.94159135    -0.00108494    -0.00033796    -0.00019029
H        -1.00600597    -0.14327240     1.86913072    -0.00046291    -0.00032142     0.00063666
H        -1.08992609    -0.02537376    -0.60291395    -0.00080218    -0.00042267    -0.00146522
     6
  Step:    31            Position(A)                                  Velocity(au)
C        -0.03782694     0.03013235    -0.11708824     0.00002506     0.00004634     0.00010638
N        -0.03693330    -0.04071021     1.41758207     0.00010640     0.00004777     0.00007490
H         0.99565588    -0.05713835    -0.61383931     0.00034350    -0.00018006    -0.00121280
H         0.85764503    -0.23325506     1.94043691    -0.00112898    -0.00032218    -0.00021828
H        -1.00813059    -0.14498202     1.87252498    -0.00029666    -0.00029210     0.00057910
H        -1.09411095    -0.02772581    -0.61106266    -0.00069497    -0.00042162    -0.00145648
     6
  Step:    32            Position(A)                                  Velocity(au)
C        -0.03769551     0.03038098    -0.11631517     0.00002208     0.00004300     0.00016963
N        -0.03637177    -0.04044643     1.41786114     0.00009440     0.00004712     0.00002604
H         0.99739806    -0.05812233    -0.62063499     0.00027848    -0.00017327    -0.00122521
H         0.85126859    -0.23501172     1.93916026    -0.00115031    -0.00031140    -0.00023443
H        -1.00931002    -0.14652567     1.87558045    -0.00012538    -0.00026225     0.00051634
H        -1.09766638    -0.03006957    -0.61913564    -0.00057777    -0.00042013    -0.00143994
     6
  Step:    33            Position(A)                                  Velocity(au)
C        -0.03758111     0.03061098    -0.11519992     0.00001900     0.00003969     0.00022961
N        -0.03588241    -0.04018572     1.41787199     0.00008068     0.00004672    -0.00002155
H         0.99875581    -0.05906719    -0.62747811     0.00020603    -0.00016619    -0.00123121
H         0.84483999    -0.23672149     1.93782730    -0.00114906    -0.00030561    -0.00023889
H        -1.00952635    -0.14790129     1.87827278     0.00004775    -0.00023210     0.00044983
H        -1.10054259    -0.03240259    -0.62709179    -0.00045235    -0.00041818    -0.00141629
     6
  Step:    34            Position(A)                                  Velocity(au)
C        -0.03748406     0.03082254    -0.11376045     0.00001590     0.00003640     0.00028650
N        -0.03547406    -0.03992662     1.41762138     0.00006549     0.00004659    -0.00006805
H         0.99969047    -0.05997142    -0.63433394     0.00012697    -0.00015883    -0.00123103
H         0.83848369    -0.23841207     1.93650229    -0.00112582    -0.00030469    -0.00023208
H        -1.00877870    -0.14910814     1.88058544     0.00021972    -0.00020190     0.00038094
H        -1.10269946    -0.03472236    -0.63489383    -0.00032040    -0.00041575    -0.00138615
     6
  Step:    35            Position(A)                                  Velocity(au)
C        -0.03740431     0.03101586    -0.11201362     0.00001283     0.00003315     0.00034045
N        -0.03515402    -0.03966759     1.41711521     0.00004913     0.00004672    -0.00011357
H         1.00016797    -0.06083361    -0.64116904     0.00004214    -0.00015121    -0.00122486
H         0.83231906    -0.24011010     1.93524621    -0.00108172    -0.00030838    -0.00021472
H        -1.00708268    -0.15014673     1.88250943     0.00038757    -0.00017187     0.00031101
H        -1.10410596    -0.03702642    -0.64250791    -0.00018349    -0.00041285    -0.00135006
     6
  Step:    36            Position(A)                                  Velocity(au)
C        -0.03734146     0.03119112    -0.10997550     0.00000985     0.00002993     0.00039157
N        -0.03492789    -0.03940716     1.41635878     0.00003191     0.00004712    -0.00015818
H         1.00015898    -0.06165244    -0.64795119    -0.00004758    -0.00014334    -0.00121287
H         0.82645769    -0.24184051     1.93411519    -0.00101841    -0.00031632    -0.00018783
H        -1.00446992    -0.15101889     1.88404312     0.00054839    -0.00014225     0.00024137
H        -1.10473936    -0.03931225    -0.64990304    -0.00004309    -0.00040947    -0.00130849
     6
  Step:    37            Position(A)                                  Velocity(au)
C        -0.03729486     0.03134853    -0.10766160     0.00000700     0.00002675     0.00043992
N        -0.03479941    -0.03914394     1.41535714     0.00001419     0.00004774    -0.00020189
H         0.99963913    -0.06242669    -0.65464913    -0.00014127    -0.00013524    -0.00119522
H         0.82100026    -0.24362571     1.93315864    -0.00093810    -0.00032795    -0.00015279
H        -1.00098774    -0.15172773     1.88519206     0.00069934    -0.00011329     0.00017331
H        -1.10458485    -0.04157737    -0.65705076     0.00009937    -0.00040560    -0.00126186
     6
  Step:    38            Position(A)                                  Velocity(au)
C        -0.03726364     0.03148832    -0.10508716     0.00000433     0.00002360     0.00048548
N        -0.03477017    -0.03887669     1.41411542    -0.00000361     0.00004856    -0.00024461
H         0.99858915    -0.06315520    -0.66123247    -0.00023796    -0.00012692    -0.00117203
H         0.81603349    -0.24548473     1.93241736    -0.00084357    -0.00034260    -0.00011131
H        -0.99669881    -0.15227772     1.88596899     0.00083763    -0.00008523     0.00010815
H        -1.10363516    -0.04381926    -0.66392479     0.00024250    -0.00040122    -0.00121052
     6
  Step:    39            Position(A)                                  Velocity(au)
C        -0.03724677     0.03161075    -0.10226745     0.00000185     0.00002050     0.00052820
N        -0.03483950    -0.03860440     1.41263923    -0.00002107     0.00004953    -0.00028624
H         0.99699514    -0.06383690    -0.66767160    -0.00033662    -0.00011840    -0.00114343
H         0.81162730    -0.24743238     1.93192187    -0.00073807    -0.00035943    -0.00006538
H        -0.99168080    -0.15267471     1.88639369     0.00096051    -0.00005834     0.00004717
H        -1.10189042    -0.04603536    -0.67050085     0.00038493    -0.00039634    -0.00115482
     6
  Step:    40            Position(A)                                  Velocity(au)
C        -0.03724309     0.03171612    -0.09921805    -0.00000041     0.00001746     0.00056800
N        -0.03500427    -0.03832637     1.41093494    -0.00003773     0.00005059    -0.00032656
H         0.99484886    -0.06447083    -0.67393762    -0.00043616    -0.00010971    -0.00110956
H         0.80783253    -0.24947850     1.93169092    -0.00062519    -0.00037748    -0.00001722
H        -0.98602613    -0.15292599     1.88649306     0.00106536    -0.00003290    -0.00000834
H        -1.09935803    -0.04822311    -0.67675652     0.00052530    -0.00039093    -0.00109512
     6
  Step:    41            Position(A)                                  Velocity(au)
C        -0.03725136     0.03180481    -0.09595513    -0.00000244     0.00001449     0.00060471
N        -0.03525884    -0.03804222     1.40901004    -0.00005315     0.00005167    -0.00036536
H         0.99214795    -0.06505613    -0.68000246    -0.00053547    -0.00010087    -0.00107059
H         0.80467936    -0.25162745     1.93173053    -0.00050878    -0.00039573     0.00003081
H        -0.97984119    -0.15304031     1.88630103     0.00114971    -0.00000917    -0.00005711
H        -1.09605259    -0.05037989    -0.68267119     0.00066224    -0.00038500    -0.00103176
     6
  Step:    42            Position(A)                                  Velocity(au)
C        -0.03727025     0.03187725    -0.09249565    -0.00000423     0.00001161     0.00063818
N        -0.03559509    -0.03775192     1.40687339    -0.00006687     0.00005272    -0.00040234
H         0.98889620    -0.06559212    -0.68583899    -0.00063338    -0.00009191    -0.00102672
H         0.80217653    -0.25387774     1.93203343    -0.00039274    -0.00041312     0.00007631
H        -0.97324514    -0.15302790     1.88585821     0.00121144     0.00001258    -0.00009798
H        -1.09199606    -0.05250307    -0.68822623     0.00079438    -0.00037856    -0.00096515
     6
  Step:    43            Position(A)                                  Velocity(au)
C        -0.03729842     0.03193397    -0.08885755    -0.00000577     0.00000884     0.00066821
N        -0.03600255    -0.03745586     1.40453541    -0.00007850     0.00005366    -0.00043719
H         0.98510373    -0.06607830    -0.69142126    -0.00072871    -0.00008288    -0.00097825
H         0.80031143    -0.25622201     1.93257925    -0.00028083    -0.00042861     0.00011700
H        -0.96636797    -0.15290035     1.88521134     0.00124887     0.00003213    -0.00012994
H        -1.08721775    -0.05459011    -0.69340528     0.00092036    -0.00037163    -0.00089578
     6
  Step:    44            Position(A)                                  Velocity(au)
C        -0.03733446     0.03197561    -0.08505982    -0.00000706     0.00000619     0.00069462
N        -0.03646867    -0.03715478     1.40200829    -0.00008771     0.00005442    -0.00046961
H         0.98078711    -0.06651439    -0.69672498    -0.00082028    -0.00007383    -0.00092554
H         0.79905145    -0.25864727     1.93333536    -0.00017648    -0.00044125     0.00015078
H        -0.95934770    -0.15267041     1.88441225     0.00126092     0.00004927    -0.00015221
H        -1.08175429    -0.05663861    -0.69819455     0.00103885    -0.00036426    -0.00082419
     6