     6
  Step:     0            Position(A)                                  Velocity(au)
C        -0.03142760     0.01782016     0.04202413     0.00008121     0.00012322    -0.00012801
N        -0.04754479    -0.05325053     1.27524966     0.00012241    -0.00008811     0.00002644
H         0.91154745    -0.00625335    -0.53915814    -0.00037464    -0.00026722     0.00057036
H         0.81065715    -0.12115123     1.86801365    -0.00094874     0.00017285    -0.00072370
H        -0.88399621    -0.07888981     1.85216285    -0.00104773     0.00035516     0.00166557
H        -1.01595398     0.06415833    -0.51105643    -0.00029765    -0.00050473    -0.00035427
     6
  Step:     1            Position(A)                                  Velocity(au)
C        -0.03055911     0.01923999     0.03946712     0.00007436     0.00013658    -0.00033337
N        -0.04613682    -0.05427504     1.27659741     0.00012567    -0.00009920     0.00021687
H         0.90753980    -0.00919405    -0.53360641    -0.00033505    -0.00027147     0.00042861
H         0.80001799    -0.11922031     1.85986170    -0.00094074     0.00017602    -0.00072635
H        -0.89628982    -0.07506203     1.87090955    -0.00112067     0.00034899     0.00170086
H        -1.01892831     0.05865795    -0.51546228    -0.00023601    -0.00050260    -0.00044437
     6
  Step:     2            Position(A)                                  Velocity(au)
C        -0.02980085     0.02080811     0.03473107     0.00006120     0.00014997    -0.00052114
N        -0.04479545    -0.05542066     1.27999408     0.00011084    -0.00010984     0.00039548
H         0.90421760    -0.01219234    -0.52978154    -0.00024907    -0.00027795     0.00025557
H         0.79007672    -0.11730052     1.85212333    -0.00081484     0.00017059    -0.00064316
H        -0.90851303    -0.07125495     1.88937243    -0.00104884     0.00034996     0.00162383
H        -1.02111720     0.05316296    -0.52077785    -0.00015682    -0.00050336    -0.00052203
     6
  Step:     3            Position(A)                                  Velocity(au)
C        -0.02922019     0.02252093     0.02806619     0.00004236     0.00016271    -0.00068212
N        -0.04371197    -0.05667799     1.28524927     0.00007981    -0.00011931     0.00055240
H         0.90209082    -0.01527470    -0.52801539    -0.00011910    -0.00028695     0.00005507
H         0.78219182    -0.11548831     1.84579143    -0.00056617     0.00015681    -0.00047053
H        -0.91923513    -0.06740607     1.90643401    -0.00086271     0.00035543     0.00145754
H        -1.02235908     0.04764590    -0.52688271    -0.00006583    -0.00050628    -0.00059027
     6
  Step:     4            Position(A)                                  Velocity(au)
C        -0.02887416     0.02436779     0.01980831     0.00001910     0.00017423    -0.00081023
N        -0.04304947    -0.05803079     1.29207899     0.00003584    -0.00012713     0.00068099
H         0.90161206    -0.01846986    -0.52857682     0.00004650    -0.00029850    -0.00016520
H         0.77769064    -0.11386994     1.84182952    -0.00020812     0.00013640    -0.00021912
H        -0.92738646    -0.06347925     1.92125889    -0.00059499     0.00036332     0.00122801
H        -1.02255744     0.04208712    -0.53369106     0.00003094    -0.00051069    -0.00065225
     6
  Step:     5            Position(A)                                  Velocity(au)
C        -0.02880233     0.02633244     0.01034092    -0.00000672     0.00018408    -0.00090277
N        -0.04292787    -0.05945922     1.30014722    -0.00001644    -0.00013312     0.00077840
H         0.90310818    -0.02180492    -0.53162946     0.00023345    -0.00031221    -0.00039410
H         0.77763878    -0.11250435     1.84099776     0.00022441     0.00011249     0.00008488
H        -0.93225167    -0.05945778     1.93329912    -0.00027690     0.00037219     0.00096077
H        -1.02168211     0.03647354    -0.54115198     0.00012750    -0.00051610    -0.00071107
     6
  Step:     6            Position(A)                                  Velocity(au)
C        -0.02902111     0.02839481     0.00005855    -0.00003283     0.00019199    -0.00096012
N        -0.04340906    -0.06094306     1.30910800    -0.00007127    -0.00013736     0.00084523
H         0.90671913    -0.02530012    -0.53719841     0.00042290    -0.00032720    -0.00061824
H         0.78259994    -0.11140891     1.84368646     0.00067818     0.00008912     0.00040329
H        -0.93344408    -0.05533691     1.94227755     0.00006241     0.00038129     0.00067976
H        -1.01976807     0.03079652    -0.54924716     0.00021806    -0.00052220    -0.00076950
     6
  Step:     7            Position(A)                                  Velocity(au)
C        -0.02952046     0.03053259    -0.01066360    -0.00005837     0.00020372    -0.00110887
N        -0.04448704    -0.06246427     1.31863814    -0.00012222    -0.00014559     0.00098633
H         0.91236000    -0.02896296    -0.54515457     0.00053530    -0.00028540    -0.00073236
H         0.79247530    -0.11055465     1.84982052     0.00104306     0.00001357     0.00063279
H        -0.93088634    -0.05111638     1.94817025     0.00043669     0.00043653     0.00035339
H        -1.01691165     0.02504935    -0.55798621     0.00037889    -0.00056914    -0.00074681
     6
  Step:     8            Position(A)                                  Velocity(au)
C        -0.03029798     0.03285167    -0.02420009    -0.00008111     0.00021848    -0.00134500
N        -0.04608287    -0.06412816     1.33068576    -0.00016324    -0.00015783     0.00119887
H         0.91842978    -0.03154386    -0.55322016     0.00055898    -0.00020920    -0.00073467
H         0.80541881    -0.11111208     1.85753002     0.00127215    -0.00008229     0.00074756
H        -0.92389071    -0.04578703     1.95000855     0.00080885     0.00051068     0.00000574
H        -1.01147913     0.01834558    -0.56558511     0.00059497    -0.00062933    -0.00065141
     6
  Step:     9            Position(A)                                  Velocity(au)
C        -0.03129496     0.03531224    -0.04008810    -0.00009775     0.00022938    -0.00153630
N        -0.04805813    -0.06591719     1.34486566    -0.00018959    -0.00016820     0.00137331
H         0.92458868    -0.03353967    -0.56122680     0.00055573    -0.00015750    -0.00072454
H         0.82030597    -0.11235488     1.86617478     0.00139323    -0.00013616     0.00080364
H        -0.91319123    -0.03994436     1.94829579     0.00109021     0.00055312    -0.00027469
H        -1.00389558     0.01128155    -0.57223710     0.00076027    -0.00065546    -0.00058175
     6
  Step:    10            Position(A)                                  Velocity(au)
C        -0.03243648     0.03786987    -0.05780957    -0.00010686     0.00023630    -0.00168125
N        -0.05023051    -0.06780791     1.36072946    -0.00019755    -0.00017656     0.00150673
H         0.93058739    -0.03498947    -0.56907087     0.00053255    -0.00010626    -0.00070744
H         0.83589846    -0.11409077     1.87511109     0.00140170    -0.00017617     0.00080397
H        -0.90004032    -0.03368656     1.94399925     0.00123206     0.00059173    -0.00044862
H        -0.99484686     0.00400613    -0.57831200     0.00085236    -0.00067158    -0.00055211
     6
  Step:    11            Position(A)                                  Velocity(au)
C        -0.03363281     0.04048185    -0.07686867    -0.00010728     0.00023957    -0.00178324
N        -0.05237998    -0.06977984     1.37782826    -0.00018432    -0.00018337     0.00160021
H         0.93623926    -0.03586434    -0.57670330     0.00049513    -0.00005143    -0.00068814
H         0.85097086    -0.11620902     1.88376313     0.00130409    -0.00020750     0.00075753
H        -0.88623751    -0.02699909     1.93848127     0.00118791     0.00063555    -0.00048419
H        -0.98524847    -0.00341054    -0.58431549     0.00085263    -0.00068329    -0.00057309
     6
  Step:    12            Position(A)                                  Velocity(au)
C        -0.03478341     0.04311093    -0.09682137    -0.00009836     0.00023977    -0.00184762
N        -0.05426291    -0.07181938     1.39573708    -0.00014890    -0.00018931     0.00165683
H         0.94141926    -0.03611452    -0.58412525     0.00044907     0.00000810    -0.00067097
H         0.86442782    -0.11863033     1.89168355     0.00111619    -0.00023244     0.00067748
H        -0.87405253    -0.01978264     1.93340673     0.00092684     0.00069211    -0.00036346
H        -0.97619386    -0.01094213    -0.59084937     0.00074912    -0.00069424    -0.00065072
     6
  Step:    13            Position(A)                                  Velocity(au)
C        -0.03578462     0.04572729    -0.11728882    -0.00008040     0.00023754    -0.00188047
N        -0.05563744    -0.07392133     1.41407468    -0.00009324    -0.00019509     0.00168149
H         0.94606357    -0.03568707    -0.59138212     0.00040004     0.00007256    -0.00065976
H         0.87538968    -0.12129412     1.89858435     0.00086075    -0.00025246     0.00057894
H        -0.86596101    -0.01185785     1.93052998     0.00045185     0.00076756    -0.00009360
H        -0.96886002    -0.01859840    -0.59855128     0.00054119    -0.00070721    -0.00078435
     6
  Step:    14            Position(A)                                  Velocity(au)
C        -0.03654235     0.04830767    -0.13796024    -0.00005497     0.00023342    -0.00188779
N        -0.05630279    -0.07608744     1.43252280    -0.00002319    -0.00020114     0.00168061
H         0.95017093    -0.03452715    -0.59855870     0.00035359     0.00014183    -0.00065774
H         0.88325842    -0.12415328     1.90434887     0.00056542    -0.00026863     0.00047735
H        -0.86416750    -0.00299077     1.93135898    -0.00018534     0.00086410     0.00028617
H        -0.96435436    -0.02641370    -0.60800845     0.00024353    -0.00072366    -0.00096507
     6
  Step:    15            Position(A)                                  Velocity(au)
C        -0.03698709     0.05083382    -0.15858786    -0.00002494     0.00022772    -0.00187488
N        -0.05614470    -0.07832169     1.45084115     0.00005180    -0.00020734     0.00166142
H         0.95379899    -0.03258435    -0.60577147     0.00031480     0.00021543    -0.00066744
H         0.88775938    -0.12717095     1.90902731     0.00026099    -0.00028184     0.00038745
H        -0.87001573     0.00704589     1.93679039    -0.00088542     0.00097729     0.00070948
H        -0.96353244    -0.03442990    -0.61966412    -0.00011294    -0.00074316    -0.00117605
     6
  Step:    16            Position(A)                                  Velocity(au)
C        -0.03708805     0.05328941    -0.17897685     0.00000577     0.00022047    -0.00184609
N        -0.05516960    -0.08062339     1.46886962     0.00012044    -0.00021300     0.00163065
H         0.95705785    -0.02981427    -0.61316015     0.00028799     0.00029264    -0.00069058
H         0.88896812    -0.13031896     1.91282517    -0.00002013    -0.00029285     0.00032269
H        -0.88353785     0.01838937     1.94688015    -0.00152541     0.00109580     0.00110092
H        -0.96682514    -0.04267167    -0.63373684    -0.00048483    -0.00076286    -0.00139502
     6
  Step:    17            Position(A)                                  Velocity(au)
C        -0.03686090     0.05565698    -0.19897463     0.00003302     0.00021149    -0.00180507
N        -0.05350988    -0.08298139     1.48651475     0.00017248    -0.00021711     0.00159339
H         0.96009925    -0.02618225    -0.62087916     0.00027605     0.00037286    -0.00072790
H         0.88731906    -0.13357765     1.91608676    -0.00024605    -0.00030240     0.00029464
H        -0.90338709     0.03101852     1.96087508    -0.00199561     0.00120449     0.00139904
H        -0.97413907    -0.05111902    -0.65018286    -0.00082475    -0.00077816    -0.00159876
     6
  Step:    18            Position(A)                                  Velocity(au)
C        -0.03636561     0.05791623    -0.21846627     0.00005330     0.00020053    -0.00175495
N        -0.05139627    -0.08537302     1.50372805     0.00020106    -0.00021875     0.00155259
H         0.96309707    -0.02165720    -0.62908433     0.00028000     0.00045568    -0.00077904
H         0.88358530    -0.13693450     1.91927103    -0.00038857    -0.00031107     0.00031213
H        -0.92719561     0.04473983     1.97748694    -0.00222939     0.00128951     0.00157137
H        -0.98486803    -0.05969551    -0.66871275    -0.00109118    -0.00078378    -0.00176782
     6
  Step:    19            Position(A)                                  Velocity(au)
C        -0.03569496     0.06004385    -0.23736742     0.00006435     0.00018733    -0.00169813
N        -0.04911120    -0.08776701     1.52048068     0.00020364    -0.00021739     0.00150920
H         0.96622471    -0.01621336    -0.63792212     0.00029856     0.00054072    -0.00084261
H         0.87881826    -0.14038288     1.92291511    -0.00042738    -0.00031923     0.00037986
H        -0.95215922     0.05922892     1.99525172    -0.00221163     0.00134215     0.00161516
H        -0.99801077    -0.06826565    -0.68885736    -0.00125614    -0.00077497    -0.00188978
     6
  Step:    20            Position(A)                                  Velocity(au)
C        -0.03495786     0.06201441    -0.25561608     0.00006548     0.00017179    -0.00163633
N        -0.04694133    -0.09012889     1.53674465     0.00018151    -0.00021297     0.00146295
H         0.96962860    -0.00982783    -0.64751809     0.00032806     0.00062775    -0.00091624
H         0.87423544    -0.14391819     1.92758111    -0.00035515    -0.00032670     0.00049681
H        -0.97557929     0.07410201     2.01282155    -0.00196760     0.00136004     0.00154818
H        -1.01234853    -0.07664937    -0.71005522    -0.00130789    -0.00074865    -0.00195992
     6
  Step:    21            Position(A)                                  Velocity(au)
C        -0.03426240     0.06380211    -0.27316518     0.00005737     0.00015396    -0.00157066
N        -0.04514040    -0.09242622     1.55248556     0.00013881    -0.00020587     0.00141336
H         0.97340176    -0.00248013    -0.65796673     0.00036266     0.00071657    -0.00099675
H         0.87104858    -0.14753009     1.93378384    -0.00018184    -0.00033251     0.00065502
H        -0.99520428     0.08898241     2.02912109    -0.00154427     0.00134586     0.00139717
H        -1.02662337    -0.08464376    -0.73173425    -0.00124914    -0.00070377    -0.00197996
     6
  Step:    22            Position(A)                                  Velocity(au)
C        -0.03370275     0.06538254    -0.28997728     0.00004166     0.00013403    -0.00150186
N        -0.04390460    -0.09463258     1.56766467     0.00008147    -0.00019673     0.00136031
H         0.97756243     0.00584856    -0.66932389     0.00039492     0.00080701    -0.00108041
H         0.87025740    -0.15119248     1.94191084     0.00006408    -0.00033471     0.00083957
H        -1.00936320     0.10354536     2.04338722    -0.00099473     0.00130546     0.00118955
H        -1.03967590    -0.09204574    -0.75337071    -0.00109281    -0.00064116    -0.00195588
     6
  Step:    23            Position(A)                                  Velocity(au)
C        -0.03335103     0.06673429    -0.30602128     0.00002049     0.00011233    -0.00143043
N        -0.04335811    -0.09672998     1.58224505     0.00001633    -0.00018639     0.00130421
H         0.98204149     0.01517481    -0.68160279     0.00041683     0.00089878    -0.00116333
H         0.87245052    -0.15485243     1.95215115     0.00033910    -0.00033047     0.00103053
H        -1.01696596     0.11754184     2.05514467    -0.00036971     0.00124629     0.00094968
H        -1.05053062    -0.09867028    -0.77452276    -0.00085729    -0.00056298    -0.00189564
     6
  Step:    24            Position(A)                                  Velocity(au)
C        -0.03325439     0.06783995    -0.32127067    -0.00000384     0.00008926    -0.00135673
N        -0.04354745    -0.09871027     1.59619685    -0.00004962    -0.00017580     0.00124576
H         0.98668144     0.02551100    -0.69477395     0.00042078     0.00099136    -0.00124176
H         0.87767578    -0.15842222     1.96445566     0.00059312    -0.00031658     0.00120638
H        -1.01745137     0.13081025     2.06416338     0.00028445     0.00117685     0.00069856
H        -1.05843077    -0.10436190    -0.79484157    -0.00056305    -0.00047225    -0.00180782
     6
  Step:    25            Position(A)                                  Velocity(au)
C        -0.03343500     0.06868693    -0.33570236    -0.00002916     0.00006527    -0.00128103
N        -0.04444367    -0.10057599     1.60949842    -0.00010986    -0.00016597     0.00118554
H         0.99124678     0.03686276    -0.70876872     0.00040051     0.00108403    -0.00131241
H         0.88542618    -0.16177816     1.97854295     0.00078027    -0.00029003     0.00134814
H        -1.01074316     0.14328777     2.07042702     0.00092395     0.00110705     0.00045522
H        -1.06284836    -0.10900170    -0.81407239    -0.00023062    -0.00037247    -0.00170076
     6
  Step:    26            Position(A)                                  Velocity(au)
C        -0.03389230     0.06926786    -0.34929573    -0.00005352     0.00004086    -0.00120351
N        -0.04595083    -0.10234118     1.62213276    -0.00015881    -0.00015801     0.00112366
H         0.99544346     0.04922613    -0.72348539     0.00035186     0.00117585    -0.00137260
H         0.89474559    -0.16476725     1.99394882     0.00086804    -0.00024869     0.00144262
H        -0.99723811     0.15502907     2.07412220     0.00150447     0.00104896     0.00023866
H        -1.06347599    -0.11251049    -0.83204887     0.00012025    -0.00026737    -0.00158230
     6
  Step:    27            Position(A)                                  Velocity(au)
C        -0.03460576     0.06958087    -0.36203147    -0.00007520     0.00001654    -0.00112422
N        -0.04791799    -0.10403269     1.63408053    -0.00019199    -0.00015316     0.00105954
H         0.99894437     0.06258665    -0.73879703     0.00027309     0.00126568    -0.00142043
H         0.90441624    -0.16721862     2.01010296     0.00084170    -0.00019170     0.00148362
H        -0.97783004     0.16623585     2.07564826     0.00197888     0.00101804     0.00006926
H        -1.06021759    -0.11485098    -0.84868827     0.00047047    -0.00016081    -0.00146003
     6
  Step:    28            Position(A)                                  Velocity(au)
C        -0.03553748     0.06962978    -0.37389010    -0.00009274    -0.00000717    -0.00104307
N        -0.05015106    -0.10569187     1.64531227    -0.00020605    -0.00015285     0.00099200
H         1.00141778     0.07691520    -0.75455995     0.00016499     0.00135224    -0.00145472
H         0.91315941    -0.16896104     2.02640593     0.00070391    -0.00011958     0.00147157
H        -0.95394635     0.17730069     2.07563749     0.00229819     0.00103359    -0.00003133
H        -1.05318363    -0.11602853    -0.86398985     0.00080131    -0.00005677    -0.00134146
     6
  Step:    29            Position(A)                                  Velocity(au)
C        -0.03663459     0.06942409    -0.38485054    -0.00010483    -0.00002975    -0.00095985
N        -0.05242568    -0.10737668     1.65578239    -0.00019896    -0.00015862     0.00091951
H         1.00255392     0.09216945    -0.77062180     0.00003064     0.00143439    -0.00147502
H         0.91981559    -0.16983467     2.04229646     0.00047124    -0.00003378     0.00141200
H        -0.92755267     0.18884755     2.07496279     0.00241789     0.00111746    -0.00004289
H        -1.04268740    -0.11609284    -0.87803524     0.00109431     0.00004067    -0.00123424
     6
  Step:    30            Position(A)                                  Velocity(au)
C        -0.03783093     0.06897894    -0.39488867    -0.00011034    -0.00005071    -0.00087423
N        -0.05450374    -0.10916205     1.66542821    -0.00017068    -0.00017183     0.00084080
H         1.00208799     0.10829525    -0.78682882    -0.00012505     0.00151118    -0.00148148
H         0.92346858    -0.16970011     2.05729617     0.00016952     0.00006358     0.00131374
H        -0.90105041     0.20174732     2.07469911     0.00231112     0.00128987     0.00004746
H        -1.02924340    -0.11513889    -0.89099118     0.00133119     0.00012733    -0.00114633
     6
  Step:    31            Position(A)                                  Velocity(au)
C        -0.03904857     0.06831478    -0.40397606    -0.00010828    -0.00006958    -0.00078580
N        -0.05615974    -0.11113574     1.67417644    -0.00012410    -0.00019312     0.00075556
H         0.99981829     0.12522939    -0.80303208    -0.00029573     0.00158198    -0.00147477
H         0.92352417    -0.16844376     2.07103705    -0.00016978     0.00017004     0.00118759
H        -0.87699257     0.21706593     2.07600102     0.00198584     0.00156146     0.00023703
H        -1.01356515    -0.11330719    -0.90311347     0.00149450     0.00019918    -0.00108581
     6
  Step:    32            Position(A)                                  Velocity(au)
C        -0.04019985     0.06745677    -0.41207952    -0.00009794    -0.00008600    -0.00069414
N        -0.05721862    -0.11338681     1.68195761    -0.00006571    -0.00022175     0.00066500
H         0.99561844     0.14290405    -0.81909230    -0.00047407     0.00164650    -0.00145600
H         0.91975427    -0.16598006     2.08327706    -0.00051228     0.00028300     0.00104551
H        -0.85760628     0.23590722     2.07988449     0.00149723     0.00192398     0.00050086
H        -0.99654832    -0.11078139    -0.91474537     0.00156935     0.00025269    -0.00106012
     6
  Step:    33            Position(A)                                  Velocity(au)
C        -0.04119122     0.06643344    -0.41916167    -0.00007908    -0.00009973    -0.00059898
N        -0.05759731    -0.11598687     1.68872468    -0.00000524    -0.00025521     0.00057182
H         0.98944719     0.16124975    -0.83488480    -0.00065210     0.00170486    -0.00142662
H         0.91231714    -0.16225256     2.09390964    -0.00082237     0.00039988     0.00090022
H        -0.84423783     0.25915665     2.08695824     0.00094351     0.00234472     0.00079226
H        -0.97923258    -0.10777905    -0.92630557     0.00154603     0.00028542    -0.00107470
     6
  Step:    34            Position(A)                                  Velocity(au)
C        -0.04192984     0.06527490    -0.42518329    -0.00005219    -0.00011076    -0.00050034
N        -0.05733316    -0.11897001     1.69446736     0.00004638    -0.00028954     0.00047949
H         0.98135255     0.18020110    -0.85030240    -0.00082165     0.00175766    -0.00138834
H         0.90176330    -0.15723194     2.10297114    -0.00106511     0.00051843     0.00076487
H        -0.83696514     0.28720246     2.09721668     0.00044086     0.00277059     0.00105351
H        -0.96272604    -0.10453721    -0.93825640     0.00142335     0.00029659    -0.00113104
     6
  Step:    35            Position(A)                                  Velocity(au)
C        -0.04233303     0.06401035    -0.43010766    -0.00001875    -0.00011929    -0.00039876
N        -0.05658271    -0.12232102     1.69921437     0.00007973    -0.00032035     0.00039106
H         0.97147206     0.19970188    -0.86525740    -0.00097475     0.00180596    -0.00134294
H         0.88901590    -0.15091083     2.11064268    -0.00120924     0.00063707     0.00065214
H        -0.83459321     0.31976866     2.11000576     0.00008786     0.00314242     0.00123274
H        -0.94809410    -0.10129048    -0.95104914     0.00121167     0.00028765    -0.00122455
     6
  Step:    36            Position(A)                                  Velocity(au)
C        -0.04234013     0.06266528    -0.43390697     0.00001873    -0.00012577    -0.00029537
N        -0.05558895    -0.12597830     1.70302248     0.00008919    -0.00034413     0.00030832
H         0.96002795     0.21971003    -0.87968171    -0.00110417     0.00185126    -0.00129212
H         0.87530895    -0.14329479     2.11723805    -0.00123171     0.00075510     0.00057254
H        -0.83504296     0.35594883     2.12418530    -0.00006066     0.00341201     0.00129786
H        -0.93621836    -0.09824431    -0.96504586     0.00093390     0.00026235    -0.00134326
     6
  Step:    37            Position(A)                                  Velocity(au)
C        -0.04192322     0.06125895    -0.43656938     0.00005698    -0.00013084    -0.00019188
N        -0.05463150    -0.12984943     1.70595954     0.00007367    -0.00035894     0.00023168
H         0.94731629     0.24020166    -0.89352497    -0.00120394     0.00189528    -0.00123731
H         0.86206993    -0.13439163     2.12316816    -0.00112316     0.00087259     0.00053185
H        -0.83592034     0.39441292     2.13839889     0.00000138     0.00355291     0.00124073
H        -0.92766328    -0.09555101    -0.98043542     0.00062299     0.00022620    -0.00146826
     6
  Step:    38            Position(A)                                  Velocity(au)
C        -0.04109351     0.05980289    -0.43810476     0.00009247    -0.00013522    -0.00009042
N        -0.05397733    -0.13383073     1.70809086     0.00003603    -0.00036447     0.00016065
H         0.93368953     0.26117301    -0.90675018    -0.00127015     0.00193995    -0.00117930
H         0.85073768    -0.12420516     2.12887336    -0.00089286     0.00098984     0.00052840
H        -0.83501281     0.43367563     2.15132861     0.00024409     0.00356105     0.00107238
H        -0.92258925    -0.09329577    -0.99716695     0.00031632     0.00018523    -0.00157650
     6
  Step:    39            Position(A)                                  Velocity(au)
C        -0.03990031     0.05830085    -0.43854756     0.00012209    -0.00013954     0.00000682
N        -0.05384319    -0.13782300     1.70947415    -0.00001809    -0.00036149     0.00009469
H         0.91952927     0.28264177    -0.91932431    -0.00130161     0.00198701    -0.00111788
H         0.84253697    -0.11273708     2.13472798    -0.00057054     0.00110606     0.00055143
H        -0.83058034     0.47231779     2.16185925     0.00062032     0.00344833     0.00081423
H        -0.92074307    -0.09149872    -1.01492437     0.00004836     0.00014467    -0.00164495
     6
  Step:    40            Position(A)                                  Velocity(au)
C        -0.03842254     0.05675016    -0.43795547     0.00014374    -0.00014430     0.00009794
N        -0.05437305    -0.14173891     1.71016241    -0.00008165    -0.00035108     0.00003361
H         0.90521423     0.30464276    -0.93120604    -0.00130019     0.00203772    -0.00105157
H         0.83825592    -0.10000794     2.14093698    -0.00020305     0.00121793     0.00058192
H        -0.82144218     0.50911436     2.16914136     0.00108058     0.00323462     0.00049043
H        -0.92153122    -0.09013075    -1.03315343    -0.00015551     0.00010794    -0.00165496
     6
  Step:    41            Position(A)                                  Velocity(au)
C        -0.03675562     0.05514396    -0.43640484     0.00015658    -0.00014977     0.00018151
N        -0.05562954    -0.14550354     1.71020944    -0.00014742    -0.00033424    -0.00002236
H         0.89108523     0.32722082    -0.94232949    -0.00127079     0.00209253    -0.00097732
H         0.83809489    -0.08609246     2.14745867     0.00015480     0.00131864     0.00059648
H        -0.80694064     0.54308125     2.17258840     0.00158081     0.00294201     0.00012365
H        -0.92414516    -0.08913732    -1.05112969    -0.00028210     0.00007624    -0.00159501
     6
  Step:    42            Position(A)                                  Velocity(au)
C        -0.03499697     0.05347364    -0.43398452     0.00016095    -0.00015602     0.00025666
N        -0.05759810    -0.14905113     1.70967325    -0.00020895    -0.00031165    -0.00007291
H         0.87741321     0.35042082    -0.95258668    -0.00122087     0.00215092    -0.00089053
H         0.84164243    -0.07116013     2.15398602     0.00045211     0.00139810     0.00057312
H        -0.78685890     0.57347643     2.17184637     0.00208445     0.00259197    -0.00026638
H        -0.92770267    -0.08846291    -1.06804740    -0.00032991     0.00004883    -0.00146137
     6
  Step:    43            Position(A)                                  Velocity(au)
C        -0.03323463     0.05173082    -0.43079002     0.00015803    -0.00016296     0.00032298
N        -0.06020066    -0.15232143     1.70861444    -0.00026127    -0.00028372    -0.00011808
H         0.86437645     0.37427627    -0.96181149    -0.00115931     0.00221138    -0.00078539
H         0.84798563    -0.05550629     2.15999674     0.00065210     0.00144430     0.00049671
H        -0.76133932     0.59978557     2.16676085     0.00256123     0.00220511    -0.00066231
H        -0.93136264    -0.08806902    -1.08310004    -0.00030636     0.00002367    -0.00125681
     6
  Step:    44            Position(A)                                  Velocity(au)
C        -0.03153971     0.04990862    -0.42691874     0.00014951    -0.00017045     0.00038046
N        -0.06331399    -0.15525805     1.70709010    -0.00030109    -0.00025087    -0.00015857
H         0.85205108     0.39879892    -0.96976855    -0.00109522     0.00227156    -0.00065538
H         0.85590827    -0.03956328     2.16485246     0.00073704     0.00144519     0.00036185
H        -0.73082709     0.62171734     2.15735704     0.00298484     0.00180243    -0.00104796
H        -0.93440483    -0.08794502    -1.09554259    -0.00022419    -0.00000197    -0.00098856
     6