    14
  Step:     0            Position(A)                                  Velocity(au)
C        -6.01652362    -0.87996678    -0.14044690     0.00009599     0.00033638    -0.00016359
C        -4.67069346    -0.71135269     0.17441675    -0.00025730    -0.00015770     0.00009188
H        -6.62073176    -0.02442158    -0.47241470    -0.00003801    -0.00055775     0.00084727
H        -6.44928044    -1.83722965    -0.01468253     0.00032010     0.00097046     0.00037389
H        -4.13144927    -1.55455710     0.59973993    -0.00016700    -0.00025989     0.00038787
C        -3.96336819     0.49421225    -0.04357647     0.00038166    -0.00021529    -0.00007213
C        -2.62158729     0.61879306     0.16018680     0.00008400     0.00012258    -0.00001398
H        -4.47477299     1.36341388    -0.33635223    -0.00085107    -0.00101223     0.00034349
H        -2.08241061    -0.19429403     0.65489379    -0.00016671    -0.00041751    -0.00022993
C        -1.77019376     1.77447454    -0.05776552    -0.00033946    -0.00025699     0.00006612
H        -2.23962375     2.67213334    -0.55110071     0.00057773     0.00068468    -0.00012194
N        -0.50836536     1.68134964     0.22422689     0.00018950     0.00012989    -0.00005708
H         0.14641480     2.51700919     0.11050501    -0.00103696     0.00087382     0.00016813
H        -0.14716577     0.88908196     0.80126620    -0.00085306    -0.00004857     0.00011718
    14
  Step:     1            Position(A)                                  Velocity(au)
C        -6.01541560    -0.87615907    -0.14222748     0.00010727     0.00035829    -0.00016100
C        -4.67354415    -0.71310759     0.17542294    -0.00026076    -0.00016299     0.00009258
H        -6.62106006    -0.03100448    -0.46316885    -0.00003878    -0.00061360     0.00082975
H        -6.44669234    -1.82771556    -0.01055254     0.00014253     0.00074708     0.00038243
H        -4.13307269    -1.55758399     0.60386345    -0.00013768    -0.00028762     0.00036229
C        -3.95951818     0.49179732    -0.04439702     0.00032053    -0.00022660    -0.00007789
C        -2.62010376     0.62024208     0.16016570     0.00018552     0.00013986     0.00001052
H        -4.48537359     1.35369298    -0.33343580    -0.00107920    -0.00076123     0.00018842
H        -2.08437775    -0.19916847     0.65218542    -0.00019124    -0.00046631    -0.00026828
C        -1.77456265     1.77160945    -0.05720062    -0.00045307    -0.00026352     0.00003725
H        -2.23210701     2.67881679    -0.55177758     0.00079017     0.00052330     0.00000265
N        -0.50574691     1.68286703     0.22372218     0.00028341     0.00014708    -0.00003636
H         0.13354714     2.52454294     0.11267564    -0.00129686     0.00051159     0.00022993
H        -0.15699952     0.88965997     0.80160479    -0.00092971     0.00014945    -0.00004754
    14
  Step:     2            Position(A)                                  Velocity(au)
C        -6.01417691    -0.87212850    -0.14396914     0.00011923     0.00037571    -0.00015634
C        -4.67639808    -0.71491833     0.17644202    -0.00025767    -0.00016772     0.00009422
H        -6.62158010    -0.03784520    -0.45426225    -0.00007460    -0.00060269     0.00078495
H        -6.44616243    -1.82088574    -0.00631608    -0.00004904     0.00049420     0.00039162
H        -4.13446118    -1.56084940     0.60766566    -0.00012414    -0.00030312     0.00032894
C        -3.95635596     0.48925493    -0.04528050     0.00025540    -0.00023764    -0.00008395
C        -2.61752858     0.62185277     0.16041688     0.00028288     0.00015216     0.00003558
H        -4.49838248     1.34676052    -0.33223023    -0.00128178    -0.00051701     0.00003625
H        -2.08659433    -0.20449556     0.64902470    -0.00021096    -0.00050041    -0.00031139
C        -1.78010557     1.76870952    -0.05695054    -0.00055187    -0.00026401     0.00000925
H        -2.22233719     2.68358161    -0.55104275     0.00098416     0.00034120     0.00013182
N        -0.50216516     1.68456739     0.22343142     0.00036309     0.00016290    -0.00001860
H         0.11804358     2.52820112     0.11553510    -0.00150622     0.00018288     0.00029190
H        -0.16750502     0.89235157     0.80022619    -0.00097139     0.00032749    -0.00018918
    14
  Step:     3            Position(A)                                  Velocity(au)
C        -6.01280726    -0.86793980    -0.14564778     0.00013041     0.00038599    -0.00014941
C        -4.67918113    -0.71677683     0.17748427    -0.00024769    -0.00017149     0.00009676
H        -6.62269211    -0.04418943    -0.44599652    -0.00014650    -0.00052374     0.00071341
H        -6.44776515    -1.81690390    -0.00198520    -0.00023978     0.00024174     0.00039760
H        -4.13578859    -1.56421526     0.61105974    -0.00012600    -0.00030629     0.00028779
C        -3.95393083     0.48659856    -0.04623362     0.00018532    -0.00024673    -0.00009086
C        -2.61391521     0.62357098     0.16094403     0.00037478     0.00015963     0.00006075
H        -4.51341489     1.34238244    -0.33264280    -0.00144101    -0.00030585    -0.00010294
H        -2.08899284    -0.21011594     0.64537314    -0.00022315    -0.00052042    -0.00035663
C        -1.78663594     1.76583370    -0.05699819    -0.00063206    -0.00025980    -0.00001662
H        -2.21057666     2.68628125    -0.54889374     0.00114918     0.00015324     0.00025696
N        -0.49780363     1.68643074     0.22331524     0.00042409     0.00017629    -0.00000493
H         0.10059562     2.52854375     0.11906143    -0.00164069    -0.00007653     0.00034982
H        -0.17825051     0.89682448     0.79746611    -0.00097027     0.00046592    -0.00029336
    14
  Step:     4            Position(A)                                  Velocity(au)
C        -6.01132401    -0.86368427    -0.14723772     0.00013907     0.00038721    -0.00014017
C        -4.68181687    -0.71866995     0.17855879    -0.00023070    -0.00017375     0.00010003
H        -6.62478496    -0.04930292    -0.43865501    -0.00025069    -0.00038245     0.00061810
H        -6.45140804    -1.81559716     0.00238222    -0.00041521     0.00001859     0.00039631
H        -4.13721761    -1.56754998     0.61396172    -0.00014167    -0.00029831     0.00023934
C        -3.95230179     0.48385723    -0.04726818     0.00010947    -0.00025287    -0.00009896
C        -2.60932954     0.62534508     0.16174585     0.00046035     0.00016262     0.00008559
H        -4.52990730     1.34006938    -0.33448219    -0.00154329    -0.00014666    -0.00022169
H        -2.09147620    -0.21588064     0.64122282    -0.00022523    -0.00052754    -0.00040112
C        -1.79393315     1.76302579    -0.05731404    -0.00069131    -0.00025237    -0.00003935
H        -2.19719658     2.68693395    -0.54542122     0.00127599    -0.00002536     0.00036970
N        -0.49288730     1.68842399     0.22332366     0.00046345     0.00018597     0.00000389
H         0.08215030     2.52652693     0.12318800    -0.00167923    -0.00023173     0.00039998
H        -0.18873159     0.90254442     0.79380842    -0.00092124     0.00054834    -0.00034807
    14
  Step:     5            Position(A)                                  Velocity(au)
C        -6.00976490    -0.85946885    -0.14871424     0.00014328     0.00037860    -0.00012885
C        -4.68422817    -0.72057784     0.17967262    -0.00020667    -0.00017381     0.00010382
H        -6.62817634    -0.05255635    -0.43247431    -0.00037783    -0.00019221     0.00050441
H        -6.45684876    -1.81649719     0.00668491    -0.00056337    -0.00015210     0.00038433
H        -4.13888779    -1.57074133     0.61629570    -0.00016857    -0.00028140     0.00018446
C        -3.95153605     0.48106645    -0.04839857     0.00002724    -0.00025592    -0.00010836
C        -2.60384425     0.62712865     0.16281643     0.00053919     0.00016172     0.00010970
H        -4.54717741     1.33917393    -0.33749267    -0.00158109    -0.00004907    -0.00031581
H        -2.09392010    -0.22165690     0.63659791    -0.00021484    -0.00052348    -0.00044196
C        -1.80175974     1.76031264    -0.05785905    -0.00072886    -0.00024332    -0.00005821
H        -2.18266197     2.68572652    -0.54080584     0.00135682    -0.00017925     0.00046210
N        -0.48766472     1.69049915     0.22340033     0.00047998     0.00019064     0.00000750
H         0.06385934     2.52347422     0.12781169    -0.00160749    -0.00025363     0.00043975
H        -0.19840449     0.90882054     0.78985131    -0.00082264     0.00056386    -0.00034545
    14
  Step:     6            Position(A)                                  Velocity(au)
C        -6.00818947    -0.85540175    -0.15005646     0.00014110     0.00036066    -0.00011592
C        -4.68633823    -0.72247248     0.18082998    -0.00017574    -0.00017097     0.00010784
H        -6.63305074    -0.05350788    -0.42762017    -0.00051354     0.00002716     0.00037963
H        -6.46373279    -1.81892456     0.01079018    -0.00067614    -0.00025579     0.00035952
H        -4.14090549    -1.57370617     0.61799717    -0.00020336    -0.00025858     0.00012443
C        -3.95170596     0.47825848    -0.04963869    -0.00006144    -0.00025642    -0.00011888
C        -2.59753383     0.62888303     0.16414568     0.00061107     0.00015762     0.00013271
H        -4.56449661     1.33899591    -0.34139112    -0.00155325    -0.00001403    -0.00038430
H        -2.09617614    -0.22733285     0.63155416    -0.00018998    -0.00051036    -0.00047650
C        -1.80987836     1.75770264    -0.05858758    -0.00074535    -0.00023428    -0.00007275
H        -2.16751347     2.68301255    -0.53531195     0.00138584    -0.00029375     0.00052701
N        -0.48238675     1.69259451     0.22348766     0.00047456     0.00018935     0.00000603
H         0.04698337     2.52097835     0.13280831    -0.00142244    -0.00012679     0.00046836
H        -0.20672848     0.91487992     0.78625111    -0.00067685     0.00050957    -0.00028358
    14
  Step:     7            Position(A)                                  Velocity(au)
C        -6.00667817    -0.85157866    -0.15125014     0.00013080     0.00033502    -0.00010205
C        -4.68807288    -0.72431804     0.18203194    -0.00013840    -0.00016468     0.00011183
H        -6.63941106    -0.05196221    -0.42416913    -0.00064025     0.00025218     0.00025215
H        -6.47164061    -1.82209317     0.01455002    -0.00074979    -0.00028736     0.00032127
H        -4.14333675    -1.57639825     0.61901792    -0.00024219    -0.00023336     0.00006104
C        -3.95288015     0.47545675    -0.05099935    -0.00015542    -0.00025511    -0.00013013
C        -2.59047589     0.63057681     0.16571981     0.00067514     0.00015065     0.00015432
H        -4.58115771     1.33886699    -0.34590005    -0.00146405    -0.00003605    -0.00042879
H        -2.09807636    -0.23282205     0.62617351    -0.00014908    -0.00049064    -0.00050279
C        -1.81806560     1.75518733    -0.05945062    -0.00074226    -0.00022640    -0.00008281
H        -2.15234399     2.67930028    -0.52927645     0.00135961    -0.00035608     0.00055865
N        -0.47728272     1.69464158     0.22353218     0.00045012     0.00018208     0.00000007
H         0.03274065     2.52070044     0.13805798    -0.00113660     0.00014156     0.00048763
H        -0.21321194     0.91996826     0.78364744    -0.00049037     0.00039239    -0.00016800
    14
  Step:     8            Position(A)                                  Velocity(au)
C        -6.00532801    -0.84807252    -0.15228903     0.00011127     0.00030395    -0.00008796
C        -4.68936593    -0.72607526     0.18327638    -0.00009574    -0.00015496     0.00011549
H        -6.64705744    -0.04799101    -0.42210387    -0.00074017     0.00045960     0.00013019
H        -6.48013599    -1.82521118     0.01781865    -0.00078458    -0.00024976     0.00027031
H        -4.14620378    -1.57881128     0.61933258    -0.00028107    -0.00020940    -0.00000324
C        -3.95510603     0.47267755    -0.05248558    -0.00025186    -0.00025236    -0.00014151
C        -2.58276388     0.63217875     0.16752164     0.00072916     0.00014034     0.00017422
H        -4.59652551     1.33820723    -0.35077164    -0.00132165    -0.00010560    -0.00045273
H        -2.09943756    -0.23806645     0.62055471    -0.00009099    -0.00046695    -0.00051983
C        -1.82611674     1.75274969    -0.06039925    -0.00072114    -0.00021985    -0.00008856
H        -2.13776938     2.67522251    -0.52309032     0.00127757    -0.00035748     0.00055343
N        -0.47253943     1.69657788     0.22348926     0.00041121     0.00017007    -0.00000941
H         0.02211802     2.52407526     0.14347612    -0.00077929     0.00051616     0.00050203
H        -0.21745622     0.92346414     0.78257589    -0.00027342     0.00022955    -0.00001197
    14
  Step:     9            Position(A)                                  Velocity(au)
C        -6.00424390    -0.84492918    -0.15317436     0.00008226     0.00026991    -0.00007423
C        -4.69016747    -0.72770810     0.18455844    -0.00004957    -0.00014233     0.00011858
H        -6.65560376    -0.04190753    -0.42132107    -0.00079842     0.00063013     0.00002063
H        -6.48880470    -1.82755721     0.02046361    -0.00078381    -0.00015186     0.00020827
H        -4.14948564    -1.58097924     0.61894699    -0.00031618    -0.00019025    -0.00006544
C        -3.95839007     0.46993581    -0.05409506    -0.00034663    -0.00024812    -0.00015231
C        -2.57452423     0.63364692     0.16953121     0.00076983     0.00012539     0.00019222
H        -4.61007129     1.33655671    -0.35580436    -0.00113662    -0.00021116    -0.00046062
H        -2.10006700    -0.24303752     0.61480133    -0.00001527    -0.00044182    -0.00052752
C        -1.83384198     1.75037775    -0.06138808    -0.00068313    -0.00021363    -0.00009046
H        -2.12439476     2.67147964    -0.51716906     0.00114234    -0.00029523     0.00051086
N        -0.46828676     1.69836210     0.22332640     0.00036322     0.00015579    -0.00002121
H         0.01569216     2.53199238     0.14904074    -0.00039275     0.00093650     0.00051776
H        -0.21919353     0.92499021     0.78338548    -0.00003891     0.00004680     0.00016483
    14
  Step:    10            Position(A)                                  Velocity(au)
C        -6.00352848    -0.84216778    -0.15391291     0.00004438     0.00023516    -0.00006126
C        -4.69045040    -0.72918891     0.18587046    -0.00000204    -0.00012758     0.00012083
H        -6.66452432    -0.03420576    -0.42165245    -0.00080520     0.00075082    -0.00007183
H        -6.49728343    -1.82853347     0.02237503    -0.00075300    -0.00000628     0.00013748
H        -4.15312073    -1.58297330     0.61790095    -0.00034399    -0.00017905    -0.00012263
C        -3.96268914     0.46724942    -0.05581774    -0.00043545    -0.00024217    -0.00016189
C        -2.56592240     0.63492180     0.17172673     0.00079403     0.00010426     0.00020819
H        -4.62139115     1.33358771    -0.36084866    -0.00092081    -0.00034037    -0.00045730
H        -2.09977165    -0.24773202     0.60901421     0.00007761    -0.00041721    -0.00052626
C        -1.84106147     1.74807615    -0.06237827    -0.00062920    -0.00020596    -0.00008925
H        -2.11277851     2.66876370    -0.51191436     0.00095979    -0.00017443     0.00043434
N        -0.46459332     1.69998606     0.22302532     0.00031159     0.00014239    -0.00003398
H         0.01352587     2.54456306     0.15480302    -0.00002331     0.00132946     0.00054084
H        -0.21830744     0.92448790     0.78618182     0.00019923    -0.00012592     0.00033945
    14
  Step:    11            Position(A)                                  Velocity(au)
C        -6.00327306    -0.83978465    -0.15451465    -0.00000103     0.00020153    -0.00004926
C        -4.69021216    -0.73049909     0.18720179     0.00004468    -0.00011149     0.00012197
H        -6.67321895    -0.02548180    -0.42289245    -0.00075676     0.00081596    -0.00014503
H        -6.50527792    -1.82769451     0.02347127    -0.00069885     0.00017258     0.00006068
H        -4.15701111    -1.58489620     0.61626422    -0.00036145    -0.00017828    -0.00017240
C        -3.96791636     0.46463786    -0.05763662    -0.00051487    -0.00023453    -0.00016964
C        -2.55715339     0.63592784     0.17408584     0.00079979     0.00007579     0.00022215
H        -4.63021573     1.32911045    -0.36580862    -0.00068666    -0.00048057    -0.00044764
H        -2.09836920    -0.25216478     0.60328827     0.00018615    -0.00039442    -0.00051670
C        -1.84760692     1.74587197    -0.06334049    -0.00056065    -0.00019472    -0.00008589
H        -2.10339757     2.66766371    -0.50766694     0.00073862    -0.00000864     0.00033150
N        -0.46147011     1.70147718     0.22258311     0.00026105     0.00013276    -0.00004631
H         0.01518215     2.56107676     0.16087256     0.00028904     0.00162743     0.00057504
H        -0.21483506     0.92223555     0.79081150     0.00042773    -0.00025984     0.00048952
    14
  Step:    12            Position(A)                                  Velocity(au)
C        -6.00355096    -0.83775887    -0.15499060    -0.00005211     0.00017039    -0.00003825
C        -4.68947304    -0.73162802     0.18853881     0.00008864    -0.00009474     0.00012174
H        -6.68107995    -0.01635501    -0.42482531    -0.00065496     0.00082620    -0.00019899
H        -6.51257204    -1.82475797     0.02370251    -0.00062884     0.00036960    -0.00001913
H        -4.16102814    -1.58687342     0.61412932    -0.00036621    -0.00018949    -0.00021304
C        -3.97395281     0.46211866    -0.05952894    -0.00058243    -0.00022553    -0.00017510
C        -2.54842543     0.63657976     0.17658672     0.00078657     0.00003939     0.00023417
H        -4.63641314     1.32307425    -0.37064156    -0.00044672    -0.00061907    -0.00043646
H        -2.09569921    -0.25636063     0.59771048     0.00030795    -0.00037399    -0.00049961
C        -1.85332680     1.74381627    -0.06425729    -0.00047919    -0.00017778    -0.00008153
H        -2.09661976     2.66857466    -0.50466225     0.00048948     0.00018139     0.00021325
N        -0.45888236     1.70289040     0.22201213     0.00021501     0.00012876    -0.00005692
H         0.01984907     2.58016616     0.16738319     0.00051817     0.00178380     0.00062084
H        -0.20894998     0.91880339     0.79689093     0.00063544    -0.00033250     0.00059681
    14
  Step:    13            Position(A)                                  Velocity(au)
C        -6.00441313    -0.83605702    -0.15535137    -0.00010670     0.00014270    -0.00002814
C        -4.68827291    -0.73257179     0.18986516     0.00012820    -0.00007794     0.00011994
H        -6.68754753    -0.00740715    -0.42724574    -0.00050602     0.00078702    -0.00023527
H        -6.51903504    -1.81960880     0.02305275    -0.00055092     0.00056950    -0.00009887
H        -4.16502258    -1.58904170     0.61160347    -0.00035685    -0.00021307    -0.00024359
C        -3.98065818     0.45970399    -0.06146721    -0.00063654    -0.00021576    -0.00017787
C        -2.53994563     0.63678949     0.17920868     0.00075502    -0.00000486     0.00024434
H        -4.63998861     1.31556703    -0.37535702    -0.00021343    -0.00074323    -0.00042860
H        -2.09163215    -0.26034663     0.59235828     0.00043982    -0.00035588    -0.00047606
C        -1.85809003     1.74198272    -0.06512408    -0.00038684    -0.00015330    -0.00007728
H        -2.09268917     2.67163199    -0.50300163     0.00022381     0.00037084     0.00009229
N        -0.45676632     1.70429404     0.22133794     0.00017538     0.00013098    -0.00006477
H         0.02651807     2.60010088     0.17445456     0.00065401     0.00177970     0.00067563
H        -0.20093354     0.91496138     0.80386782     0.00081411    -0.00033087     0.00064962
    14
  Step:    14            Position(A)                                  Velocity(au)
C        -6.00588528    -0.83463704    -0.15560627    -0.00016245     0.00011914    -0.00001881
C        -4.68666844    -0.73333311     0.19116265     0.00016197    -0.00006169     0.00011642
H        -6.69215005     0.00086251    -0.42997222    -0.00031913     0.00070720    -0.00025642
H        -6.52462447    -1.81229909     0.02153948    -0.00047327     0.00075710    -0.00017550
H        -4.16883488    -1.59153483     0.60880023    -0.00033299    -0.00024803    -0.00026386
C        -3.98787826     0.45739842    -0.06342014    -0.00067618    -0.00020601    -0.00017764
C        -2.53190802     0.63647353     0.18193220     0.00070675    -0.00005621     0.00025277
H        -4.64108233     1.30681472    -0.38001808     0.00000110    -0.00084051    -0.00042896
H        -2.08607725    -0.26414626     0.58729569     0.00057797    -0.00033952    -0.00044734
C        -1.86178968     1.74046247    -0.06594802    -0.00028588    -0.00012011    -0.00007409
H        -2.09172355     2.67668753    -0.50264330    -0.00004724     0.00053496    -0.00001901
N        -0.45504561     1.70575582     0.22059508     0.00014269     0.00013894    -0.00006930
H         0.03415690     2.61910044     0.18216385     0.00070011     0.00162151     0.00073497
H        -0.19113967     0.91156495     0.81110253     0.00095871    -0.00025211     0.00064355
    14
  Step:    15            Position(A)                                  Velocity(au)
C        -6.00796709    -0.83345067    -0.15576292    -0.00021701     0.00010019    -0.00001010
C        -4.68472954    -0.73392133     0.19241216     0.00018890    -0.00004661     0.00011117
H        -6.69452917     0.00806418    -0.43285546    -0.00010517     0.00059732    -0.00026559
H        -6.52938862    -1.80304576     0.01921325    -0.00040419     0.00091758    -0.00024607
H        -4.17230744    -1.59446780     0.60583101    -0.00029537    -0.00029191    -0.00027442
C        -3.99545102     0.45519720    -0.06535335    -0.00070086    -0.00019714    -0.00017415
C        -2.52448419     0.63555985     0.18473850     0.00064412    -0.00011332     0.00025947
H        -4.63996458     1.29717926    -0.38474136     0.00018545    -0.00089887    -0.00044234
H        -2.07898786    -0.26777429     0.58257187     0.00071822    -0.00032395    -0.00041484
C        -1.86434423     1.73935516    -0.06674496    -0.00017866    -0.00007795    -0.00007254
H        -2.09372269     2.68333534    -0.50341741    -0.00031357     0.00065317    -0.00011039
N        -0.45364463     1.70733355     0.21982197     0.00011648     0.00015156    -0.00007036
H         0.04183426     2.63557443     0.19053341     0.00066881     0.00133300     0.00079388
H        -0.17995992     0.90944590     0.81794667     0.00106723    -0.00010249     0.00058086
    14
  Step:    16            Position(A)                                  Velocity(au)
C        -6.01063282    -0.83244510    -0.15582728    -0.00026815     0.00008622    -0.00000187
C        -4.68253580    -0.73435281     0.19359480     0.00020830    -0.00003335     0.00010426
H        -6.69445085     0.01392994    -0.43578249     0.00012428     0.00046883    -0.00026619
H        -6.53346698    -1.79222527     0.01615626    -0.00035191     0.00103684    -0.00030782
H        -4.17529669    -1.59792099     0.60279675    -0.00024576    -0.00034093    -0.00027655
C        -4.00321097     0.45308557    -0.06723005    -0.00071044    -0.00019007    -0.00016722
C        -2.51781677     0.63399434     0.18760866     0.00056997    -0.00017433     0.00026440
H        -4.63702525     1.28715013    -0.38969518     0.00032953    -0.00090746    -0.00047330
H        -2.07036479    -0.27123319     0.57822038     0.00085618    -0.00030796    -0.00038002
C        -1.86569822     1.73875715    -0.06753492    -0.00006756    -0.00002770    -0.00007278
H        -2.09858343     2.69097678    -0.50505837    -0.00056656     0.00071174    -0.00017498
N        -0.45249735     1.70907157     0.21905583     0.00009565     0.00016762    -0.00006826
H         0.04878831     2.64826229     0.19953140     0.00057682     0.00094701     0.00084777
H        -0.16779205     0.90932279     0.82380990     0.00114020     0.00010500     0.00046894
    14
  Step:    17            Position(A)                                  Velocity(au)
C        -6.01383339    -0.83156452    -0.15580378    -0.00031384     0.00007739     0.00000603
C        -4.68017247    -0.73465101     0.19469300     0.00021979    -0.00002258     0.00009584
H        -6.69181037     0.01832070    -0.43867886     0.00035742     0.00033362    -0.00026186
H        -6.53708733    -1.78036281     0.01247919    -0.00032413     0.00110220    -0.00035832
H        -4.17768391    -1.60192633     0.59978087    -0.00018679    -0.00039022    -0.00027211
C        -4.01099320     0.45103908    -0.06901168    -0.00070516    -0.00018555    -0.00015676
C        -2.51201496     0.63174612     0.19052273     0.00048748    -0.00023692     0.00026741
H        -4.63275542     1.27732688    -0.39509564     0.00042572    -0.00085796    -0.00052554
H        -2.06025726    -0.27451139     0.57425825     0.00098745    -0.00029023    -0.00034433
C        -1.86582216     1.73874926    -0.06833725     0.00004507     0.00002874    -0.00007457
H        -2.10611720     2.69890604    -0.50724537    -0.00079922     0.00070486    -0.00020951
N        -0.45155215     1.71100058     0.21832867     0.00007877     0.00018594    -0.00006361
H         0.05445335     2.65629204     0.20908011     0.00044219     0.00049943     0.00089298
H        -0.15501590     0.91174294     0.82820571     0.00118014     0.00035311     0.00031865
    14
  Step:    18            Position(A)                                  Velocity(au)
C        -6.01749861    -0.83075206    -0.15569533    -0.00035233     0.00007365     0.00001375
C        -4.67772740    -0.73484677     0.19569152     0.00022328    -0.00001493     0.00008617
H        -6.68663152     0.02122858    -0.44151111     0.00058268     0.00020373    -0.00025640
H        -6.54055798    -1.76811257     0.00831737    -0.00032734     0.00110364    -0.00039572
H        -4.17938313    -1.60645773     0.59684388    -0.00012168    -0.00043429    -0.00026326
C        -4.01863761     0.44902624    -0.07065937    -0.00068567    -0.00018403    -0.00014280
C        -2.50715230     0.62881131     0.19345875     0.00039988    -0.00029858     0.00026830
H        -4.62771180     1.26838051    -0.40119228     0.00047031    -0.00074663    -0.00060112
H        -2.04876246    -0.27758251     0.57068750     0.00110775    -0.00026946    -0.00030911
C        -1.86471216     1.73938588    -0.06916618     0.00015695     0.00008862    -0.00007727
H        -2.11606788     2.70639701    -0.50964187    -0.00100613     0.00063393    -0.00021404
N        -0.45077403     1.71313942     0.21766435     0.00006429     0.00020551    -0.00005723
H         0.05846203     2.65918819     0.21906707     0.00028285     0.00002619     0.00092682
H        -0.14197420     0.91704764     0.83078104     0.00119110     0.00062223     0.00014292
    14
  Step:    19            Position(A)                                  Velocity(au)
C        -6.02154119    -0.82995324    -0.15550305    -0.00038228     0.00007456     0.00002147
C        -4.67528780    -0.73497772     0.19657809     0.00021894    -0.00001100     0.00007553
H        -6.67906313     0.02277758    -0.44428804     0.00078892     0.00009110    -0.00025373
H        -6.54424855    -1.75621868     0.00382210    -0.00036573     0.00103564    -0.00041909
H        -4.18034591    -1.61142729     0.59402145    -0.00005389    -0.00046766    -0.00025225
C        -4.02599351     0.44701312    -0.07213579    -0.00065307    -0.00018541    -0.00012564
C        -2.50326686     0.62521422     0.19639220     0.00031032    -0.00035676     0.00026681
H        -4.62246647     1.26099283    -0.40824631     0.00046487    -0.00057626    -0.00069961
H        -2.03602301    -0.28040631     0.56749597     0.00121311    -0.00024448    -0.00027557
C        -1.86238852     1.74068795    -0.07002771     0.00026595     0.00014874    -0.00008008
H        -2.12812816     2.71277456    -0.51192786    -0.00118325     0.00050586    -0.00019105
N        -0.45014564     1.71549651     0.21707676     0.00005056     0.00022539    -0.00005008
H         0.06064132     2.65686492     0.22935598     0.00011655    -0.00043728     0.00094759
H        -0.12895821     0.92535549     0.83133234     0.00117831     0.00089180    -0.00004425
    14
  Step:    20            Position(A)                                  Velocity(au)
C        -6.02586162    -0.82912091    -0.15522565    -0.00040285     0.00007916     0.00002946
C        -4.67293769    -0.73508739     0.19734387     0.00020715    -0.00001125     0.00006424
H        -6.66937230     0.02322155    -0.44706187     0.00096587     0.00000731    -0.00025782
H        -6.54855899    -1.74545601    -0.00085095    -0.00044008     0.00089900    -0.00042869
H        -4.18056200    -1.61668860     0.59132549     0.00001324    -0.00048543    -0.00024105
C        -4.03292485     0.44497005    -0.07340788    -0.00060896    -0.00018895    -0.00010580
C        -2.50036338     0.62100655     0.19929582     0.00022171    -0.00040910     0.00026273
H        -4.61754182     1.25577369    -0.41649750     0.00041714    -0.00035773    -0.00081715
H        -2.02222327    -0.28293090     0.56465884     0.00129992    -0.00021436    -0.00024479
C        -1.85889410     1.74263995    -0.07091807     0.00037008     0.00020581    -0.00008208
H        -2.14195364     2.71746357    -0.51382150    -0.00132779     0.00033122    -0.00014468
N        -0.44966784     1.71807018     0.21656877     0.00003592     0.00024462    -0.00004320