 Fermi distribution function

Calculation with static geometry


********************************************************************************
 iSCC Total electronic   Diff electronic      SCC error    
   14   -0.52618005E+01   -0.38813397E-12    0.61985572E-09
********************************************************************************

 Total charge:     1.00000000

 Atomic gross charges (e)
 Atom           Charge
    1       0.30483516
    2      -0.18713417
    3       0.18756660
    4       0.26034180
    5       0.25230515
    6       0.18208545

Nr. of electrons (up):     12.00000000
Atom populations (up)
 Atom       Population
    1       3.69516484
    2       5.18713417
    3       0.81243340
    4       0.73965820
    5       0.74769485
    6       0.81791455

l-shell populations (up)
 Atom Sh.   l       Population
    1   1   0       1.41901451
    1   2   1       2.27615033
    2   1   0       1.54008338
    2   2   1       3.64705079
    3   1   0       0.81243340
    4   1   0       0.73965820
    5   1   0       0.74769485
    6   1   0       0.81791455

Orbital populations (up)
 Atom Sh.   l   m       Population  Label
    1   1   0   0       1.41901451  s
    1   2   1  -1       0.40374207  p_y
    1   2   1   0       0.87243258  p_z
    1   2   1   1       0.99997568  p_x
    2   1   0   0       1.54008338  s
    2   2   1  -1       1.39722622  p_y
    2   2   1   0       1.08359520  p_z
    2   2   1   1       1.16622937  p_x
    3   1   0   0       0.81243340  s
    4   1   0   0       0.73965820  s
    5   1   0   0       0.74769485  s
    6   1   0   0       0.81791455  s

Fermi level:                        -0.5238394620 H          -14.2544 eV
Band energy:                        -8.6706387594 H         -235.9401 eV
TS:                                  0.0000000000 H            0.0000 eV
Band free energy (E-TS):            -8.6706387594 H         -235.9401 eV
Extrapolated E(0K):                 -8.6706387594 H         -235.9401 eV
Input / Output electrons (q):     12.0000000000     12.0000000000

Energy H0:                          -5.3997921861 H         -146.9358 eV
Energy SCC:                          0.1379917260 H            3.7549 eV
Total Electronic energy:            -5.2618004601 H         -143.1809 eV
Repulsive energy:                    0.1379512195 H            3.7538 eV
Total energy:                       -5.1238492406 H         -139.4270 eV
Extrapolated to 0:                  -5.1238492406 H         -139.4270 eV
Total Mermin free energy:           -5.1238492406 H         -139.4270 eV
Force related energy:               -5.1238492406 H         -139.4270 eV

SCC converged

Excitation Energy:                   0.1005699747 H            2.7366 eV

Total Forces
    1      0.002734137557     -0.005255166205      0.021345800125
    2     -0.021783523997      0.010395839460     -0.027373047056
    3      0.002958137581     -0.005199795462     -0.006747575550
    4      0.009510620074      0.009563409525      0.006870330707
    5      0.006638810472     -0.014768400554      0.007084336405
    6     -0.000058181687      0.005264113236     -0.001179844631

Maximal derivative component:        0.273730E-01 au


