 Fermi distribution function

Calculation with static geometry


********************************************************************************
 iSCC Total electronic   Diff electronic      SCC error    
   13   -0.52832067E+01   -0.33795189E-10    0.12651857E-07
********************************************************************************

 Total charge:     1.00000000

 Atomic gross charges (e)
 Atom           Charge
    1       0.31668389
    2      -0.20214584
    3       0.16778609
    4       0.25842073
    5       0.27274743
    6       0.18650769

Nr. of electrons (up):     12.00000000
Atom populations (up)
 Atom       Population
    1       3.68331611
    2       5.20214584
    3       0.83221391
    4       0.74157927
    5       0.72725257
    6       0.81349231

l-shell populations (up)
 Atom Sh.   l       Population
    1   1   0       1.39359675
    1   2   1       2.28971936
    2   1   0       1.51311452
    2   2   1       3.68903132
    3   1   0       0.83221391
    4   1   0       0.74157927
    5   1   0       0.72725257
    6   1   0       0.81349231

Orbital populations (up)
 Atom Sh.   l   m       Population  Label
    1   1   0   0       1.39359675  s
    1   2   1  -1       0.43368343  p_y
    1   2   1   0       0.87067814  p_z
    1   2   1   1       0.98535779  p_x
    2   1   0   0       1.51311452  s
    2   2   1  -1       1.34033793  p_y
    2   2   1   0       1.08541993  p_z
    2   2   1   1       1.26327346  p_x
    3   1   0   0       0.83221391  s
    4   1   0   0       0.74157927  s
    5   1   0   0       0.72725257  s
    6   1   0   0       0.81349231  s

Fermi level:                        -0.5138479587 H          -13.9825 eV
Band energy:                        -8.7034773275 H         -236.8337 eV
TS:                                  0.0000000000 H            0.0000 eV
Band free energy (E-TS):            -8.7034773275 H         -236.8337 eV
Extrapolated E(0K):                 -8.7034773275 H         -236.8337 eV
Input / Output electrons (q):     12.0000000000     12.0000000000

Energy H0:                          -5.4205817430 H         -147.5015 eV
Energy SCC:                          0.1373750430 H            3.7382 eV
Total Electronic energy:            -5.2832067000 H         -143.7634 eV
Repulsive energy:                    0.1419278103 H            3.8621 eV
Total energy:                       -5.1412788897 H         -139.9013 eV
Extrapolated to 0:                  -5.1412788897 H         -139.9013 eV
Total Mermin free energy:           -5.1412788897 H         -139.9013 eV
Force related energy:               -5.1412788897 H         -139.9013 eV

SCC converged

Excitation Energy:                   0.0945564272 H            2.5730 eV

Total Forces
    1     -0.000020554594     -0.003064198505      0.053175756895
    2     -0.007378228191      0.013595629027     -0.064449988305
    3     -0.004625918592      0.009392074333     -0.000457832115
    4     -0.001615788955     -0.013499113505      0.003116925133
    5      0.007673856255      0.006864702404      0.005556344875
    6      0.005966634077     -0.013289093755      0.003058793518

Maximal derivative component:        0.644500E-01 au


