 Fermi distribution function

Calculation with static geometry


********************************************************************************
 iSCC Total electronic   Diff electronic      SCC error    
   10   -0.53903685E+01   -0.29309888E-12    0.36818523E-06
********************************************************************************

 Total charge:     1.00000000

 Atomic gross charges (e)
 Atom           Charge
    1       0.19562610
    2      -0.09696115
    3       0.19813714
    4       0.27514349
    5       0.28978763
    6       0.13826679

Nr. of electrons (up):     12.00000000
Atom populations (up)
 Atom       Population
    1       3.80437390
    2       5.09696115
    3       0.80186286
    4       0.72485651
    5       0.71021237
    6       0.86173321

l-shell populations (up)
 Atom Sh.   l       Population
    1   1   0       1.31224615
    1   2   1       2.49212775
    2   1   0       1.41906762
    2   2   1       3.67789353
    3   1   0       0.80186286
    4   1   0       0.72485651
    5   1   0       0.71021237
    6   1   0       0.86173321

Orbital populations (up)
 Atom Sh.   l   m       Population  Label
    1   1   0   0       1.31224615  s
    1   2   1  -1       0.57819673  p_y
    1   2   1   0       0.88378923  p_z
    1   2   1   1       1.03014178  p_x
    2   1   0   0       1.41906762  s
    2   2   1  -1       1.31761638  p_y
    2   2   1   0       1.09478181  p_z
    2   2   1   1       1.26549534  p_x
    3   1   0   0       0.80186286  s
    4   1   0   0       0.72485651  s
    5   1   0   0       0.71021237  s
    6   1   0   0       0.86173321  s

Fermi level:                        -0.4921302512 H          -13.3915 eV
Band energy:                        -8.8891114007 H         -241.8850 eV
TS:                                  0.0000000000 H            0.0000 eV
Band free energy (E-TS):            -8.8891114007 H         -241.8850 eV
Extrapolated E(0K):                 -8.8891114007 H         -241.8850 eV
Input / Output electrons (q):     12.0000000000     12.0000000000

Energy H0:                          -5.5233643927 H         -150.2984 eV
Energy SCC:                          0.1329958603 H            3.6190 eV
Total Electronic energy:            -5.3903685324 H         -146.6794 eV
Repulsive energy:                    0.1887808158 H            5.1370 eV
Total energy:                       -5.2015877166 H         -141.5424 eV
Extrapolated to 0:                  -5.2015877166 H         -141.5424 eV
Total Mermin free energy:           -5.2015877166 H         -141.5424 eV
Force related energy:               -5.2015877166 H         -141.5424 eV

SCC converged

Excitation Energy:                   0.1088548594 H            2.9621 eV

Total Forces
    1      0.003332748782      0.012453904011      0.035726134084
    2     -0.009119550607      0.004663912227     -0.039616688065
    3     -0.006785806714      0.002950173826     -0.000444023460
    4     -0.004666066312     -0.010159071314      0.006015355472
    5      0.014287552845      0.001565281674     -0.003150006626
    6      0.002951122006     -0.011474200424      0.001469228594

Maximal derivative component:        0.396167E-01 au


