|===============================================================================
|
|  DFTB+ release 20.1
|
|  Copyright (C) 2006 - 2020  DFTB+ developers group
|
|===============================================================================
|
|  When publishing results obtained with DFTB+, please cite the following
|  reference:
|
|  * DFTB+, a software package for efficient approximate density functional
|    theory based atomistic simulations, J. Chem. Phys. 152, 124101 (2020).
|    [doi: 10.1063/1.5143190]
|
|  You should also cite additional publications crediting the parametrization
|  data you use. Please consult the documentation of the SK-files for the
|  references.
|
|===============================================================================

Reading input file 'dftb_in.hsd'
Parser version: 8

--------------------------------------------------------------------------------
Reading SK-files:
Done.


Processed input in HSD format written to 'dftb_pin.hsd'

Starting initialization...
--------------------------------------------------------------------------------
WARNING!
-> Excited state forces are not implemented yet for fractional occupations, kT=  0.3158E-02K
OpenMP threads:              1
Chosen random seed:          507948134
Mode:                        Static calculation
Self consistent charges:     Yes
SCC-tolerance:                 0.100000E-05
Max. scc iterations:                    100
Shell resolved Hubbard:      No
Spin polarisation:           No
Nr. of up electrons:             6.000000
Nr. of down electrons:           6.000000
Periodic boundaries:         No
Electronic solver:           Relatively robust
Mixer:                       Broyden mixer
Mixing parameter:                  0.200000
Maximal SCC-cycles:                     100
Nr. of chrg. vec. in memory:              0
Electronic temperature:        0.100000E-07 H      0.272114E-06 eV
Initial charges:             Set automatically (system chrg:   0.100E+01)
Included shells:             C:  s, p
                             N:  s, p
                             H:  s
Extra options:
                             Mulliken analysis
                             Force calculation
Force type                   original
                             Eigenvector printing

--------------------------------------------------------------------------------

***  Geometry step: 0

 iSCC Total electronic   Diff electronic      SCC error    
    1   -0.53815963E+01    0.00000000E+00    0.73830535E+00
    2   -0.53867185E+01   -0.51222027E-02    0.49567280E+00
    3   -0.53899416E+01   -0.32231046E-02    0.95137705E-01
    4   -0.53902563E+01   -0.31464616E-03    0.53754742E-01
    5   -0.53903676E+01   -0.11130521E-03    0.11108332E-01
    6   -0.53903684E+01   -0.84841514E-06    0.22883917E-02
    7   -0.53903685E+01   -0.10808452E-06    0.99232690E-04
    8   -0.53903685E+01   -0.39864290E-09    0.65875105E-04
    9   -0.53903685E+01   -0.19222846E-09    0.30166181E-05
   10   -0.53903685E+01   -0.29309888E-12    0.36818523E-06
>> Charges saved for restart in charges.bin

Total Energy:                       -5.0927328572 H         -138.5803 eV
Extrapolated to 0:                  -5.2015877166 H         -141.5424 eV
Total Mermin free energy:           -5.0927328572 H         -138.5803 eV
Force related energy:               -5.2015877166 H         -141.5424 eV

--------------------------------------------------------------------------------
DFTB+ running times                          cpu [s]             wall clock [s]
--------------------------------------------------------------------------------
SCC                                    +     0.00  ( 46.4%)      0.03  ( 59.6%)
Post-SCC processing                    +     0.00  ( 44.2%)      0.01  ( 29.8%)
--------------------------------------------------------------------------------
Missing                                +     0.00  (  9.4%)      0.00  ( 10.6%)
Total                                  =     0.01  (100.0%)      0.05  (100.0%)
--------------------------------------------------------------------------------
