     6
  Step:   300            Position(A)                                  Velocity(au)
C        -0.03429557     0.00955551     0.01293708    -0.00002267     0.00001359    -0.00007094
N        -0.04634622    -0.04932799     1.30098853     0.00003459    -0.00000074     0.00006418
H         0.03164142     0.98124505    -0.48024681     0.00024145    -0.00012118    -0.00035404
H        -0.26838406    -0.91639897     1.79792119     0.00007910    -0.00002663     0.00013455
H         0.16283788     0.75796721     1.89427611    -0.00038689    -0.00008750     0.00027932
H        -0.08630774    -0.92096243    -0.55306819    -0.00014421     0.00008364    -0.00010643
