 Fermi distribution function

Calculation with static geometry


********************************************************************************
 iSCC Total electronic   Diff electronic      SCC error    
   10   -0.54261572E+01   -0.15720758E-12    0.97116061E-06
********************************************************************************

 Total charge:     1.00000000

 Atomic gross charges (e)
 Atom           Charge
    1       0.25904216
    2      -0.15244086
    3       0.16843938
    4       0.29285739
    5       0.30103418
    6       0.13106774

Nr. of electrons (up):     12.00000000
Atom populations (up)
 Atom       Population
    1       3.74095784
    2       5.15244086
    3       0.83156062
    4       0.70714261
    5       0.69896582
    6       0.86893226

l-shell populations (up)
 Atom Sh.   l       Population
    1   1   0       1.27489524
    1   2   1       2.46606260
    2   1   0       1.39015701
    2   2   1       3.76228385
    3   1   0       0.83156062
    4   1   0       0.70714261
    5   1   0       0.69896582
    6   1   0       0.86893226

Orbital populations (up)
 Atom Sh.   l   m       Population  Label
    1   1   0   0       1.27489524  s
    1   2   1  -1       0.59294420  p_y
    1   2   1   0       0.90664771  p_z
    1   2   1   1       0.96647069  p_x
    2   1   0   0       1.39015701  s
    2   2   1  -1       1.35376695  p_y
    2   2   1   0       1.09380295  p_z
    2   2   1   1       1.31471395  p_x
    3   1   0   0       0.83156062  s
    4   1   0   0       0.70714261  s
    5   1   0   0       0.69896582  s
    6   1   0   0       0.86893226  s

Fermi level:                        -0.4777944058 H          -13.0014 eV
Band energy:                        -8.9305256876 H         -243.0120 eV
TS:                                  0.0000000000 H            0.0000 eV
Band free energy (E-TS):            -8.9305256876 H         -243.0120 eV
Extrapolated E(0K):                 -8.9305256876 H         -243.0120 eV
Input / Output electrons (q):     12.0000000000     12.0000000000

Energy H0:                          -5.5592170385 H         -151.2740 eV
Energy SCC:                          0.1330598108 H            3.6207 eV
Total Electronic energy:            -5.4261572276 H         -147.6533 eV
Repulsive energy:                    0.2353645304 H            6.4046 eV
Total energy:                       -5.1907926973 H         -141.2487 eV
Extrapolated to 0:                  -5.1907926973 H         -141.2487 eV
Total Mermin free energy:           -5.1907926973 H         -141.2487 eV
Force related energy:               -5.1907926973 H         -141.2487 eV

SCC converged

Excitation Energy:                   0.0875787963 H            2.3831 eV

Total Forces
    1      0.011998667576     -0.009630040014     -0.066070027480
    2     -0.002154056689      0.001351876801      0.060932871499
    3     -0.006293741490     -0.007259414252     -0.000643699352
    4     -0.009851607361      0.009683687103      0.002479021653
    5      0.007652779054     -0.010625921882      0.001373228319
    6     -0.001352041090      0.016479812243      0.001928605361

Maximal derivative component:        0.660700E-01 au


