 Fermi distribution function

Calculation with static geometry


********************************************************************************
 iSCC Total electronic   Diff electronic      SCC error    
   14   -0.52496252E+01   -0.70992101E-11    0.10590618E-07
********************************************************************************

 Total charge:     1.00000000

 Atomic gross charges (e)
 Atom           Charge
    1       0.31188641
    2      -0.19388794
    3       0.18641794
    4       0.26210721
    5       0.25463292
    6       0.17884347

Nr. of electrons (up):     12.00000000
Atom populations (up)
 Atom       Population
    1       3.68811359
    2       5.19388794
    3       0.81358206
    4       0.73789279
    5       0.74536708
    6       0.82115653

l-shell populations (up)
 Atom Sh.   l       Population
    1   1   0       1.41879587
    1   2   1       2.26931772
    2   1   0       1.54427339
    2   2   1       3.64961455
    3   1   0       0.81358206
    4   1   0       0.73789279
    5   1   0       0.74536708
    6   1   0       0.82115653

Orbital populations (up)
 Atom Sh.   l   m       Population  Label
    1   1   0   0       1.41879587  s
    1   2   1  -1       0.38233088  p_y
    1   2   1   0       0.87782177  p_z
    1   2   1   1       1.00916507  p_x
    2   1   0   0       1.54427339  s
    2   2   1  -1       1.33983457  p_y
    2   2   1   0       1.10574095  p_z
    2   2   1   1       1.20403903  p_x
    3   1   0   0       0.81358206  s
    4   1   0   0       0.73789279  s
    5   1   0   0       0.74536708  s
    6   1   0   0       0.82115653  s

Fermi level:                        -0.5216879278 H          -14.1959 eV
Band energy:                        -8.6410964526 H         -235.1362 eV
TS:                                  0.0000000000 H            0.0000 eV
Band free energy (E-TS):            -8.6410964526 H         -235.1362 eV
Extrapolated E(0K):                 -8.6410964526 H         -235.1362 eV
Input / Output electrons (q):     12.0000000000     12.0000000000

Energy H0:                          -5.3871919891 H         -146.5930 eV
Energy SCC:                          0.1375667779 H            3.7434 eV
Total Electronic energy:            -5.2496252112 H         -142.8496 eV
Repulsive energy:                    0.1296129541 H            3.5269 eV
Total energy:                       -5.1200122571 H         -139.3226 eV
Extrapolated to 0:                  -5.1200122571 H         -139.3226 eV
Total Mermin free energy:           -5.1200122571 H         -139.3226 eV
Force related energy:               -5.1200122571 H         -139.3226 eV

SCC converged

Excitation Energy:                   0.0926156139 H            2.5202 eV

Total Forces
    1      0.011722854291     -0.001485845458      0.026312980732
    2      0.013866567563     -0.022120608907     -0.032662622579
    3     -0.002895384818      0.011025349456     -0.000725351013
    4     -0.013661180245      0.010292762023     -0.001358356858
    5     -0.005018680886      0.010145394317      0.009158469989
    6     -0.004014175905     -0.007857051430     -0.000725120271

Maximal derivative component:        0.326626E-01 au


