     6
  Step:     0            Position(A)                                  Velocity(au)
C        -0.04380165     0.02156909     0.02239578     0.00004691     0.00007976    -0.00023245
N        -0.03688260    -0.06534548     1.28829135    -0.00011559     0.00000774     0.00025912
H         0.91310255    -0.04102045    -0.50380263    -0.00018796    -0.00022563    -0.00025835
H         0.79563749    -0.04994390     1.87401759     0.00102059    -0.00028041     0.00055823
H        -0.93308130     0.00200841     1.88577307     0.00058576    -0.00014912    -0.00108063
H        -0.95412003     0.07022360    -0.53336566    -0.00037110    -0.00040290    -0.00005020
     6
  Step:     1            Position(A)                                  Velocity(au)
C        -0.04353193     0.02202342     0.02097356     0.00005162     0.00008630    -0.00028609
N        -0.03755298    -0.06532032     1.28989266    -0.00012804     0.00000154     0.00032501
H         0.91228203    -0.04228919    -0.50548673    -0.00011175    -0.00023838    -0.00035785
H         0.80139310    -0.05143007     1.87720036     0.00107162    -0.00026345     0.00059697
H        -0.92951360     0.00118202     1.87961561     0.00070871    -0.00015224    -0.00116220
H        -0.95652107     0.06804113    -0.53401209    -0.00050433    -0.00039568    -0.00018427
     6
  Step:     2            Position(A)                                  Velocity(au)
C        -0.04323701     0.02251311     0.01926623     0.00005606     0.00009263    -0.00033636
N        -0.03828326    -0.06532868     1.29184660    -0.00013730    -0.00000451     0.00038750
H         0.91188009    -0.04362812    -0.50771714    -0.00003576    -0.00025114    -0.00045744
H         0.80735997    -0.05282580     1.88054782     0.00109753    -0.00024718     0.00061835
H        -0.92532878     0.00034306     1.87305977     0.00080895    -0.00015352    -0.00122438
H        -0.95963685     0.06589525    -0.53538136    -0.00063068    -0.00038941    -0.00031340
     6
  Step:     3            Position(A)                                  Velocity(au)
C        -0.04291859     0.02303690     0.01729338     0.00006012     0.00009865    -0.00038265
N        -0.03905526    -0.06536962     1.29413246    -0.00014305    -0.00001036     0.00044559
H         0.91189077    -0.04503695    -0.51049169     0.00003820    -0.00026364    -0.00055579
H         0.81340149    -0.05413454     1.88396598     0.00109838    -0.00023138     0.00062266
H        -0.92066258    -0.00049769     1.86621930     0.00088180    -0.00015262    -0.00126381
H        -0.96342154     0.06378050    -0.53744111    -0.00074683    -0.00038399    -0.00043543
     6
  Step:     4            Position(A)                                  Velocity(au)
C        -0.04257894     0.02359299     0.01507763     0.00006370     0.00010427    -0.00042440
N        -0.03984917    -0.06544211     1.29672411    -0.00014502    -0.00001601     0.00049823
H         0.91229825    -0.04651400    -0.51380093     0.00010826    -0.00027563    -0.00065145
H         0.81938319    -0.05535860     1.88736367     0.00107489    -0.00021589     0.00061064
H        -0.91567630    -0.00132759     1.85922579     0.00092268    -0.00014923    -0.00127739
H        -0.96781191     0.06169201    -0.54014769    -0.00084968    -0.00037930    -0.00054827
     6
  Step:     5            Position(A)                                  Velocity(au)
C        -0.04222081     0.02417903     0.01264458     0.00006673     0.00010937    -0.00046108
N        -0.04064378    -0.06554500     1.29959002    -0.00014299    -0.00002143     0.00054449
H         0.91307664    -0.04805611    -0.51762755     0.00017257    -0.00028682    -0.00074292
H         0.82517568    -0.05649932     1.89065479     0.00102837    -0.00020054     0.00058347
H        -0.91055574    -0.00213231     1.85222704     0.00092752    -0.00014307    -0.00126258
H        -0.97272876     0.05962570    -0.54344681    -0.00093649    -0.00037520    -0.00065007
     6
  Step:     6            Position(A)                                  Velocity(au)
C        -0.04184738     0.02479211     0.01002245     0.00006913     0.00011387    -0.00049227
N        -0.04141691    -0.06567701     1.30269369    -0.00013688    -0.00002658     0.00058353
H         0.91419029    -0.04965861    -0.52194609     0.00022942    -0.00029696    -0.00082872
H         0.83065788    -0.05755728     1.89376061     0.00096071    -0.00018524     0.00054275
H        -0.90550726    -0.00289611     1.84538329     0.00089329    -0.00013393    -0.00121773
H        -0.97807924     0.05757843    -0.54727480    -0.00100505    -0.00037153    -0.00073923
     6
  Step:     7            Position(A)                                  Velocity(au)
C        -0.04146209     0.02542886     0.00724161     0.00007087     0.00011770    -0.00051766
N        -0.04214609    -0.06583671     1.30599452    -0.00012671    -0.00003145     0.00061473
H         0.91559463    -0.05131542    -0.52672318     0.00027729    -0.00030582    -0.00090747
H         0.83572000    -0.05853247     1.89661176     0.00087437    -0.00016993     0.00049044
H        -0.90075141    -0.00360231     1.83886180     0.00081840    -0.00012175    -0.00114238
H        -0.98375975     0.05554802    -0.55156027    -0.00105380    -0.00036812    -0.00081458
     6
  Step:     8            Position(A)                                  Velocity(au)
C        -0.04106856     0.02608549     0.00433390     0.00007195     0.00012079    -0.00053709
N        -0.04280931    -0.06602255     1.30944887    -0.00011268    -0.00003600     0.00063772
H         0.91723739    -0.05301922    -0.53191817     0.00031498    -0.00031320    -0.00097799
H         0.84026625    -0.05942457     1.89914997     0.00077223    -0.00015456     0.00042873
H        -0.89651395    -0.00423399     1.83282985     0.00070318    -0.00010656    -0.00103746
H        -0.98965938     0.05353325    -0.55622609    -0.00108186    -0.00036482    -0.00087535
     6
  Step:     9            Position(A)                                  Velocity(au)
C        -0.04067044     0.02675792     0.00133188     0.00007236     0.00012311    -0.00055054
N        -0.04338595    -0.06623281     1.31301155    -0.00009516    -0.00004021     0.00065243
H         0.91906040    -0.05476167    -0.53748425     0.00034164    -0.00031898    -0.00103936
H         0.84421703    -0.06023311     1.90132920     0.00065749    -0.00013914     0.00036001
H        -0.89301413    -0.00477481     1.82744633     0.00055016    -0.00008857    -0.00090549
H        -0.99566379     0.05153380    -0.56119193    -0.00108910    -0.00036151    -0.00092127
     6
  Step:    10            Position(A)                                  Velocity(au)
C        -0.04027131     0.02744190    -0.00173198     0.00007214     0.00012465    -0.00055816
N        -0.04385783    -0.06646563     1.31663735    -0.00007471    -0.00004407     0.00065904
H         0.92100161    -0.05653379    -0.54336993     0.00035683    -0.00032309    -0.00109096
H         0.84751054    -0.06095767     1.90311654     0.00053358    -0.00012371     0.00028672
H        -0.89045220    -0.00520989     1.82285313     0.00036416    -0.00006816    -0.00075043
H        -1.00165919     0.04955012    -0.56637672    -0.00107607    -0.00035807    -0.00095254
     6
  Step:    11            Position(A)                                  Velocity(au)
C        -0.03987454     0.02813319    -0.00482619     0.00007133     0.00012544    -0.00056024
N        -0.04421016    -0.06671903     1.32028261    -0.00005201    -0.00004755     0.00065803
H         0.92299724    -0.05832624    -0.54952065     0.00036049    -0.00032551    -0.00113248
H         0.85010395    -0.06159796     1.90449251     0.00040402    -0.00010829     0.00021132
H        -0.88899641    -0.00552676     1.81916693     0.00015216    -0.00004583    -0.00057761
H        -1.00753591     0.04758327    -0.57170112    -0.00104389    -0.00035443    -0.00096973
     6
  Step:    12            Position(A)                                  Velocity(au)
C        -0.03948329     0.02882761    -0.00792090     0.00006999     0.00012550    -0.00055716
N        -0.04443242    -0.06699089     1.32390666    -0.00002793    -0.00005063     0.00065010
H         0.92498395    -0.06012971    -0.55588048     0.00035294    -0.00032630    -0.00116392
H         0.85197376    -0.06215394     1.90545100     0.00027231    -0.00009293     0.00013619
H        -0.88877131    -0.00571613     1.81647223    -0.00007707    -0.00002223    -0.00039332
H        -1.01319109     0.04563476    -0.57708938    -0.00099412    -0.00035053    -0.00097376
     6
  Step:    13            Position(A)                                  Velocity(au)
C        -0.03910043     0.02952124    -0.01098855     0.00006817     0.00012489    -0.00054943
N        -0.04451902    -0.06727898     1.32747284    -0.00000336    -0.00005330     0.00063607
H         0.92690078    -0.06193523    -0.56239382     0.00033478    -0.00032556    -0.00118552
H         0.85311573    -0.06262580     1.90599877     0.00014183    -0.00007768     0.00006356
H        -0.88984886    -0.00577257     1.81481676    -0.00031359     0.00000193    -0.00020436
H        -1.01853110     0.04370638    -0.58247111    -0.00092865    -0.00034634    -0.00096578
     6
  Step:    14            Position(A)                                  Velocity(au)
C        -0.03872854     0.03021045    -0.01400422     0.00006571     0.00012590    -0.00059365
N        -0.04446959    -0.06758101     1.33094932     0.00002095    -0.00005809     0.00066126
H         0.92869073    -0.06373441    -0.56900669     0.00027483    -0.00034938    -0.00115417
H         0.85354409    -0.06301402     1.90615469    -0.00000420    -0.00002574    -0.00002173
H        -0.89224339    -0.00569480     1.81420956    -0.00052936    -0.00001591    -0.00003645
H        -1.02347326     0.04180006    -0.58778260    -0.00081544    -0.00030204    -0.00090281
     6
  Step:    15            Position(A)                                  Velocity(au)
C        -0.03837211     0.03091667    -0.01756825     0.00006248     0.00012841    -0.00068950
N        -0.04428682    -0.06792283     1.33480191     0.00004401    -0.00006492     0.00072594
H         0.92994691    -0.06580758    -0.57518614     0.00017697    -0.00038369    -0.00107050
H         0.85306913    -0.06291112     1.90575792    -0.00016259     0.00004756    -0.00011818
H        -0.89571608    -0.00594895     1.81441279    -0.00071301    -0.00006088     0.00010396
H        -1.02756911     0.04035875    -0.59247743    -0.00065747    -0.00023102    -0.00078703
     6
  Step:    16            Position(A)                                  Velocity(au)
C        -0.03803523     0.03163536    -0.02165525     0.00005859     0.00012998    -0.00077801
N        -0.04398125    -0.06830142     1.33900465     0.00006474    -0.00007103     0.00078369
H         0.93065444    -0.06799198    -0.58088548     0.00007793    -0.00039673    -0.00098032
H         0.85173991    -0.06248633     1.90484328    -0.00030826     0.00009875    -0.00020513
H        -0.90015522    -0.00637041     1.81536314    -0.00087431    -0.00008525     0.00023216
H        -1.03076884     0.03923657    -0.59651587    -0.00049319    -0.00017857    -0.00066625
     6
  Step:    17            Position(A)                                  Velocity(au)
C        -0.03772101     0.03236098    -0.02621349     0.00005420     0.00013048    -0.00085594
N        -0.04356746    -0.06871214     1.34351017     0.00008243    -0.00007622     0.00083200
H         0.93081282    -0.07021600    -0.58607937    -0.00001961    -0.00039918    -0.00088686
H         0.84964374    -0.06181378     1.90347850    -0.00043522     0.00013897    -0.00027794
H        -0.90543137    -0.00689623     1.81699251    -0.00100932    -0.00010097     0.00034644
H        -1.03304940     0.03837453    -0.59988069    -0.00032716    -0.00013456    -0.00054403
     6
  Step:    18            Position(A)                                  Velocity(au)
C        -0.03743198     0.03308755    -0.03118143     0.00004941     0.00012990    -0.00092206
N        -0.04306389    -0.06914968     1.34826441     0.00009646    -0.00008040     0.00087017
H         0.93043621    -0.07243462    -0.59075582    -0.00011303    -0.00039477    -0.00079260
H         0.84689608    -0.06093969     1.90174999    -0.00053891     0.00017195    -0.00033372
H        -0.91138842    -0.00749413     1.81921889    -0.00111391    -0.00011223     0.00044457
H        -1.03441000     0.03773903    -0.60257059    -0.00016339    -0.00009563    -0.00042325
     6
  Step:    19            Position(A)                                  Velocity(au)
C        -0.03717013     0.03380911    -0.03649266     0.00004435     0.00012829    -0.00097601
N        -0.04249215    -0.06960844     1.35321095     0.00010638    -0.00008357     0.00089823
H         0.92955279    -0.07461692    -0.59491533    -0.00019995    -0.00038569    -0.00069988
H         0.84363590    -0.05989685     1.89975815    -0.00061578     0.00019969    -0.00037050
H        -0.91784934    -0.00814739     1.82194865    -0.00118552    -0.00012126     0.00052506
H        -1.03487090     0.03730839    -0.60459908    -0.00000557    -0.00006017    -0.00030656
     6
  Step:    20            Position(A)                                  Velocity(au)
C        -0.03693680     0.03452004    -0.04207969     0.00003912     0.00012578    -0.00101821
N        -0.04187600    -0.07008284     1.35829411     0.00011198    -0.00008579     0.00091679
H         0.92820356    -0.07674131    -0.59857075    -0.00027837    -0.00037353    -0.00061097
H         0.84002027    -0.05870998     1.89761298    -0.00066345     0.00022348    -0.00038715
H        -0.92462602    -0.00884809     1.82508172    -0.00122354    -0.00012934     0.00058748
H        -1.03447219     0.03706716    -0.60599366     0.00014305    -0.00002728    -0.00019634
     6
  Step:    21            Position(A)                                  Velocity(au)
C        -0.03673267     0.03521548    -0.04787783     0.00003387     0.00012254    -0.00104970
N        -0.04124006    -0.07056769     1.36346206     0.00011323    -0.00008717     0.00092698
H         0.92644016    -0.07879353    -0.60174687    -0.00034679    -0.00035956    -0.00052789
H         0.83621756    -0.05739800     1.89542920    -0.00068083     0.00024437    -0.00038342
H        -0.93153032    -0.00959356     1.82851757    -0.00122924    -0.00013726     0.00063250
H        -1.03327144     0.03700341    -0.60679447     0.00027980     0.00000360    -0.00009457
     6
  Step:    22            Position(A)                                  Velocity(au)
C        -0.03655773     0.03589152    -0.05382844     0.00002870     0.00011876    -0.00107193
N        -0.04060867    -0.07105848     1.36866933     0.00011031    -0.00008786     0.00093020
H         0.92432213    -0.08076566    -0.60447919    -0.00040418    -0.00034486    -0.00045233
H         0.83240005    -0.05597488     1.89332150    -0.00066803     0.00026326    -0.00035979
H        -0.93838436    -0.01038434     1.83216095    -0.00120538    -0.00014551     0.00066162
H        -1.03134048     0.03710743    -0.60705217     0.00040273     0.00003285    -0.00000275
     6
  Step:    23            Position(A)                                  Velocity(au)
C        -0.03641129     0.03654538    -0.05988119     0.00002373     0.00011465    -0.00108651
N        -0.04000486    -0.07155157     1.37387836     0.00010351    -0.00008803     0.00092793
H         0.92191413    -0.08265528    -0.60681198    -0.00044996    -0.00033032    -0.00038549
H         0.82873707    -0.05445004     1.89140027    -0.00062612     0.00028096    -0.00031733
H        -0.94502805    -0.01122294     1.83592630    -0.00115550    -0.00015437     0.00067687
H        -1.02876173     0.03737127    -0.60682530     0.00051041     0.00006085     0.00007809
     6
  Step:    24            Position(A)                                  Velocity(au)
C        -0.03629205     0.03717530    -0.06599473     0.00001904     0.00011034    -0.00109487
N        -0.03944960    -0.07204422     1.37905984     0.00009323    -0.00008782     0.00092143
H         0.91928368    -0.08446443    -0.60879576    -0.00048374    -0.00031659    -0.00032816
H         0.82538903    -0.05282881     1.88976816    -0.00055703     0.00029816    -0.00025757
H        -0.95132320    -0.01211289     1.83974023    -0.00108341    -0.00016397     0.00068043
H        -1.02562514     0.03778877    -0.60617780     0.00060178     0.00008790     0.00014727
     6
  Step:    25            Position(A)                                  Velocity(au)
C        -0.03619821     0.03778038    -0.07213557     0.00001471     0.00010595    -0.00109805
N        -0.03896140    -0.07253449     1.38419153     0.00007989    -0.00008734     0.00091167
H         0.91649984    -0.08619871    -0.61048489    -0.00050523    -0.00030413    -0.00028072
H         0.82250246    -0.05111292     1.88851746    -0.00046337     0.00031537    -0.00018239
H        -0.95715410    -0.01305819     1.84354206    -0.00099271    -0.00017432     0.00067438
H        -1.02202629     0.03835512    -0.60517702     0.00067587     0.00011428     0.00020432
     6
  Step:    26            Position(A)                                  Velocity(au)
C        -0.03612751     0.03836028    -0.07827604     0.00001082     0.00010152    -0.00109666
N        -0.03855610    -0.07302108     1.38925650     0.00006396    -0.00008667     0.00089921
H         0.91363283    -0.08786603    -0.61193548    -0.00051414    -0.00029321    -0.00024327
H         0.82020639    -0.04930152     1.88772817    -0.00034842     0.00033293    -0.00009408
H        -0.96242627    -0.01406262     1.84728299    -0.00088677    -0.00018532     0.00066058
H        -1.01806583     0.03906692    -0.60389261     0.00073163     0.00014019     0.00024885
     6
  Step:    27            Position(A)                                  Velocity(au)
C        -0.03607730     0.03891496    -0.08439183     0.00000743     0.00009708    -0.00109096
N        -0.03824662    -0.07350307     1.39424112     0.00004596    -0.00008584     0.00088439
H         0.91075380    -0.08947562    -0.61320373    -0.00051022    -0.00028396    -0.00021573
H         0.81860858    -0.04739212     1.88746607    -0.00021625     0.00035099     0.00000469
H        -0.96706461    -0.01512927     1.85092465    -0.00076874    -0.00019675     0.00064062
H        -1.01384959     0.03992190    -0.60239593     0.00076799     0.00016576     0.00028052
     6
  Step:    28            Position(A)                                  Velocity(au)
C        -0.03604454     0.03944449    -0.09046009     0.00000462     0.00009263    -0.00108100
N        -0.03804280    -0.07397978     1.39913356     0.00002648    -0.00008489     0.00086737
H         0.90793456    -0.09103735    -0.61434484    -0.00049337    -0.00027642    -0.00019784
H         0.81779127    -0.04538161     1.88778056    -0.00007179     0.00036954     0.00011075
H        -0.97101166    -0.01625998     1.85443758    -0.00064170    -0.00020839     0.00061598
H        -1.00948880     0.04091817    -0.60075974     0.00078383     0.00019108     0.00029902
     6
  Step:    29            Position(A)                                  Velocity(au)
C        -0.03602574     0.03994891    -0.09645824     0.00000247     0.00008815    -0.00106676
N        -0.03795105    -0.07445060     1.40392298     0.00000615    -0.00008381     0.00084828
H         0.90524671    -0.09256108    -0.61541205    -0.00046371    -0.00027056    -0.00018918
H         0.81780724    -0.04326724     1.88870233     0.00007932     0.00038844     0.00022058
H        -0.97422741    -0.01745538     1.85780036    -0.00050880    -0.00021998     0.00058802
H        -1.00510022     0.04205474    -0.59905819     0.00077826     0.00021621     0.00030416
     6
  Step:    30            Position(A)                                  Velocity(au)
C        -0.03601701     0.04042818    -0.10236372     0.00000104     0.00008365    -0.00104830
N        -0.03797412    -0.07491494     1.40859924    -0.00001434    -0.00008261     0.00082729
H         0.90276016    -0.09405642    -0.61645585    -0.00042173    -0.00026634    -0.00018922
H         0.81867642    -0.04104719     1.89024193     0.00023096     0.00040747     0.00033044
H        -0.97668912    -0.01871466     1.86099905    -0.00037323    -0.00023126     0.00055807
H        -1.00080443     0.04333082    -0.59736577     0.00075084     0.00024118     0.00029599
     6
  Step:    31            Position(A)                                  Velocity(au)
C        -0.03601416     0.04088224    -0.10815424     0.00000038     0.00007913    -0.00102576
N        -0.03811099    -0.07537223     1.41315314    -0.00003430    -0.00008129     0.00080462
H         0.90054142    -0.09553261    -0.61752324    -0.00036826    -0.00026367    -0.00019727
H         0.82038414    -0.03872107     1.89238910     0.00037689     0.00042636     0.00043662
H        -0.97839156    -0.02003558     1.86402685    -0.00023821    -0.00024199     0.00052745
H        -0.99672304     0.04474560    -0.59575581     0.00070170     0.00026596     0.00027488
     6
  Step:    32            Position(A)                                  Velocity(au)
C        -0.03601273     0.04131104    -0.11380835     0.00000054     0.00007458    -0.00099940
N        -0.03835687    -0.07582189     1.41757659    -0.00005310    -0.00007986     0.00078055
H         0.89865142    -0.09699827    -0.61865684    -0.00030453    -0.00026246    -0.00021246
H         0.82288152    -0.03629019     1.89511340     0.00051117     0.00044481     0.00053565
H        -0.97934689    -0.02141458     1.86688392    -0.00010689    -0.00025195     0.00049740
H        -0.99297539     0.04629824    -0.59429885     0.00063166     0.00029056     0.00024153
     6
  Step:    33            Position(A)                                  Velocity(au)
C        -0.03600816     0.04171450    -0.11930616     0.00000150     0.00007003    -0.00096963
N        -0.03870346    -0.07626335     1.42186297    -0.00007011    -0.00007833     0.00075540
H         0.89714331    -0.09846126    -0.61989402    -0.00023215    -0.00026255    -0.00023379
H         0.82608809    -0.03375763     1.89836617     0.00062855     0.00046252     0.00062452
H        -0.97958425    -0.02284699     1.86957715     0.00001776    -0.00026098     0.00046914
H        -0.98967460     0.04798786    -0.59306065     0.00054229     0.00031498     0.00019701
     6
  Step:    34            Position(A)                                  Velocity(au)
C        -0.03599599     0.04209261    -0.12463000     0.00000324     0.00006547    -0.00093694
N        -0.03913937    -0.07669607     1.42600728    -0.00008486    -0.00007670     0.00072950
H         0.89606054    -0.09992852    -0.62126611    -0.00015301    -0.00026379    -0.00026014
H         0.82989645    -0.03112824     1.90208345     0.00072476     0.00047920     0.00070087
H        -0.97914871    -0.02432723     1.87211982     0.00013299    -0.00026895     0.00044379
H        -0.98692311     0.04981358    -0.59210010     0.00043592     0.00033923     0.00014274
     6
  Step:    35            Position(A)                                  Velocity(au)
C        -0.03597203     0.04244536    -0.12976495     0.00000568     0.00006092    -0.00090189
N        -0.03965070    -0.07711957     1.43000615    -0.00009694    -0.00007500     0.00070316
H         0.89543528    -0.10140586    -0.62279785    -0.00006925    -0.00026596    -0.00029028
H         0.83417832    -0.02840843     1.90618973     0.00079673     0.00049464     0.00076300
H        -0.97809977    -0.02584914     1.87453107     0.00023640    -0.00027578     0.00042235
H        -0.98480850     0.05177459    -0.59146724     0.00031557     0.00036334     0.00008046
     6
  Step:    36            Position(A)                                  Velocity(au)
C        -0.03593261     0.04277280    -0.13469924     0.00000872     0.00005639    -0.00086507
N        -0.04022166    -0.07753343     1.43385782    -0.00010609    -0.00007323     0.00067668
H         0.89528744    -0.10289781    -0.62450697     0.00001692    -0.00026884    -0.00032297
H         0.83879162    -0.02560583     1.91060209     0.00084267     0.00050864     0.00081001
H        -0.97650941    -0.02740616     1.87683524     0.00032598    -0.00028143     0.00040570
H        -0.98339992     0.05387017    -0.59120176     0.00018477     0.00038737     0.00001212
     6
  Step:    37            Position(A)                                  Velocity(au)
C        -0.03587470     0.04307498    -0.13942433     0.00001222     0.00005187    -0.00082709
N        -0.04083526    -0.07793730     1.43756193    -0.00011215    -0.00007142     0.00065028
H         0.89562417    -0.10440775    -0.62640413     0.00010322    -0.00027220    -0.00035697
H         0.84358757    -0.02272892     1.91523432     0.00086201     0.00052112     0.00084166
H        -0.97445984    -0.02899154     1.87906110     0.00040016    -0.00028590     0.00039454
H        -0.98274537     0.05609994    -0.59133186     0.00004746     0.00041133    -0.00006019
     6
  Step:    38            Position(A)                                  Velocity(au)
C        -0.03579611     0.04335199    -0.14393498     0.00001604     0.00004737    -0.00078851
N        -0.04147402    -0.07833092     1.44111927    -0.00011510    -0.00006956     0.00062416
H         0.89644003    -0.10593738    -0.62849312     0.00018747    -0.00027576    -0.00039109
H         0.84841736    -0.01978672     1.92000054     0.00085527     0.00053201     0.00085829
H        -0.97204094    -0.03059870     1.88124089     0.00045782    -0.00028925     0.00038940
H        -0.98286994     0.05846337    -0.59187383    -0.00009221     0.00043524    -0.00013433
     6
  Step:    39            Position(A)                                  Velocity(au)
C        -0.03569559     0.04360390    -0.14822907     0.00001999     0.00004288    -0.00074986
N        -0.04212051    -0.07871408     1.44453158    -0.00011499    -0.00006769     0.00059846
H         0.89771757    -0.10748698    -0.63077123     0.00026764    -0.00027926    -0.00042424
H         0.85313782    -0.01678833     1.92481833     0.00082386     0.00054134     0.00086076
H        -0.96934767    -0.03222137     1.88340932     0.00049830    -0.00029153     0.00039064
H        -0.98377506     0.06095999    -0.59283190    -0.00023009     0.00045910    -0.00020823
     6
  Step:    40            Position(A)                                  Velocity(au)
C        -0.03557287     0.04383079    -0.15230732     0.00002391     0.00003841    -0.00071160
N        -0.04275793    -0.07908670     1.44780121    -0.00011197    -0.00006581     0.00057325
H         0.89942833    -0.10905543    -0.63322984     0.00034189    -0.00028247    -0.00045541
H         0.85761601    -0.01374257     1.92961119     0.00076993     0.00054918     0.00085029
H        -0.96647735    -0.03385373     1.88560246     0.00052142    -0.00029285     0.00039838
H        -0.98543891     0.06358929    -0.59419877    -0.00036217     0.00048289    -0.00027991
     6
  Step:    41            Position(A)                                  Velocity(au)
C        -0.03542865     0.04403273    -0.15617288     0.00002763     0.00003396    -0.00067414
N        -0.04337050    -0.07944873     1.45093095    -0.00010626    -0.00006393     0.00054860
H         0.90153421    -0.11064031    -0.63585513     0.00040865    -0.00028517    -0.00048377
H         0.86173275    -0.01065768     1.93431031     0.00069611     0.00055567     0.00082833
H        -0.96352695    -0.03549055     1.88785659     0.00052749    -0.00029332     0.00041258
H        -0.98781801     0.06635057    -0.59595661    -0.00048481     0.00050657    -0.00034762
     6
  Step:    42            Position(A)                                  Velocity(au)
C        -0.03526450     0.04420979    -0.15983098     0.00003100     0.00002952    -0.00063778
N        -0.04394389    -0.07980022     1.45392381    -0.00009814    -0.00006207     0.00052451
H         0.90398900    -0.11223802    -0.63862894     0.00046660    -0.00028715    -0.00050860
H         0.86538496    -0.00754102     1.93885577     0.00060539     0.00056098     0.00079652
H        -0.96059034    -0.03712733     1.89020699     0.00051728    -0.00029307     0.00043293
H        -0.99084956     0.06924289    -0.59807834    -0.00059483     0.00053010    -0.00040985
     6
  Step:    43            Position(A)                                  Velocity(au)
C        -0.03508281     0.04436205    -0.16328852     0.00003388     0.00002509    -0.00060277
N        -0.04446546    -0.08014129     1.45678289    -0.00008792    -0.00006024     0.00050099
H         0.90674005    -0.11384399    -0.64152958     0.00051476    -0.00028825    -0.00052935
H         0.86848705    -0.00439888     1.94319709     0.00050090     0.00056530     0.00075654
H        -0.95775564    -0.03876035     1.89268673     0.00049204    -0.00029225     0.00045894
H        -0.99445453     0.07226492    -0.60052930    -0.00068966     0.00055340    -0.00046541
     6
  Step:    44            Position(A)                                  Velocity(au)
C        -0.03488659     0.04448960    -0.16655363     0.00003619     0.00002067    -0.00056930
N        -0.04492448    -0.08047211     1.45951130    -0.00007596    -0.00005845     0.00047803
H         0.90973001    -0.11545287    -0.64453272     0.00055241    -0.00028836    -0.00054561
H         0.87097138    -0.00123634     1.94729338     0.00038582     0.00056886     0.00071008
H        -0.95510269    -0.04038680     1.89532546     0.00045341    -0.00029102     0.00048990
H        -0.99854126     0.07541487    -0.60326897    -0.00076734     0.00057637    -0.00051339
     6