     6
  Step:     0            Position(A)                                  Velocity(au)
C        -0.03053654     0.00974736     0.02146008     0.00004219     0.00010623     0.00030328
N        -0.05270455    -0.07049616     1.30166228    -0.00011962    -0.00005299    -0.00028408
H         0.90520344     0.04735067    -0.59097623    -0.00118802    -0.00065913     0.00079723
H         0.88674313    -0.02887905     1.85557597     0.00021204     0.00047684     0.00050989
H        -0.91636274     0.03717464     1.76694347     0.00189437    -0.00009955    -0.00084383
H        -0.99224507     0.13806606    -0.48357870     0.00024119    -0.00024769    -0.00012940
     6
  Step:     1            Position(A)                                  Velocity(au)
C        -0.03030068     0.01032376     0.02275648     0.00004319     0.00010468     0.00016994
N        -0.05327585    -0.07082887     1.30039849    -0.00008699    -0.00006904    -0.00017769
H         0.89875440     0.04388055    -0.58644468    -0.00115922    -0.00060933     0.00085330
H         0.88740292    -0.02614766     1.85812778     0.00002527     0.00052117     0.00041981
H        -0.90661043     0.03685859     1.76273856     0.00164335    -0.00001203    -0.00067888
H        -0.99107950     0.13687567    -0.48434246     0.00018488    -0.00018780    -0.00014988
     6
  Step:     2            Position(A)                                  Velocity(au)
C        -0.03006412     0.01089243     0.02331910     0.00004237     0.00010338     0.00003555
N        -0.05365617    -0.07125139     1.29971847    -0.00005021    -0.00008577    -0.00007105
H         0.89252246     0.04068502    -0.58164171    -0.00110843    -0.00055872     0.00089580
H         0.88701956    -0.02317782     1.86016842    -0.00016735     0.00056399     0.00032438
H        -0.89838566     0.03704308     1.75951705     0.00133967     0.00008311    -0.00048607
H        -0.99022258     0.13601170    -0.48521831     0.00012902    -0.00012848    -0.00017030
     6
  Step:     3            Position(A)                                  Velocity(au)
C        -0.02983717     0.01145470     0.02314540     0.00003963     0.00010235    -0.00009874
N        -0.05382513    -0.07176713     1.29962124    -0.00001024    -0.00010309     0.00003503
H         0.88662888     0.03776849    -0.57664522    -0.00103584    -0.00050754     0.00092389
H         0.88557218    -0.01997793     1.86167633    -0.00036189     0.00060550     0.00022651
H        -0.89195535     0.03776773     1.75742132     0.00099294     0.00018497    -0.00027005
H        -0.98966813     0.13547019    -0.48620538     0.00007491    -0.00007007    -0.00019054
     6
  Step:     4            Position(A)                                  Velocity(au)
C        -0.02963067     0.01201187     0.02223921     0.00003488     0.00010155    -0.00023185
N        -0.05376819    -0.07237888     1.30010164     0.00003179    -0.00012085     0.00013993
H         0.88119330     0.03513394    -0.57153695    -0.00094143    -0.00045588     0.00093672
H         0.88306148    -0.01655538     1.86264584    -0.00055443     0.00064573     0.00012895
H        -0.88752567     0.03906615     1.75656347     0.00061493     0.00029228    -0.00003685
H        -0.98940330     0.13524534    -0.48730226     0.00002359    -0.00001284    -0.00021049
     6
  Step:     5            Position(A)                                  Velocity(au)
C        -0.02945583     0.01256506     0.02061028     0.00002804     0.00010090    -0.00036261
N        -0.05347751    -0.07308856     1.30115127     0.00007459    -0.00013884     0.00024301
H         0.87633490     0.03278373    -0.56640274    -0.00082513    -0.00040374     0.00093345
H         0.87950983    -0.01291730     1.86308630    -0.00074073     0.00068451     0.00003441
H        -0.88523149     0.04096366     1.75701836     0.00021930     0.00040322     0.00020617
H        -0.98941018     0.13532981    -0.48850695    -0.00002416     0.00004292    -0.00022999
     6
  Step:     6            Position(A)                                  Velocity(au)
C        -0.02932408     0.01311501     0.01827483     0.00001911     0.00010031    -0.00048961
N        -0.05295267    -0.07389675     1.30275845     0.00011670    -0.00015673     0.00034351
H         0.87217236     0.03071995    -0.56133173    -0.00068694    -0.00035111     0.00091330
H         0.87496323    -0.00907175     1.86302208    -0.00091594     0.00072145    -0.00005424
H        -0.88512810     0.04347451     1.75881746    -0.00017869     0.00051536     0.00045050
H        -0.98966746     0.13571458    -0.48981674    -0.00006784     0.00009685    -0.00024886
     6
  Step:     7            Position(A)                                  Velocity(au)
C        -0.02924687     0.01366192     0.01525677     0.00000812     0.00009965    -0.00061104
N        -0.05220147    -0.07480226     1.30490736     0.00015650    -0.00017411     0.00044038
H         0.86882371     0.02894462    -0.55641649    -0.00052720    -0.00029800     0.00087554
H         0.86949471    -0.00502880     1.86249326    -0.00107440     0.00075592    -0.00013392
H        -0.88718535     0.04659875     1.76194425    -0.00056277     0.00062563     0.00068681
H        -0.99015192     0.13638875    -0.49122806    -0.00010715     0.00014849    -0.00026686
     6
  Step:     8            Position(A)                                  Velocity(au)
C        -0.02923523     0.01420525     0.01158968    -0.00000478     0.00009875    -0.00072469
N        -0.05124047    -0.07580165     1.30757652     0.00019228    -0.00019049     0.00053218
H         0.86640443     0.02745960    -0.55175274    -0.00034706    -0.00024451     0.00081982
H         0.86320862    -0.00080149     1.86155686    -0.00120957     0.00078719    -0.00020127
H        -0.89128514     0.05031931     1.76633158    -0.00091643     0.00073045     0.00090542
H        -0.99083972     0.13733913    -0.49273640    -0.00014201     0.00019730    -0.00028377
     6
  Step:     9            Position(A)                                  Velocity(au)
C        -0.02929922     0.01474353     0.00731892    -0.00001931     0.00009741    -0.00082801
N        -0.05009532    -0.07688880     1.31073657     0.00022235    -0.00020531     0.00061708
H         0.86502227     0.02626639    -0.54743675    -0.00014899    -0.00019082     0.00074648
H         0.85624588     0.00359361     1.86028867    -0.00131413     0.00081449    -0.00025263
H        -0.89722337     0.05459961     1.77186165    -0.00122403     0.00082589     0.00109698
H        -0.99170740     0.13854990    -0.49433629    -0.00017249     0.00024269    -0.00029937
     6
  Step:    10            Position(A)                                  Velocity(au)
C        -0.02944717     0.01527423     0.00250344    -0.00003505     0.00009546    -0.00091823
N        -0.04880052    -0.07805465     1.31434816     0.00024512    -0.00021800     0.00069295
H         0.86476944     0.02536560    -0.54356110     0.00006274    -0.00013727     0.00065697
H         0.84878785     0.00813638     1.85878458    -0.00138065     0.00083712    -0.00028439
H        -0.90471719     0.05938227     1.77836941    -0.00147197     0.00090799     0.00125322
H        -0.99273259     0.14000229    -0.49602154    -0.00019879     0.00028400    -0.00031351
     6
  Step:    11            Position(A)                                  Velocity(au)
C        -0.02968480     0.01579376    -0.00278344    -0.00005138     0.00009271    -0.00099272
N        -0.04739848    -0.07928721     1.31836041     0.00025936    -0.00022803     0.00075756
H         0.86571254     0.02475619    -0.54020873     0.00028195    -0.00008434     0.00055396
H         0.84105595     0.01280364     1.85715978    -0.00140262     0.00085462    -0.00029348
H        -0.91341806     0.06458933     1.78564960    -0.00165000     0.00097318     0.00136778
H        -0.99389448     0.14167444    -0.49778557    -0.00022118     0.00032062    -0.00032616
     6
  Step:    12            Position(A)                                  Velocity(au)
C        -0.03001430     0.01629756    -0.00845463    -0.00006758     0.00008904    -0.00104936
N        -0.04593764    -0.08057177     1.32271043     0.00026429    -0.00023502     0.00080894
H         0.86788176     0.02443457    -0.53744625     0.00050078    -0.00003271     0.00044137
H         0.83330506     0.01757006     1.85554503    -0.00137567     0.00086685    -0.00027791
H        -0.92293059     0.07012460     1.79346754    -0.00175240     0.00101871     0.00143699
H        -0.99517411     0.14354143    -0.49962187    -0.00024004     0.00035205    -0.00033738
     6
  Step:    13            Position(A)                                  Velocity(au)
C        -0.03043370     0.01678046    -0.01441219    -0.00008287     0.00008442    -0.00108703
N        -0.04446972    -0.08189166     1.32732484     0.00025980    -0.00023879     0.00084578
H         0.87126206     0.02439374    -0.53531758     0.00071048     0.00001690     0.00032406
H         0.82581114     0.02240986     1.85408009    -0.00129848     0.00087417    -0.00023720
H        -0.93283766     0.07587844     1.80157391    -0.00177893     0.00104322     0.00146049
H        -0.99655458     0.14557577    -0.50152437    -0.00025581     0.00037802    -0.00034736
     6
  Step:    14            Position(A)                                  Velocity(au)
C        -0.03093662     0.01723713    -0.02055279    -0.00009653     0.00007892    -0.00110605
N        -0.04304620    -0.08322939     1.33212354     0.00024648    -0.00023945     0.00086787
H         0.87578910     0.02462267    -0.53383958     0.00090269     0.00006376     0.00020730
H         0.81885350     0.02729919     1.85290510    -0.00117363     0.00087755    -0.00017270
H        -0.94272925     0.08173519     1.80972217    -0.00173492     0.00104705     0.00144143
H        -0.99802112     0.14774858    -0.50348782    -0.00026899     0.00039861    -0.00035638
     6
  Step:    15            Position(A)                                  Velocity(au)
C        -0.03151273     0.01766266    -0.02677560    -0.00010803     0.00007272    -0.00110844
N        -0.04171460    -0.08456820     1.33702585     0.00022558    -0.00023743     0.00087638
H         0.88135229     0.02510643    -0.53300040     0.00107086     0.00010734     0.00009606
H         0.81269236     0.03221909     1.85214969    -0.00100757     0.00087865    -0.00008751
H        -0.95223050     0.08758234     1.81768616    -0.00163056     0.00103244     0.00138612
H        -0.99956130     0.15003142    -0.50550793    -0.00028018     0.00041441    -0.00036482
     6
  Step:    16            Position(A)                                  Velocity(au)
C        -0.03214885     0.01805318    -0.03299117    -0.00011710     0.00006607    -0.00109776
N        -0.04051485    -0.08589373     1.34195784     0.00019884    -0.00023346     0.00087380
H         0.88780575     0.02582719    -0.53276164     0.00121140     0.00014748    -0.00000562
H         0.80754703     0.03715895     1.85192314    -0.00080977     0.00087970     0.00001401
H        -0.96102658     0.09332065     1.82527650    -0.00147925     0.00100323     0.00130313
H        -1.00116520     0.15239886    -0.50758169    -0.00029007     0.00042649    -0.00037316
     6
  Step:    17            Position(A)                                  Velocity(au)
C        -0.03283059     0.01840622    -0.03912975    -0.00012378     0.00005924    -0.00107851
N        -0.03947691    -0.08719555     1.34685960     0.00016814    -0.00022841     0.00086354
H         0.89498533     0.02676615    -0.53306364     0.00132393     0.00018444    -0.00009512
H         0.80357929     0.04211924     1.85230732    -0.00059092     0.00088318     0.00012700
H        -0.96887788     0.09887261     1.83235157    -0.00129517     0.00096417     0.00120178
H        -1.00282573     0.15483113    -0.50970741    -0.00029942     0.00043633    -0.00038201
     6
  Step:    18            Position(A)                                  Velocity(au)
C        -0.03354391     0.01872084    -0.04514639    -0.00012829     0.00005246    -0.00105515
N        -0.03861982    -0.08846799     1.35169023     0.00013524    -0.00022312     0.00084912
H         0.90272699     0.02790587    -0.53383373     0.00141050     0.00021885    -0.00017147
H         0.80088716     0.04711268     1.85335445    -0.00036116     0.00089120     0.00024686
H        -0.97562367     0.10418724     1.83882106    -0.00109098     0.00091989     0.00109048
H        -1.00453976     0.15731642    -0.51188705    -0.00030903     0.00044548    -0.00039220
     6
  Step:    19            Position(A)                                  Velocity(au)
C        -0.03427630     0.01899737    -0.05102053    -0.00013090     0.00004586    -0.00103113
N        -0.03795283    -0.08970992     1.35642854     0.00010149    -0.00021820     0.00083341
H         0.91088068     0.02923238    -0.53499602     0.00147403     0.00025148    -0.00023494
H         0.79950928     0.05216242     1.85508924    -0.00012901     0.00090500     0.00036951
H        -0.98117237     0.10923911     1.84464046    -0.00087610     0.00087396     0.00097548
H        -1.00630827     0.15985133    -0.51412724    -0.00031951     0.00045523    -0.00040442
     6
  Step:    20            Position(A)                                  Velocity(au)
C        -0.03501697     0.01923691    -0.05675026    -0.00013181     0.00003948    -0.00100835
N        -0.03747765    -0.09092348     1.36106910     0.00006786    -0.00021393     0.00081814
H         0.91931508     0.03073587    -0.53647759     0.00151675     0.00028298    -0.00028630
H         0.79943529     0.05729717     1.85751271     0.00009851     0.00092453     0.00049116
H        -0.98548294     0.11402244     1.84979872    -0.00065657     0.00082849     0.00086056
H        -1.00813537     0.16243936    -0.51643824    -0.00033105     0.00046632    -0.00041893
     6
  Step:    21            Position(A)                                  Velocity(au)
C        -0.03575649     0.01944077    -0.06234398    -0.00013112     0.00003331    -0.00098731
N        -0.03719076    -0.09211227     1.36561595     0.00003505    -0.00021030     0.00080390
H         0.92791324     0.03241011    -0.53821105     0.00153961     0.00031371    -0.00032639
H         0.80061555     0.06254456     1.86060484     0.00031520     0.00094851     0.00060802
H        -0.98854541     0.11854281     1.85430430    -0.00043604     0.00078433     0.00074759
H        -1.01002584     0.16508795    -0.51883167    -0.00034338     0.00047891    -0.00043552
     6
  Step:    22            Position(A)                                  Velocity(au)
C        -0.03648612     0.01961015    -0.06781255    -0.00012885     0.00002730    -0.00096758
N        -0.03708491    -0.09327979     1.37007633     0.00000367    -0.00020711     0.00079055
H         0.93656553     0.03425085    -0.54013463     0.00154262     0.00034375    -0.00035592
H         0.80296688     0.06792466     1.86432524     0.00051501     0.00097478     0.00071610
H        -0.99036851     0.12281036     1.85817503    -0.00021726     0.00074159     0.00063748
H        -1.01198277     0.16780522    -0.52131804    -0.00035589     0.00049268    -0.00045365
     6
  Step:    23            Position(A)                                  Velocity(au)
C        -0.03719744     0.01974602    -0.07316430    -0.00012501     0.00002140    -0.00094833
N        -0.03714974    -0.09442837     1.37445658    -0.00002570    -0.00020408     0.00077761
H         0.94516410     0.03625420    -0.54219122     0.00152543     0.00037293    -0.00037545
H         0.80637483     0.07344542     1.86861290     0.00069207     0.00100078     0.00081145
H        -0.99097497     0.12683585     1.86143317    -0.00000298     0.00070019     0.00053095
H        -1.01400571     0.17059756    -0.52390477    -0.00036775     0.00050710    -0.00047255
     6
  Step:    24            Position(A)                                  Velocity(au)
C        -0.03788217     0.01984910    -0.07840285    -0.00011964     0.00001559    -0.00092872
N        -0.03737190    -0.09555884     1.37876019    -0.00005246    -0.00020095     0.00076455
H         0.95360057     0.03841546    -0.54432746     0.00148799     0.00040099    -0.00038558
H         0.81069552     0.07910072     1.87338698     0.00084104     0.00102393     0.00089051
H        -0.99040180     0.13062965     1.86410438     0.00020366     0.00066018     0.00042888
H        -1.01608955     0.17346823    -0.52659517    -0.00037806     0.00052153    -0.00049142
     6
  Step:    25            Position(A)                                  Velocity(au)
C        -0.03853238     0.01992000    -0.08352722    -0.00011284     0.00000988    -0.00090814
N        -0.03773511    -0.09667060     1.38298755    -0.00007607    -0.00019751     0.00075092
H         0.96176748     0.04072855    -0.54649366     0.00143089     0.00042767    -0.00038700
H         0.81575935     0.08487067     1.87854944     0.00095761     0.00104197     0.00095051
H        -0.98870245     0.13420234     1.86621869     0.00039921     0.00062185     0.00033238
H        -1.01822420     0.17641696    -0.52938815    -0.00038596     0.00053537    -0.00050951
     6
  Step:    26            Position(A)                                  Velocity(au)
C        -0.03914084     0.01995935    -0.08853279    -0.00010479     0.00000429    -0.00088617
N        -0.03822046    -0.09776198     1.38713646    -0.00009608    -0.00019363     0.00073645
H         0.96956160     0.04318599    -0.54864427     0.00135542     0.00045276    -0.00038052
H         0.82137731     0.09072346     1.88398958     0.00103896     0.00105309     0.00098969
H        -0.98594872     0.13756614     1.86781192     0.00058008     0.00058574     0.00024276
H        -1.02039483     0.17944008    -0.53227858    -0.00039069     0.00054808    -0.00052619
     6
  Step:    27            Position(A)                                  Velocity(au)
C        -0.03970129     0.01996787    -0.09341272    -0.00009570    -0.00000116    -0.00086268
N        -0.03880687    -0.09883064     1.39120287    -0.00011214    -0.00018927     0.00072098
H         0.97688753     0.04577919    -0.55073843     0.00126352     0.00047612    -0.00036709
H         0.82734927     0.09661813     1.88958968     0.00108398     0.00105605     0.00100741
H        -0.98223152     0.14073637     1.86892677     0.00074277     0.00055261     0.00016143
H        -1.02258249     0.18253090    -0.53525797    -0.00039162     0.00055922    -0.00054098
     6
  Step:    28            Position(A)                                  Velocity(au)
C        -0.04020873     0.01994642    -0.09815921    -0.00008584    -0.00000643    -0.00083769
N        -0.03947175    -0.09987404     1.39518171    -0.00012405    -0.00018445     0.00070447
H         0.98366099     0.04849896    -0.55274060     0.00115767     0.00049776    -0.00034778
H         0.83347317     0.10250768     1.89523110     0.00109317     0.00105016     0.00100412
H        -0.97766027     0.14373257     1.86961324     0.00088415     0.00052338     0.00008971
H        -1.02476487     0.18568034    -0.53831530    -0.00038829     0.00056849    -0.00055357
     6
  Step:    29            Position(A)                                  Velocity(au)
C        -0.04065961     0.01989604    -0.10276467    -0.00007549    -0.00001151    -0.00081143
N        -0.04019171    -0.10088979     1.39906752    -0.00013174    -0.00017923     0.00068698
H         0.98981170     0.05133610    -0.55462103     0.00104068     0.00051776    -0.00032369
H         0.83955332     0.10834207     1.90079958     0.00106850     0.00103525     0.00098114
H        -0.97236092     0.14657936     1.86992829     0.00100154     0.00049907     0.00002883
H        -1.02691735     0.18887746    -0.54143796    -0.00038041     0.00057564    -0.00056380
     6
  Step:    30            Position(A)                                  Velocity(au)
C        -0.04105196     0.01981792    -0.10722252    -0.00006494    -0.00001635    -0.00078418
N        -0.04094323    -0.10187597     1.40285503    -0.00013527    -0.00017375     0.00066864
H         0.99528501     0.05428214    -0.55635604     0.00091553     0.00053637    -0.00029592
H         0.84540787     0.11407104     1.90619001     0.00101311     0.00101158     0.00094054
H        -0.96647348     0.14930700     1.86993522     0.00109281     0.00048075    -0.00002020
H        -1.02901389     0.19210998    -0.54461269    -0.00036785     0.00058053    -0.00057169
     6
  Step:    31            Position(A)                                  Velocity(au)
C        -0.04138532     0.01971336    -0.11152775    -0.00005446    -0.00002094    -0.00075630
N        -0.04170331    -0.10283138     1.40653945    -0.00013478    -0.00016814     0.00064958
H         1.00004257     0.05732995    -0.55792788     0.00078515     0.00055392    -0.00026553
H         0.85087465     0.11964630     1.91130994     0.00093091     0.00097969     0.00088484
H        -0.96014887     0.15195167     1.86970252     0.00115651     0.00046949    -0.00005663
H        -1.03102799     0.19536475    -0.54782651    -0.00035062     0.00058305    -0.00057742
     6
  Step:    32            Position(A)                                  Velocity(au)
C        -0.04166079     0.01958377    -0.11567718    -0.00004432    -0.00002529    -0.00072813
N        -0.04244994    -0.10375566     1.41011675    -0.00013051    -0.00016258     0.00062999
H         1.00406221     0.06047445    -0.55932445     0.00065238     0.00057087    -0.00023350
H         0.85581449     0.12502306     1.91608165     0.00082623     0.00094034     0.00081682
H        -0.95354484     0.15455539     1.86930211     0.00119190     0.00046630    -0.00008007
H        -1.03293349     0.19862796    -0.55106763    -0.00032886     0.00058314    -0.00058128
     6
  Step:    33            Position(A)                                  Velocity(au)
C        -0.04188085     0.01943057    -0.11966946    -0.00003475    -0.00002939    -0.00069999
N        -0.04316258    -0.10464931     1.41358375    -0.00012274    -0.00015721     0.00061000
H         1.00733724     0.06371324    -0.56053882     0.00051985     0.00058778    -0.00020069
H         0.86011329     0.13016081     1.92044331     0.00070360     0.00089429     0.00073935
H        -0.94682148     0.15716560     1.86880717     0.00119906     0.00047211    -0.00009054
H        -1.03470522     0.20188518    -0.55432618    -0.00030280     0.00058065    -0.00058372
     6
  Step:    34            Position(A)                                  Velocity(au)
C        -0.04204933     0.01925516    -0.12350478    -0.00002599    -0.00003324    -0.00067209
N        -0.04382249    -0.10551366     1.41693803    -0.00011182    -0.00015217     0.00058973
H         1.00987538     0.06704726    -0.56156862     0.00038999     0.00060533    -0.00016783
H         0.86368246     0.13502337     1.92434929     0.00056747     0.00084223     0.00065525
H        -0.94013650     0.15983469     1.86828966     0.00117880     0.00048779    -0.00008848
H        -1.03631948     0.20512106    -0.55759506    -0.00027270     0.00057537    -0.00058532
     6
  Step:    35            Position(A)                                  Velocity(au)
C        -0.04217140     0.01905888    -0.12718431    -0.00001828    -0.00003688    -0.00064447
N        -0.04441288    -0.10635077     1.42017769    -0.00009809    -0.00014756     0.00056918
H         1.01169784     0.07048164    -0.56241536     0.00026513     0.00062439    -0.00013555
H         0.86645831     0.13957810     1.92776986     0.00042205     0.00078459     0.00056727
H        -0.93364099     0.16261971     1.86781780     0.00113260     0.00051420    -0.00007480
H        -1.03775432     0.20831852    -0.56087082    -0.00023889     0.00056683    -0.00058684
     6
  Step:    36            Position(A)                                  Velocity(au)
C        -0.04225363     0.01884294    -0.13070904    -0.00001190    -0.00004031    -0.00061693
N        -0.04491900    -0.10716322     1.42330063    -0.00008189    -0.00014346     0.00054820
H         1.01283916     0.07402697    -0.56308388     0.00014774     0.00064611    -0.00010443
H         0.86840033     0.14379396     1.93069053     0.00027124     0.00072129     0.00047807
H        -0.92747571     0.16558273     1.86745349     0.00106254     0.00055239    -0.00005085
H        -1.03898987     0.21145737    -0.56415512    -0.00020176     0.00055423    -0.00058946
     6
  Step:    37            Position(A)                                  Velocity(au)
C        -0.04230436     0.01860839    -0.13407803    -0.00000725    -0.00004360    -0.00058876
N        -0.04532793    -0.10795389     1.42630348    -0.00006350    -0.00013989     0.00052634
H         1.01334868     0.07770144    -0.56358233     0.00004094     0.00067222    -0.00007518
H         0.86948926     0.14763804     1.93311195     0.00011864     0.00065138     0.00039042
H        -0.92176784     0.16879229     1.86724954     0.00097123     0.00060386    -0.00001857
H        -1.04000881     0.21451160    -0.56745757    -0.00016190     0.00053606    -0.00059514
     6
  Step:    38            Position(A)                                  Velocity(au)
C        -0.04233465     0.01835593    -0.13728476    -0.00000499    -0.00004683    -0.00055807
N        -0.04562824    -0.10872560     1.42917919    -0.00004310    -0.00013675     0.00050232
H         1.01329637     0.08153490    -0.56392361    -0.00005010     0.00070538    -0.00004937
H         0.86972540     0.15106908     1.93505106    -0.00003234     0.00057228     0.00030760
H        -0.91662815     0.17232717     1.86724605     0.00086160     0.00067106     0.00001947
H        -1.04079814     0.21744451    -0.57080218    -0.00012074     0.00050965    -0.00060799
     6
  Step:    39            Position(A)                                  Velocity(au)
C        -0.04236003     0.01808562    -0.14030752    -0.00000599    -0.00005025    -0.00051957
N        -0.04580908    -0.10948034     1.43191057    -0.00002075    -0.00013367     0.00047251
H         1.01278948     0.08557524    -0.56413342    -0.00011526     0.00074836    -0.00003242
H         0.86912823     0.15402606     1.93654553    -0.00017791     0.00047995     0.00023389
H        -0.91215024     0.17628300     1.86746690     0.00073609     0.00075623     0.00006087
H        -1.04135652     0.22020055    -0.57424429    -0.00008316     0.00047179    -0.00063722
     6
  Step:    40            Position(A)                                  Velocity(au)
C        -0.04240150     0.01779539    -0.14308076    -0.00000982    -0.00005441    -0.00046362
N        -0.04585972    -0.11021678     1.43445021     0.00000283    -0.00012978     0.00043020
H         1.01201064     0.08988318    -0.56428531    -0.00014338     0.00079551    -0.00003818
H         0.86774071     0.15642314     1.93766015    -0.00031314     0.00037837     0.00017157
H        -0.90841680     0.18076320     1.86792504     0.00059592     0.00085017     0.00010766
H        -1.04172577     0.22270755    -0.57791067    -0.00006180     0.00042780    -0.00069470
     6
  Step:    41            Position(A)                                  Velocity(au)
C        -0.04246946     0.01747906    -0.14547583    -0.00001348    -0.00005961    -0.00038898
N        -0.04577749    -0.11092711     1.43670630     0.00002564    -0.00012465     0.00037449
H         1.01119117     0.09444336    -0.56455904    -0.00014205     0.00083145    -0.00007461
H         0.86563750     0.15824402     1.93845811    -0.00043430     0.00028574     0.00011621
H        -0.90550711     0.18576043     1.86866712     0.00044493     0.00093084     0.00016517
H        -1.04204547     0.22496947    -0.58198860    -0.00006428     0.00039440    -0.00077558
     6
  Step:    42            Position(A)                                  Velocity(au)
C        -0.04255162     0.01713139    -0.14741368    -0.00001497    -0.00006546    -0.00030599
N        -0.04557412    -0.11160524     1.43862163     0.00004613    -0.00011887     0.00031266
H         1.01042830     0.09914478    -0.56511643    -0.00013123     0.00085010    -0.00013201
H         0.86290300     0.15960607     1.93895464    -0.00054094     0.00021378     0.00006284
H        -0.90346067     0.19113193     1.86976487     0.00029126     0.00098848     0.00023219
H        -1.04244176     0.22710086    -0.58654991    -0.00008176     0.00037961    -0.00086161
     6
  Step:    43            Position(A)                                  Velocity(au)
C        -0.04263607     0.01675047    -0.14888147    -0.00001947    -0.00009422    -0.00029309
N        -0.04526406    -0.11225016     1.44018615     0.00008436    -0.00014892     0.00032976
H         1.00973057     0.10390484    -0.56602831    -0.00015893     0.00112883    -0.00026127
H         0.85961694     0.16062331     1.93915751    -0.00083416     0.00021024     0.00001528
H        -0.90226541     0.19676210     1.87125133     0.00018804     0.00135482     0.00039795
H        -1.04295546     0.22919452    -0.59157816    -0.00013520     0.00049826    -0.00124197
     6
  Step:    44            Position(A)                                  Velocity(au)
C        -0.04271728     0.01622236    -0.15048241    -0.00001108    -0.00009555    -0.00028359
N        -0.04476334    -0.11307379     1.44198542     0.00009488    -0.00014745     0.00031791
H         1.00853885     0.11010964    -0.56743842    -0.00026493     0.00110766    -0.00024356
H         0.85472632     0.16178387     1.93901998    -0.00091501     0.00020428    -0.00005813
H        -0.90155872     0.20430148     1.87363838     0.00007426     0.00136075     0.00045372
H        -1.04357022     0.23202812    -0.59834370    -0.00008077     0.00051488    -0.00119059
     6