|===============================================================================
|
|  DFTB+ release 20.1
|
|  Copyright (C) 2006 - 2020  DFTB+ developers group
|
|===============================================================================
|
|  When publishing results obtained with DFTB+, please cite the following
|  reference:
|
|  * DFTB+, a software package for efficient approximate density functional
|    theory based atomistic simulations, J. Chem. Phys. 152, 124101 (2020).
|    [doi: 10.1063/1.5143190]
|
|  You should also cite additional publications crediting the parametrization
|  data you use. Please consult the documentation of the SK-files for the
|  references.
|
|===============================================================================

Reading input file 'dftb_in.hsd'
Parser version: 8

--------------------------------------------------------------------------------
Reading SK-files:
Done.


Processed input in HSD format written to 'dftb_pin.hsd'

Starting initialization...
--------------------------------------------------------------------------------
OpenMP threads:              1
Chosen random seed:          507938746
Mode:                        Static calculation
Self consistent charges:     Yes
SCC-tolerance:                 0.100000E-05
Max. scc iterations:                   1000
Shell resolved Hubbard:      No
Spin polarisation:           No
Nr. of up electrons:             6.000000
Nr. of down electrons:           6.000000
Periodic boundaries:         No
Electronic solver:           Relatively robust
Maximal SCC-cycles:                    1000
Initial charges:             Set automatically (system chrg:   0.100E+01)
Included shells:             C:  s, p
                             N:  s, p
                             H:  s
Spin coupling constants:     C   1(s)-1(s):  -0.455900E-01
                             C   1(s)-2(p):  -0.293000E-01
                             C   2(p)-1(s):  -0.293000E-01
                             C   2(p)-2(p):  -0.275500E-01
                             N   1(s)-1(s):  -0.468700E-01
                             N   1(s)-2(p):  -0.317000E-01
                             N   2(p)-1(s):  -0.317000E-01
                             N   2(p)-2(p):  -0.307200E-01
                             H   1(s)-1(s):  -0.792500E-01
Range separated hybrid:      Yes
  Screening parameter omega:   0.300000E+00
  Range separated algorithm:   MatrixBased
Extra options:
                             Mulliken analysis
                             Force calculation
Force type                   original
                             Eigenvector printing


REKS Calcuation:             Yes
SSR(2,2) Calcuation:         Yes
Energy Functional:           (PPS+OSS)/2
Number of Core Orbitals:                  5
Number of Active Orbitals:                2
Number of Basis:                         12
Number of States:                         2
State-Averaging Weight:          0.500000
                                 0.500000
State of Interest:                        1
Initial Guess:               Diagonalize H0 matrix
Newton-Raphson for FON opt:  Yes
NR max. Iterations:                      50
Level Shifting:              Yes
Shift Value:                     0.300000
W Scale Factor:              C  =    3.000000
                             N  =    3.000000
                             H  =    3.000000
Transition Dipole:           No
Gradient of Microstate:      No
CP-REKS Solver:              Preconditioned Conjugate-Gradient
CG max. Iterations:                     100
CG Tolerance:                  0.100000E-07
Memory for A and Hxc:        Direct Updating Without Saving
Non-Adiabatic Coupling:      Yes

--------------------------------------------------------------------------------

***  Geometry step: 0

  iSCC       reks energy        Diff energy         x_a       SCC error   
    1       -6.2638902777       0.0000000000     0.998550    1.17525453
    2       -6.2773607725      -0.0134704947     0.999471    0.10990445
    3       -6.2810595937      -0.0036988212     0.999723    0.05129304
    4       -6.2825784002      -0.0015188065     0.999820    0.02614947
    5       -6.2833291064      -0.0007507062     0.999864    0.01428586
    6       -6.2837727376      -0.0004436312     0.999886    0.00805740
    7       -6.2840744557      -0.0003017181     0.999898    0.00521292
    8       -6.2842978171      -0.0002233614     0.999906    0.00492698
    9       -6.2844705249      -0.0001727078     0.999910    0.00454386
   10       -6.2846067304      -0.0001362056     0.999913    0.00412904
   11       -6.2847149176      -0.0001081872     0.999915    0.00371490
   12       -6.2848008973      -0.0000859797     0.999917    0.00331787
   13       -6.2848690351      -0.0000681378     0.999918    0.00294639
   14       -6.2849227936      -0.0000537585     0.999918    0.00260453
   15       -6.2849649913      -0.0000421977     0.999919    0.00229375
   16       -6.2849979419      -0.0000329506     0.999919    0.00202013
   17       -6.2850235428      -0.0000256009     0.999919    0.00182072
   18       -6.2850433403      -0.0000197975     0.999920    0.00163189
   19       -6.2850585847      -0.0000152444     0.999920    0.00145572
   20       -6.2850702780      -0.0000116933     0.999920    0.00129329
   21       -6.2850792167      -0.0000089388     0.999920    0.00114495
   22       -6.2850860291      -0.0000068124     0.999920    0.00101055
   23       -6.2850912072      -0.0000051780     0.999920    0.00088957
   24       -6.2850951338      -0.0000039266     0.999920    0.00078127
   25       -6.2850981052      -0.0000029715     0.999920    0.00068477
   26       -6.2851003499      -0.0000022447     0.999920    0.00059914
   27       -6.2851020430      -0.0000016930     0.999920    0.00052340
   28       -6.2851033181      -0.0000012752     0.999920    0.00045663
   29       -6.2851042775      -0.0000009594     0.999920    0.00039789
   30       -6.2851049985      -0.0000007210     0.999920    0.00034636
   31       -6.2851055399      -0.0000005414     0.999920    0.00030122
   32       -6.2851059461      -0.0000004062     0.999920    0.00026175
   33       -6.2851062506      -0.0000003046     0.999920    0.00022729
   34       -6.2851064788      -0.0000002282     0.999920    0.00019725
   35       -6.2851066497      -0.0000001709     0.999920    0.00017108
   36       -6.2851067777      -0.0000001280     0.999920    0.00014832
   37       -6.2851068735      -0.0000000958     0.999920    0.00012853
   38       -6.2851069451      -0.0000000716     0.999920    0.00011133
   39       -6.2851069987      -0.0000000536     0.999920    0.00009641
   40       -6.2851070387      -0.0000000401     0.999920    0.00008346
   41       -6.2851070687      -0.0000000299     0.999920    0.00007224
   42       -6.2851070910      -0.0000000224     0.999920    0.00006251
   43       -6.2851071078      -0.0000000167     0.999920    0.00005408
   44       -6.2851071203      -0.0000000125     0.999920    0.00004678
   45       -6.2851071296      -0.0000000093     0.999920    0.00004046
   46       -6.2851071366      -0.0000000070     0.999920    0.00003499
   47       -6.2851071418      -0.0000000052     0.999920    0.00003025
   48       -6.2851071457      -0.0000000039     0.999920    0.00002615
   49       -6.2851071486      -0.0000000029     0.999920    0.00002261
   50       -6.2851071507      -0.0000000022     0.999920    0.00001954
   51       -6.2851071524      -0.0000000016     0.999920    0.00001689
   52       -6.2851071536      -0.0000000012     0.999920    0.00001460
   53       -6.2851071545      -0.0000000009     0.999920    0.00001262
   54       -6.2851071551      -0.0000000007     0.999920    0.00001091
   55       -6.2851071556      -0.0000000005     0.999920    0.00000943
   56       -6.2851071560      -0.0000000004     0.999920    0.00000815
   57       -6.2851071563      -0.0000000003     0.999920    0.00000704
   58       -6.2851071565      -0.0000000002     0.999920    0.00000608
   59       -6.2851071567      -0.0000000002     0.999920    0.00000526
   60       -6.2851071568      -0.0000000001     0.999920    0.00000454
   61       -6.2851071569      -0.0000000001     0.999920    0.00000392
   62       -6.2851071569      -0.0000000001     0.999920    0.00000339
   63       -6.2851071570      -0.0000000000     0.999920    0.00000293
   64       -6.2851071570      -0.0000000000     0.999920    0.00000253
   65       -6.2851071571      -0.0000000000     0.999920    0.00000219
   66       -6.2851071571      -0.0000000000     0.999920    0.00000189
   67       -6.2851071571      -0.0000000000     0.999920    0.00000163
   68       -6.2851071571      -0.0000000000     0.999920    0.00000141
   69       -6.2851071571      -0.0000000000     0.999920    0.00000122
   70       -6.2851071571      -0.0000000000     0.999920    0.00000105
   71       -6.2851071571      -0.0000000000     0.999920    0.00000091
  
--------------------------------------------------
 Final SA-REKS(2,2) energy:      -6.28510716
  
 State     Energy      FON(1)    FON(2)   Spin
  PPS   -6.40582136   1.999839  0.000161  0.00
  OSS   -6.16439296   1.000000  1.000000  0.00
 Trip   -6.24664613   1.000000  1.000000  1.00
--------------------------------------------------

 Lagrangian Wab:  -0.00940867 -0.00940833

--------------------------------------------------
 SSR: 2SI-2SA-REKS(2,2) Hamiltonian matrix
               PPS           OSS
   PPS    -6.40582136   -0.01318611
   OSS    -0.01318611   -6.16439296
--------------------------------------------------

----------------------------------------------------------------
 SSR: 2SI-2SA-REKS(2,2) states
                    E_n       C_{PPS}    C_{OSS}
 SSR state  1   -6.40653941  -0.998521  -0.054375
 SSR state  2   -6.16367491   0.054375  -0.998521
----------------------------------------------------------------

 unrelaxed SSR FONs for S0:  1.996883  0.003117

Total Energy:                       -6.4065394068 H         -174.3308 eV
Extrapolated to 0:                  -6.4065394068 H         -174.3308 eV

----------------------------------------------------------------------------------
 Solving CP-REKS equation for  1 state vector...
----------------------------------------------------------------------------------
  CG solver: Constructing Y initial guess
  CG solver: Iteration    1    eps =    0.000279874319
  CG solver: Iteration    2    eps =    0.000043008375
  CG solver: Iteration    3    eps =    0.000008176318
  CG solver: Iteration    4    eps =    0.000000837902
  CG solver: Iteration    5    eps =    0.000000051739
  CG solver: Iteration    6    eps =    0.000000014516
  CG solver: Iteration    7    eps =    0.000000000207
  Convergence reached in CG solver after    7 iterations
  CG solver: Calculating converged R, Z, Q2 matrix
----------------------------------------------------------------------------------

----------------------------------------------------------------------------------
 Solving CP-REKS equation for SI between  1 and  2 state vectors...
----------------------------------------------------------------------------------
  CG solver: Constructing Y initial guess
  CG solver: Iteration    1    eps =    0.005708230123
  CG solver: Iteration    2    eps =    0.009490078287
  CG solver: Iteration    3    eps =    0.000909708479
  CG solver: Iteration    4    eps =    0.000013705052
  CG solver: Iteration    5    eps =    0.000002114520
  CG solver: Iteration    6    eps =    0.000000053867
  CG solver: Iteration    7    eps =    0.000000006951
  Convergence reached in CG solver after    7 iterations
  CG solver: Calculating converged R, Z, Q2 matrix
----------------------------------------------------------------------------------

--------------------------------------------------
 Gradient Information
--------------------------------------------------
           1 st state (SSR)
    -0.00928849     0.00053581    -0.01797441
     0.01757253    -0.00215886     0.02313573
     0.01635384    -0.00061848     0.00489575
     0.01063303    -0.00513557    -0.00702119
    -0.02141837     0.00661787    -0.00734131
    -0.01385255     0.00075924     0.00430543

           2 st state (SSR)
     0.00682114    -0.00788926     0.09162147
    -0.01648706    -0.00059217    -0.10107803
    -0.01522156    -0.00532372     0.01879961
    -0.00810575     0.00527329    -0.01504357
     0.01816610     0.00336943    -0.01295656
     0.01482714     0.00516243     0.01865707
--------------------------------------------------
 Coupling Information
--------------------------------------------------
 between  1 and  2 states
--------------------------------------------------
 g vector - difference gradient
    -0.00818448     0.00448863    -0.06013674
     0.01806845    -0.00072414     0.06656744
     0.01779747     0.00156220    -0.00668812
     0.01142935    -0.00523991     0.00423885
    -0.02255721     0.00125446     0.00273518
    -0.01655359    -0.00134123    -0.00671662

 h vector - derivative coupling
     0.00074843    -0.00229814     0.04589080
    -0.00858117    -0.00058463    -0.03745286
    -0.01753901     0.00736415    -0.00279366
    -0.01834803     0.00004137    -0.00186578
     0.02423460     0.00347350     0.00081608
     0.01948518    -0.00799625    -0.00459458

 G vector - GDV
    -0.00805481     0.00421254    -0.05479794
     0.01702980    -0.00078335     0.06210688
     0.01578770     0.00235262    -0.00695193
     0.00936939    -0.00520443     0.00401119
    -0.01979223     0.00162422     0.00280762
    -0.01433984    -0.00220160    -0.00717582

 H vector - DCV - non-adiabatic coupling
     0.00672287    -0.01141361     0.21472706
    -0.04320288    -0.00206921    -0.18306435
    -0.07974772     0.02944427    -0.00844457
    -0.08021194     0.00251217    -0.00953223
     0.10928208     0.01365674     0.00211742
     0.08715759    -0.03213037    -0.01580334
--------------------------------------------------


--------------------------------------------------------------------------------
DFTB+ running times                          cpu [s]             wall clock [s]
--------------------------------------------------------------------------------
SCC                                    +     0.03  ( 73.3%)      0.03  ( 68.7%)
Post-SCC processing                    +     0.01  ( 23.4%)      0.01  ( 22.9%)
  Force calculation                          0.01  ( 22.9%)      0.01  ( 20.8%)
--------------------------------------------------------------------------------
Missing                                +     0.00  (  3.3%)      0.00  (  8.3%)
Total                                  =     0.04  (100.0%)      0.05  (100.0%)
--------------------------------------------------------------------------------
