|===============================================================================
|
|  DFTB+ release 20.1
|
|  Copyright (C) 2006 - 2020  DFTB+ developers group
|
|===============================================================================
|
|  When publishing results obtained with DFTB+, please cite the following
|  reference:
|
|  * DFTB+, a software package for efficient approximate density functional
|    theory based atomistic simulations, J. Chem. Phys. 152, 124101 (2020).
|    [doi: 10.1063/1.5143190]
|
|  You should also cite additional publications crediting the parametrization
|  data you use. Please consult the documentation of the SK-files for the
|  references.
|
|===============================================================================

Reading input file 'dftb_in.hsd'
Parser version: 8

--------------------------------------------------------------------------------
Reading SK-files:
Done.


Processed input in HSD format written to 'dftb_pin.hsd'

Starting initialization...
--------------------------------------------------------------------------------
OpenMP threads:              1
Chosen random seed:          507637048
Mode:                        Static calculation
Self consistent charges:     Yes
SCC-tolerance:                 0.100000E-05
Max. scc iterations:                   1000
Shell resolved Hubbard:      No
Spin polarisation:           No
Nr. of up electrons:             6.000000
Nr. of down electrons:           6.000000
Periodic boundaries:         No
Electronic solver:           Relatively robust
Maximal SCC-cycles:                    1000
Initial charges:             Set automatically (system chrg:   0.100E+01)
Included shells:             C:  s, p
                             N:  s, p
                             H:  s
Spin coupling constants:     C   1(s)-1(s):  -0.455900E-01
                             C   1(s)-2(p):  -0.293000E-01
                             C   2(p)-1(s):  -0.293000E-01
                             C   2(p)-2(p):  -0.275500E-01
                             N   1(s)-1(s):  -0.468700E-01
                             N   1(s)-2(p):  -0.317000E-01
                             N   2(p)-1(s):  -0.317000E-01
                             N   2(p)-2(p):  -0.307200E-01
                             H   1(s)-1(s):  -0.792500E-01
Range separated hybrid:      Yes
  Screening parameter omega:   0.300000E+00
  Range separated algorithm:   MatrixBased
Extra options:
                             Mulliken analysis
                             Force calculation
Force type                   original
                             Eigenvector printing


REKS Calcuation:             Yes
SSR(2,2) Calcuation:         Yes
Energy Functional:           (PPS+OSS)/2
Number of Core Orbitals:                  5
Number of Active Orbitals:                2
Number of Basis:                         12
Number of States:                         2
State-Averaging Weight:          0.500000
                                 0.500000
State of Interest:                        1
Initial Guess:               Diagonalize H0 matrix
Newton-Raphson for FON opt:  Yes
NR max. Iterations:                      50
Level Shifting:              Yes
Shift Value:                     0.300000
W Scale Factor:              C  =    3.000000
                             N  =    3.000000
                             H  =    3.000000
Transition Dipole:           No
Gradient of Microstate:      No
CP-REKS Solver:              Preconditioned Conjugate-Gradient
CG max. Iterations:                     100
CG Tolerance:                  0.100000E-07
Memory for A and Hxc:        Direct Updating Without Saving
Non-Adiabatic Coupling:      Yes

--------------------------------------------------------------------------------

***  Geometry step: 0

  iSCC       reks energy        Diff energy         x_a       SCC error   
    1       -6.2577851233       0.0000000000     0.999437    1.17789605
    2       -6.2717217347      -0.0139366113     0.999778    0.10563485
    3       -6.2766212146      -0.0048994800     0.999882    0.04848722
    4       -6.2794120640      -0.0027908494     0.999927    0.02436642
    5       -6.2812029377      -0.0017908737     0.999948    0.01256624
    6       -6.2823770965      -0.0011741587     0.999960    0.00945282
    7       -6.2831351308      -0.0007580344     0.999966    0.00847639
    8       -6.2836120676      -0.0004769367     0.999970    0.00720456
    9       -6.2839049596      -0.0002928920     0.999972    0.00590395
   10       -6.2840815172      -0.0001765577     0.999973    0.00471483
   11       -6.2841866479      -0.0001051307     0.999974    0.00369634
   12       -6.2842488288      -0.0000621809     0.999975    0.00285992
   13       -6.2842855244      -0.0000366956     0.999975    0.00219225
   14       -6.2843072047      -0.0000216803     0.999975    0.00166966
   15       -6.2843200588      -0.0000128542     0.999975    0.00126622
   16       -6.2843277188      -0.0000076599     0.999975    0.00095776
   17       -6.2843323107      -0.0000045919     0.999975    0.00075973
   18       -6.2843350807      -0.0000027700     0.999975    0.00062157
   19       -6.2843367621      -0.0000016814     0.999975    0.00051347
   20       -6.2843377888      -0.0000010267     0.999975    0.00042183
   21       -6.2843384191      -0.0000006303     0.999975    0.00034498
   22       -6.2843388079      -0.0000003888     0.999975    0.00028108
   23       -6.2843390488      -0.0000002409     0.999975    0.00022829
   24       -6.2843391985      -0.0000001498     0.999975    0.00018493
   25       -6.2843392919      -0.0000000934     0.999975    0.00014945
   26       -6.2843393503      -0.0000000584     0.999975    0.00012055
   27       -6.2843393869      -0.0000000366     0.999975    0.00009707
   28       -6.2843394098      -0.0000000230     0.999975    0.00007804
   29       -6.2843394243      -0.0000000144     0.999975    0.00006267
   30       -6.2843394333      -0.0000000091     0.999975    0.00005026
   31       -6.2843394391      -0.0000000057     0.999975    0.00004027
   32       -6.2843394427      -0.0000000036     0.999975    0.00003224
   33       -6.2843394449      -0.0000000023     0.999975    0.00002579
   34       -6.2843394464      -0.0000000014     0.999975    0.00002062
   35       -6.2843394473      -0.0000000009     0.999975    0.00001647
   36       -6.2843394478      -0.0000000006     0.999975    0.00001315
   37       -6.2843394482      -0.0000000004     0.999975    0.00001050
   38       -6.2843394484      -0.0000000002     0.999975    0.00000837
   39       -6.2843394486      -0.0000000001     0.999975    0.00000668
   40       -6.2843394487      -0.0000000001     0.999975    0.00000532
   41       -6.2843394487      -0.0000000001     0.999975    0.00000424
   42       -6.2843394488      -0.0000000000     0.999975    0.00000338
   43       -6.2843394488      -0.0000000000     0.999975    0.00000269
   44       -6.2843394488      -0.0000000000     0.999975    0.00000215
   45       -6.2843394488      -0.0000000000     0.999975    0.00000171
   46       -6.2843394488      -0.0000000000     0.999975    0.00000136
   47       -6.2843394488      -0.0000000000     0.999975    0.00000108
   48       -6.2843394488      -0.0000000000     0.999975    0.00000086
  
--------------------------------------------------
 Final SA-REKS(2,2) energy:      -6.28433945
  
 State     Energy      FON(1)    FON(2)   Spin
  PPS   -6.41596280   1.999951  0.000049  0.00
  OSS   -6.15271609   1.000000  1.000000  0.00
 Trip   -6.23058367   1.000000  1.000000  1.00
--------------------------------------------------

 Lagrangian Wab:   0.00263218  0.00263209

--------------------------------------------------
 SSR: 2SI-2SA-REKS(2,2) Hamiltonian matrix
               PPS           OSS
   PPS    -6.41596280    0.00370390
   OSS     0.00370390   -6.15271609
--------------------------------------------------

----------------------------------------------------------------
 SSR: 2SI-2SA-REKS(2,2) states
                    E_n       C_{PPS}    C_{OSS}
 SSR state  1   -6.41601491  -0.999901   0.014066
 SSR state  2   -6.15266399  -0.014066  -0.999901
----------------------------------------------------------------

 unrelaxed SSR FONs for S0:  1.999753  0.000247

Total Energy:                       -6.4160149076 H         -174.5886 eV
Extrapolated to 0:                  -6.4160149076 H         -174.5886 eV

----------------------------------------------------------------------------------
 Solving CP-REKS equation for  1 state vector...
----------------------------------------------------------------------------------
  CG solver: Constructing Y initial guess
  CG solver: Iteration    1    eps =    0.000045554384
  CG solver: Iteration    2    eps =    0.000007684737
  CG solver: Iteration    3    eps =    0.000000290498
  CG solver: Iteration    4    eps =    0.000000041601
  CG solver: Iteration    5    eps =    0.000000003980
  Convergence reached in CG solver after    5 iterations
  CG solver: Calculating converged R, Z, Q2 matrix
----------------------------------------------------------------------------------

----------------------------------------------------------------------------------
 Solving CP-REKS equation for SI between  1 and  2 state vectors...
----------------------------------------------------------------------------------
  CG solver: Constructing Y initial guess
  CG solver: Iteration    1    eps =    0.000663840199
  CG solver: Iteration    2    eps =    0.000429611130
  CG solver: Iteration    3    eps =    0.000144597227
  CG solver: Iteration    4    eps =    0.000001756207
  CG solver: Iteration    5    eps =    0.000000234164
  CG solver: Iteration    6    eps =    0.000000003997
  Convergence reached in CG solver after    6 iterations
  CG solver: Calculating converged R, Z, Q2 matrix
----------------------------------------------------------------------------------

--------------------------------------------------
 Gradient Information
--------------------------------------------------
           1 st state (SSR)
     0.00054389     0.00440092     0.01349289
     0.00014658     0.00600866    -0.01491743
     0.00871494     0.00886567     0.00215109
     0.00625860    -0.00967675     0.00061938
    -0.00668271     0.00147201    -0.00499986
    -0.00898129    -0.01107051     0.00365392

           2 st state (SSR)
    -0.00124223    -0.00547294     0.12532477
     0.00217509     0.01439835    -0.14231640
    -0.00553117    -0.00356734     0.01768568
    -0.00492478    -0.00016340    -0.00707783
     0.00447656    -0.00750289    -0.01346975
     0.00504652     0.00230823     0.01985353
--------------------------------------------------
 Coupling Information
--------------------------------------------------
 between  1 and  2 states
--------------------------------------------------
 g vector - difference gradient
     0.00091230     0.00493196    -0.05599907
    -0.00101491    -0.00419766     0.06376517
     0.00730420     0.00619868    -0.00776952
     0.00580059    -0.00476459     0.00386347
    -0.00579135     0.00449602     0.00424586
    -0.00721083    -0.00666441    -0.00810592

 h vector - derivative coupling
     0.00067118    -0.00024586    -0.00216747
    -0.00000919    -0.00004098     0.00143803
     0.00633723    -0.00072102     0.00003039
     0.00734507    -0.00021437     0.00047403
    -0.00744499     0.00024131     0.00032831
    -0.00689930     0.00098093    -0.00010330

 G vector - GDV
     0.00089306     0.00493693    -0.05591594
    -0.00101425    -0.00419484     0.06369948
     0.00712305     0.00621651    -0.00776730
     0.00559169    -0.00475667     0.00384861
    -0.00557964     0.00448745     0.00423495
    -0.00701391    -0.00668937    -0.00809980

 H vector - DCV - non-adiabatic coupling
     0.00264504    -0.00040643    -0.01420845
    -0.00014327    -0.00060391     0.01226924
     0.02483448    -0.00207469    -0.00071452
     0.02849934    -0.00132262     0.00221194
    -0.02887761     0.00139616     0.00169968
    -0.02695797     0.00301149    -0.00125789
--------------------------------------------------


--------------------------------------------------------------------------------
DFTB+ running times                          cpu [s]             wall clock [s]
--------------------------------------------------------------------------------
SCC                                    +     0.02  ( 67.3%)      0.03  ( 63.4%)
Post-SCC processing                    +     0.01  ( 26.9%)      0.01  ( 24.4%)
--------------------------------------------------------------------------------
Missing                                +     0.00  (  5.8%)      0.01  ( 12.2%)
Total                                  =     0.03  (100.0%)      0.04  (100.0%)
--------------------------------------------------------------------------------
