 Fermi distribution function

Calculation with static geometry


********************************************************************************
 iSCC Total electronic   Diff electronic      SCC error    
   13   -0.52916380E+01   -0.10956835E-09    0.11540417E-06
********************************************************************************

 Total charge:     1.00000000

 Atomic gross charges (e)
 Atom           Charge
    1       0.30925148
    2      -0.21191511
    3       0.17398010
    4       0.26735148
    5       0.28049608
    6       0.18083597

Nr. of electrons (up):     12.00000000
Atom populations (up)
 Atom       Population
    1       3.69074852
    2       5.21191511
    3       0.82601990
    4       0.73264852
    5       0.71950392
    6       0.81916403

l-shell populations (up)
 Atom Sh.   l       Population
    1   1   0       1.39107431
    1   2   1       2.29967421
    2   1   0       1.49536601
    2   2   1       3.71654910
    3   1   0       0.82601990
    4   1   0       0.73264852
    5   1   0       0.71950392
    6   1   0       0.81916403

Orbital populations (up)
 Atom Sh.   l   m       Population  Label
    1   1   0   0       1.39107431  s
    1   2   1  -1       0.48963081  p_y
    1   2   1   0       0.85957561  p_z
    1   2   1   1       0.95046780  p_x
    2   1   0   0       1.49536601  s
    2   2   1  -1       1.39737956  p_y
    2   2   1   0       1.06750058  p_z
    2   2   1   1       1.25166897  p_x
    3   1   0   0       0.82601990  s
    4   1   0   0       0.73264852  s
    5   1   0   0       0.71950392  s
    6   1   0   0       0.81916403  s

Fermi level:                        -0.5013912311 H          -13.6435 eV
Band energy:                        -8.6468231461 H         -235.2920 eV
TS:                                  0.0000000000 H            0.0000 eV
Band free energy (E-TS):            -8.6468231461 H         -235.2920 eV
Extrapolated E(0K):                 -8.6468231461 H         -235.2920 eV
Input / Output electrons (q):     12.0000000000     12.0000000000

Energy H0:                          -5.4243559731 H         -147.6042 eV
Energy SCC:                          0.1327179625 H            3.6114 eV
Total Electronic energy:            -5.2916380106 H         -143.9928 eV
Repulsive energy:                    0.1372937230 H            3.7360 eV
Total energy:                       -5.1543442876 H         -140.2568 eV
Extrapolated to 0:                  -5.1543442876 H         -140.2568 eV
Total Mermin free energy:           -5.1543442876 H         -140.2568 eV
Force related energy:               -5.1543442876 H         -140.2568 eV

SCC converged

Excitation Energy:                   0.1022250399 H            2.7817 eV

Total Forces
    1      0.005079730384     -0.004351699831      0.066144408581
    2      0.001928609907      0.001732697465     -0.056357492868
    3     -0.009389595565     -0.010629622340      0.001805569690
    4     -0.015704525163      0.011716819868     -0.008934889540
    5      0.012970889651     -0.009601977321     -0.005600679322
    6      0.005114890785      0.011133782158      0.002943083458

Maximal derivative component:        0.661444E-01 au


