    14
  Step:   600            Position(A)                                  Velocity(au)
C        -5.96257466    -0.90535664     0.07237251    -0.00018898     0.00027121     0.00047824
C        -4.62868976    -0.59402100     0.15535463     0.00032122    -0.00028652     0.00025576
H        -6.66883333    -0.01158817     0.11775681     0.00097136     0.00028279    -0.00084082
H        -6.07657147    -1.99717407    -0.10071760    -0.00084340     0.00145357     0.00068565
H        -3.81658558    -1.30836329     0.51142405    -0.00047765    -0.00108580    -0.00100369
C        -4.00162271     0.62654662    -0.29759700     0.00043518    -0.00036454    -0.00067187
C        -2.60617811     0.58878783     0.02458332    -0.00000964    -0.00036490    -0.00050521
H        -4.63107677     1.17271691    -1.00625779     0.00010804     0.00247304     0.00185726
H        -2.34001966    -0.23159408     0.73912437     0.00029165    -0.00004276    -0.00120177
C        -1.62206205     1.54958144    -0.36800239     0.00035639     0.00059690     0.00081666
H        -1.96765112     2.40174710    -1.05115504     0.00046014     0.00007406    -0.00218938
N        -0.68395140     1.72504425     0.63533922    -0.00076391     0.00018113     0.00002184
H         0.12351893     2.37274482     0.42734391     0.00027972    -0.00323739    -0.00044711
H        -0.81825240     1.19070115     1.47267242    -0.00106761    -0.00067272    -0.00161511
