    14
  Step:     0            Position(A)                                  Velocity(au)
C        -6.04970967    -0.69307226    -0.09461396    -0.00026683    -0.00021025     0.00010644
C        -4.68228110    -0.74873087     0.10697021     0.00026323     0.00016134    -0.00000918
H        -6.48361975     0.25259494    -0.53187505     0.00024013     0.00009837    -0.00061079
H        -6.76485491    -1.51931901    -0.05189214    -0.00036996     0.00012519    -0.00049823
H        -4.24788056    -1.66413296     0.49562861     0.00032767     0.00083622    -0.00015960
C        -3.88964074     0.40363517    -0.08188823     0.00000343    -0.00009586    -0.00009261
C        -2.49972089     0.39264284     0.22580128     0.00002142     0.00015722     0.00000972
H        -4.38030427     1.32939971    -0.40441924     0.00031919    -0.00048557    -0.00004791
H        -1.98202888    -0.57413433     0.42131942    -0.00096180     0.00074481     0.00019334
C        -1.85313109     1.67087308     0.05627699     0.00009224     0.00008936     0.00017076
H        -2.45262846     2.50012769    -0.28451811    -0.00008454    -0.00026782     0.00059444
N        -0.54891034     1.87537273     0.15471607     0.00005888    -0.00010663    -0.00006435
H        -0.12360822     2.81533176     0.26125679    -0.00063484    -0.00092779    -0.00012408
H         0.19043698     1.22206936     0.42557233    -0.00100645     0.00014524    -0.00065888
    14
  Step:     1            Position(A)                                  Velocity(au)
C        -6.05280294    -0.69526074    -0.09360125    -0.00029636    -0.00018840     0.00007824
C        -4.67936521    -0.74691688     0.10691096     0.00026732     0.00017119    -0.00000228
H        -6.48055843     0.25264532    -0.53778780     0.00031824    -0.00009472    -0.00046609
H        -6.76841641    -1.51804814    -0.05692538    -0.00028530     0.00009923    -0.00041981
H        -4.24394858    -1.65512779     0.49383342     0.00039927     0.00078867    -0.00015969
C        -3.88995742     0.40243256    -0.08290963    -0.00006112    -0.00012434    -0.00009398
C        -2.49909904     0.39460800     0.22586807     0.00009135     0.00020410     0.00000229
H        -4.37653255     1.32391323    -0.40500314     0.00036011    -0.00050054    -0.00006533
H        -1.99279665    -0.56489230     0.42343789    -0.00098523     0.00091427     0.00019997
C        -1.85228156     1.67153627     0.05817837     0.00006329     0.00003091     0.00017702
H        -2.45378467     2.49764847    -0.27781271    -0.00013046    -0.00017493     0.00062800
N        -0.54796529     1.87434038     0.15407300     0.00010848    -0.00008298    -0.00005473
H        -0.13162457     2.80458561     0.25932719    -0.00080344    -0.00098579    -0.00022309
H         0.17839491     1.22303248     0.41829712    -0.00114893    -0.00000663    -0.00065518
    14
  Step:     2            Position(A)                                  Velocity(au)
C        -6.05619319    -0.69719391    -0.09290241    -0.00032099    -0.00016420     0.00004941
C        -4.67643295    -0.74498580     0.10692031     0.00026661     0.00018256     0.00000346
H        -6.47665763     0.25052267    -0.54207162     0.00039004    -0.00029176    -0.00031667
H        -6.77109631    -1.51714819    -0.06107634    -0.00020988     0.00005703    -0.00033750
H        -4.23914581    -1.64687935     0.49213505     0.00048512     0.00070088    -0.00014306
C        -3.89097781     0.40091507    -0.08394421    -0.00012478    -0.00015342    -0.00009492
C        -2.49772253     0.39710798     0.22585140     0.00015860     0.00025510    -0.00000568
H        -4.37242626     1.31844944    -0.40584847     0.00037937    -0.00048085    -0.00009607
H        -2.00358276    -0.55413290     0.42569407    -0.00096196     0.00101606     0.00021997
C        -1.85174654     1.67154923     0.06014957     0.00003526    -0.00002863     0.00018335
H        -2.45548257     2.49630086    -0.27077945    -0.00018079    -0.00006563     0.00065601
N        -0.54653717     1.87355729     0.15351874     0.00014617    -0.00006184    -0.00004824
H        -0.14118494     2.79376578     0.25637636    -0.00091169    -0.00093258    -0.00030921
H         0.16530190     1.22192437     0.41123894    -0.00119662    -0.00023302    -0.00061921
    14
  Step:     3            Position(A)                                  Velocity(au)
C        -6.05982523    -0.69885283    -0.09252029    -0.00034051    -0.00013895     0.00002070
C        -4.67353263    -0.74292304     0.10698665     0.00026188     0.00019477     0.00000833
H        -6.47202550     0.24626252    -0.54471565     0.00044856    -0.00047833    -0.00017009
H        -6.77300794    -1.51680055    -0.06430881    -0.00014533    -0.00000144    -0.00025247
H        -4.23333563    -1.63979470     0.49070381     0.00058067     0.00058098    -0.00011290
C        -3.89268718     0.39907620    -0.08498608    -0.00018637    -0.00018283    -0.00009523
C        -2.49562939     0.40018881     0.22574377     0.00022137     0.00031001    -0.00001448
H        -4.36823305     1.31339365    -0.40710479     0.00037588    -0.00042693    -0.00014017
H        -2.01384138    -0.54266405     0.42825023    -0.00088728     0.00104048     0.00025586
C        -1.85151012     1.67090985     0.06218951     0.00000911    -0.00008726     0.00018938
H        -2.45773972     2.49621279    -0.26346115    -0.00022958     0.00005006     0.00068178
N        -0.54476761     1.87298755     0.15301775     0.00017075    -0.00004470    -0.00004488
H        -0.15156960     2.78418357     0.25256271    -0.00095205    -0.00075751    -0.00038003
H         0.15221662     1.21793478     0.40475066    -0.00115235    -0.00052704    -0.00055337
    14
  Step:     4            Position(A)                                  Velocity(au)
C        -6.06364240    -0.70023362    -0.09244960    -0.00035477    -0.00011409    -0.00000715
C        -4.67070390    -0.74072473     0.10710250     0.00025379     0.00020656     0.00001277
H        -6.46684449     0.24005825    -0.54579275     0.00048721    -0.00064004    -0.00003405
H        -6.77427558    -1.51717970    -0.06659958    -0.00009200    -0.00007484    -0.00016589
H        -4.22644251    -1.63416923     0.48966518     0.00067953     0.00044074    -0.00007399
C        -3.89505495     0.39691527    -0.08602754    -0.00024418    -0.00021173    -0.00009480
C        -2.49287964     0.40389002     0.22553457     0.00027753     0.00036775    -0.00002436
H        -4.36420319     1.30910958    -0.40891497     0.00035033    -0.00034245    -0.00019631
H        -2.02299373    -0.53137045     0.43129150    -0.00076043     0.00098439     0.00030899
C        -1.85154726     1.66964027     0.06429260    -0.00001444    -0.00014261     0.00019468
H        -2.46050516     2.49739599    -0.25586417    -0.00027068     0.00016154     0.00070843
N        -0.54280176     1.87257943     0.15253681     0.00018288    -0.00003281    -0.00004421
H        -0.16201279     2.77719381     0.24806255    -0.00092465    -0.00046582    -0.00043496
H         0.14009205     1.21039436     0.39913300    -0.00103280    -0.00086914    -0.00046482
    14
  Step:     5            Position(A)                                  Velocity(au)
C        -6.06758640    -0.70134886    -0.09267662    -0.00036358    -0.00009118    -0.00003334
C        -4.66798046    -0.73840406     0.10726612     0.00024273     0.00021617     0.00001735
H        -6.46136674     0.23226038    -0.54546065     0.00049994    -0.00076280     0.00008378
H        -6.77502060    -1.51843791    -0.06793790    -0.00004905    -0.00016047    -0.00007884
H        -4.21846962    -1.63015262     0.48908506     0.00077410     0.00029418    -0.00003209
C        -3.89802917     0.39444414    -0.08706001    -0.00029621    -0.00023870    -0.00009362
C        -2.48955779     0.40823402     0.22521088     0.00032498     0.00042622    -0.00003542
H        -4.36056881     1.30590198    -0.41139951     0.00030532    -0.00023448    -0.00026178
H        -2.03047724    -0.52112857     0.43501005    -0.00058569     0.00085377     0.00037886
C        -1.85182607     1.66779007     0.06644857    -0.00003484    -0.00019215     0.00019885
H        -2.46366139     2.49974669    -0.24796298    -0.00029852     0.00025892     0.00073846
N        -0.54076678     1.87226968     0.15205061     0.00018505    -0.00002685    -0.00004528
H        -0.17179819     2.77399281     0.24304708    -0.00083869    -0.00008253    -0.00047562
H         0.12962220     1.19892073     0.39458191    -0.00086662    -0.00122770    -0.00036483
    14
  Step:     6            Position(A)                                  Velocity(au)
C        -6.07159644    -0.70222842    -0.09317904    -0.00036672    -0.00007179    -0.00005713
C        -4.66539369    -0.73599550     0.10748210     0.00022877     0.00022163     0.00002263
H        -6.45590728     0.22337049    -0.54395985     0.00048146    -0.00083344     0.00017616
H        -6.77534857    -1.52069023    -0.06832430    -0.00001452    -0.00025431     0.00000769
H        -4.20950764    -1.62773349     0.48896311     0.00085648     0.00015570     0.00000689
C        -3.90153511     0.39169316    -0.08807562    -0.00034052    -0.00026190    -0.00009183
C        -2.48576998     0.41321449     0.22475975     0.00036210     0.00048236    -0.00004751
H        -4.35752379     1.30397984    -0.41464193     0.00024504    -0.00011309    -0.00033271
H        -2.03580690    -0.51269257     0.43957985    -0.00037282     0.00066505     0.00046245
C        -1.85230947     1.66543670     0.06864287    -0.00005165    -0.00023344     0.00020154
H        -2.46703578     2.50306031    -0.23970891    -0.00030890     0.00033417     0.00077348
N        -0.53875344     1.87199204     0.15154619     0.00018102    -0.00002660    -0.00004689
H        -0.18036076     2.77538837     0.23765755    -0.00071148     0.00034824    -0.00050553
H         0.12113310     1.18353606     0.39115167    -0.00068871    -0.00156357    -0.00026674
    14
  Step:     7            Position(A)                                  Velocity(au)
C        -6.07560917    -0.70291940    -0.09392638    -0.00036401    -0.00005740    -0.00007781
C        -4.66297559    -0.73355545     0.10776114     0.00021179     0.00022105     0.00002911
H        -6.45083397     0.21402722    -0.54160689     0.00042772    -0.00084095     0.00023690
H        -6.77533831    -1.52400149    -0.06776959     0.00001434    -0.00035137     0.00009279
H        -4.19973251    -1.62674647     0.48923581     0.00091947     0.00003810     0.00003774
C        -3.90547866     0.38871458    -0.08906900    -0.00037562    -0.00027930    -0.00008974
C        -2.48163623     0.41878667     0.22417140     0.00038803     0.00053238    -0.00006021
H        -4.35520815     1.30342794    -0.41867814     0.00017480     0.00000973    -0.00040450
H        -2.03863343    -0.50657934     0.44512693    -0.00013614     0.00044399     0.00055409
C        -1.85295601     1.66268309     0.07085754    -0.00006447    -0.00026436     0.00020248
H        -2.47041908     2.50705734    -0.23104156    -0.00029946     0.00038190     0.00081401
N        -0.53680654     1.87168786     0.15102486     0.00017494    -0.00003093    -0.00004778
H        -0.18736322     2.78161121     0.23198759    -0.00056506     0.00076998    -0.00052925
H         0.11455540     1.16471457     0.38874653    -0.00053240    -0.00183739    -0.00018320
    14
  Step:     8            Position(A)                                  Velocity(au)
C        -6.07955994    -0.70348415    -0.09488135    -0.00035545    -0.00004920    -0.00009489
C        -4.66076041    -0.73115951     0.10811888     0.00019152     0.00021291     0.00003716
H        -6.44655016     0.20497315    -0.53877716     0.00033672    -0.00077847     0.00026197
H        -6.77503478    -1.52837722    -0.06629444     0.00004076    -0.00044608     0.00017556
H        -4.18939242    -1.62689994     0.48978869     0.00095744    -0.00004900     0.00005663
C        -3.90975256     0.38558303    -0.09003887    -0.00040058    -0.00028894    -0.00008775
C        -2.47728099     0.42486136     0.22344251     0.00040271     0.00057218    -0.00007282
H        -4.35369971     1.30419267    -0.42349115     0.00010025     0.00012149    -0.00047234
H        -2.03878518    -0.50297953     0.45170172     0.00010747     0.00022197     0.00064614
C        -1.85371998     1.65965340     0.07307241    -0.00007291    -0.00028318     0.00020153
H        -2.47358710     2.51141514    -0.22190095    -0.00026982     0.00039966     0.00085950
N        -0.53492632     1.87131548     0.15050087     0.00017038    -0.00003806    -0.00004697
H        -0.19272258     2.79223313     0.22607928    -0.00042126     0.00112521    -0.00055096
H         0.10948583     1.14333962     0.38714382    -0.00042249    -0.00201733    -0.00012372
    14
  Step:     9            Position(A)                                  Velocity(au)
C        -6.08338527    -0.70399569    -0.09600233    -0.00034126    -0.00004784    -0.00010813
C        -4.65878570    -0.72889761     0.10857410     0.00016767     0.00019619     0.00004698
H        -6.44346753     0.19699669    -0.53587572     0.00020930    -0.00064554     0.00025059
H        -6.77444657    -1.53376026    -0.06392879     0.00006793    -0.00053282     0.00025517
H        -4.17878657    -1.62781851     0.49047459     0.00096687    -0.00010015     0.00006151
C        -3.91424216     0.38239345    -0.09098877    -0.00041498    -0.00028920    -0.00008631
C        -2.47282607     0.43130415     0.22257829     0.00040657     0.00059788    -0.00008454
H        -4.35301509     1.30608568    -0.42901155     0.00002659     0.00021084    -0.00053177
H        -2.03628224    -0.50172343     0.45926253     0.00034133     0.00003035     0.00073013
C        -1.85455100     1.65648806     0.07526631    -0.00007650    -0.00028865     0.00019865
H        -2.47632188     2.51580076    -0.21223842    -0.00022139     0.00038792     0.00090851
N        -0.53307923     1.87085516     0.14999726     0.00016970    -0.00004606    -0.00004390
H        -0.19657912     2.80622737     0.21993425    -0.00029713     0.00136745    -0.00057344
H         0.10531261     1.12058153     0.38604002    -0.00037148    -0.00208452    -0.00009323
    14
  Step:    10            Position(A)                                  Velocity(au)
C        -6.08702576    -0.70453066    -0.09724689    -0.00032200    -0.00005321    -0.00011766
C        -4.65709239    -0.72686738     0.10914672     0.00013995     0.00017051     0.00005858
H        -6.44197135     0.19085074    -0.53329513     0.00004979    -0.00045010     0.00020627
H        -6.77354871    -1.54003365    -0.06071211     0.00009859    -0.00060655     0.00033074
H        -4.16824022    -1.62909087     0.49113434     0.00094646    -0.00011406     0.00005215
C        -3.91883095     0.37925626    -0.09192707    -0.00041884    -0.00027896    -0.00008581
C        -2.46838641     0.43794111     0.22159310     0.00040031     0.00060640    -0.00009458
H        -4.35311810     1.30880522    -0.43512456    -0.00004199     0.00026901    -0.00057916
H        -2.03131792    -0.50231566     0.46767466     0.00055154    -0.00010524     0.00079823
C        -1.85539351     1.65333864     0.07741821    -0.00007478    -0.00028002     0.00019391
H        -2.47843053     2.51990161    -0.20202557    -0.00015714     0.00034971     0.00095892
N        -0.53121375     1.87030790     0.14954052     0.00017386    -0.00005328    -0.00003846
H        -0.19922290     2.82214875     0.21353408    -0.00020232     0.00146938    -0.00059757
H         0.10135895     1.09773671     0.38510414    -0.00037978    -0.00203446    -0.00009217
    14
  Step:    11            Position(A)                                  Velocity(au)
C        -6.09042971    -0.70515987    -0.09857627    -0.00029851    -0.00006437    -0.00012400
C        -4.65572400    -0.72516735     0.10985575     0.00010821     0.00013610     0.00007180
H        -6.44237837     0.18714986    -0.53136316    -0.00013374    -0.00020931     0.00013722
H        -6.77228983    -1.54702961    -0.05669329     0.00013467    -0.00066322     0.00040143
H        -4.15808086    -1.63031382     0.49161541     0.00089699    -0.00009321     0.00002985
C        -3.92340500     0.37629060    -0.09286602    -0.00041256    -0.00025780    -0.00008654
C        -2.46406849     0.44457027     0.22050920     0.00038469     0.00059582    -0.00010233
H        -4.35393379     1.31197085    -0.44168175    -0.00010269     0.00029069    -0.00061210
H        -2.02421635    -0.50402570     0.47672538     0.00072852    -0.00016863     0.00084447
C        -1.85618686     1.65036213     0.07950838    -0.00006731    -0.00025706     0.00018746
H        -2.47975971     2.52345140    -0.19126021    -0.00008115     0.00029020     0.00100821
N        -0.52927579     1.86968958     0.14915578     0.00018253    -0.00005869    -0.00003096
H        -0.20100536     2.83837289     0.20686130    -0.00013902     0.00142478    -0.00062258
H         0.09700421     1.07607389     0.38402364    -0.00043844    -0.00187528    -0.00011735
    14
  Step:    12            Position(A)                                  Velocity(au)
C        -6.09355634    -0.70593892    -0.09995973    -0.00027189    -0.00007957    -0.00012805
C        -4.65472507    -0.72388983     0.11071748     0.00007245     0.00009383     0.00008631
H        -6.44489709     0.18627169    -0.53029311    -0.00033010     0.00005190     0.00005549
H        -6.77060260    -1.55454290    -0.05193004     0.00017712    -0.00070016     0.00046646
H        -4.14861695    -1.63113004     0.49178746     0.00082094    -0.00004308    -0.00000283
C        -3.92785639     0.37361649    -0.09382030    -0.00039685    -0.00022599    -0.00008865
C        -2.45997051     0.45097589     0.21935441     0.00036051     0.00056563    -0.00010742
H        -4.35536468     1.31516473    -0.44851534    -0.00015409     0.00027432    -0.00062949
H        -2.01538023    -0.50600479     0.48614911     0.00086739    -0.00015436     0.00086535
C        -1.85686598     1.64771505     0.08151923    -0.00005379    -0.00022012     0.00017954
H        -2.48020575     2.52625023    -0.17996914     0.00000184     0.00021606     0.00105368
N        -0.52722047     1.86902391     0.14886331     0.00019457    -0.00006187    -0.00002189
H        -0.20226432     2.85331860     0.19991397    -0.00010354     0.00124531    -0.00064676
H         0.09176729     1.05671140     0.38253689    -0.00053284    -0.00162417    -0.00016335
    14
  Step:    13            Position(A)                                  Velocity(au)
C        -6.09637793    -0.70690070    -0.10137752    -0.00024337    -0.00009660    -0.00013084
C        -4.65413893    -0.72311463     0.11174393     0.00003292     0.00004511     0.00010166
H        -6.44959998     0.18828536    -0.53014928    -0.00052640     0.00030435    -0.00002489
H        -6.76841491    -1.56234700    -0.04648865     0.00022588    -0.00071615     0.00052510
H        -4.14012123    -1.63125624     0.49155359     0.00072213     0.00002873    -0.00004253
C        -3.93208685     0.37134668    -0.09480533    -0.00037274    -0.00018457    -0.00009211
C        -2.45618164     0.45694447     0.21815915     0.00032862     0.00051664    -0.00010974
H        -4.35730491     1.31797211    -0.45545298    -0.00019600     0.00022181    -0.00063152
H        -2.00524053    -0.50740272     0.49565661     0.00096730    -0.00006634     0.00085986
C        -1.85736357     1.64554654     0.08343608    -0.00003413    -0.00017020     0.00017044
H        -2.47971950     2.52817806    -0.16820890     0.00008671     0.00013501     0.00109271
N        -0.52501927     1.86833595     0.14867696     0.00020832    -0.00006288    -0.00001187
H        -0.20327049     2.86561653     0.19271222    -0.00008856     0.00095482    -0.00066813
H         0.08534736     1.04054208     0.38045000    -0.00064585    -0.00130376    -0.00022367
    14
  Step:    14            Position(A)                                  Velocity(au)
C        -6.09888058    -0.70805214    -0.10282200    -0.00021415    -0.00011315    -0.00013341
C        -4.65400493    -0.72290304     0.11294159    -0.00000991    -0.00000816     0.00011732
H        -6.45641320     0.19292986    -0.53083753    -0.00070983     0.00051954    -0.00009033
H        -6.76566103    -1.57021012    -0.04044250     0.00027992    -0.00071140     0.00057678
H        -4.13281899    -1.63050150     0.49085709     0.00060524     0.00011331    -0.00008543
C        -3.93601072     0.36957874    -0.09583546    -0.00034148    -0.00013523    -0.00009676
C        -2.45278124     0.46227841     0.21695373     0.00029000     0.00045086    -0.00010940
H        -4.35965260     1.32001731    -0.46233102    -0.00022918     0.00013805    -0.00061950
H        -1.99421878    -0.50745609     0.50496021     0.00103028     0.00008474     0.00082907
C        -1.85761256     1.64399158     0.08524789    -0.00000848    -0.00010891     0.00016052
H        -2.47830878     2.52920379    -0.15606397     0.00016829     0.00005538     0.00112288
N        -0.52266309     1.86764835     0.14860362     0.00022198    -0.00006200    -0.00000153
H        -0.20420184     2.87420706     0.18529731    -0.00008517     0.00058383    -0.00068499
H         0.07763805     1.02818910     0.37764361    -0.00075982    -0.00093964    -0.00029149
    14
  Step:    15            Position(A)                                  Velocity(au)
C        -6.10106296    -0.70937603    -0.10429620    -0.00018527    -0.00012728    -0.00013661
C        -4.65435583    -0.72329310     0.11431053    -0.00005534    -0.00006368     0.00013266
H        -6.46512883     0.19965124    -0.53212551    -0.00086946     0.00067445    -0.00013013
H        -6.76229113    -1.57791027    -0.03387052     0.00033746    -0.00068737     0.00062107
H        -4.12688042    -1.62877732     0.48968466     0.00047553     0.00020112    -0.00012753
C        -3.93955732     0.36838831    -0.09692223    -0.00030452    -0.00008021    -0.00010228
C        -2.44983729     0.46680793     0.21576583     0.00024579     0.00037125    -0.00010674
H        -4.36231875     1.32099231    -0.46900569    -0.00025507     0.00003015    -0.00059563
H        -1.98270120    -0.50554881     0.51379420     0.00106022     0.00028398     0.00077563
C        -1.85754918     1.64316395     0.08694772     0.00002268    -0.00003848     0.00015017
H        -2.47603774     2.52938960    -0.14364365     0.00024157    -0.00001431     0.00114212
N        -0.52016300     1.86697951     0.14864357     0.00023374    -0.00005966     0.00000857
H        -0.20513366     2.87838888     0.17772673    -0.00008395     0.00016585    -0.00069616
H         0.06872479     1.01998567     0.37407312    -0.00085764    -0.00055871    -0.00036008
    14
  Step:    16            Position(A)                                  Velocity(au)
C        -6.10293376    -0.71083665    -0.10581061    -0.00015749    -0.00013766    -0.00014092
C        -4.65521565    -0.72429624     0.11584382    -0.00010251    -0.00011896     0.00014704
H        -6.47543424     0.20768483    -0.53368446    -0.00099749     0.00075461    -0.00013782
H        -6.75827850    -1.58524775    -0.02685542     0.00039617    -0.00064655     0.00065770
H        -4.12241596    -1.62610161     0.48806708     0.00033856     0.00028245    -0.00016486
C        -3.94267275     0.36782393    -0.09807301    -0.00026345    -0.00002214    -0.00010823
C        -2.44740408     0.47040029     0.21461869     0.00019734     0.00028150    -0.00010221
H        -4.36523276     1.32067695    -0.47536167    -0.00027550    -0.00009329    -0.00056281
H        -1.97102437    -0.50124356     0.52192852     0.00106199     0.00051447     0.00070318
C        -1.85711641     1.64314971     0.08853316     0.00005861     0.00003831     0.00013982
H        -2.47302400     2.52889078    -0.13107781     0.00030190    -0.00006578     0.00114879
N        -0.51754964     1.86634316     0.14879103     0.00024184    -0.00005627     0.00001789
H        -0.20603831     2.87783546     0.17006746    -0.00007562    -0.00026466    -0.00070110
H         0.05887543     1.01596628     0.36976608    -0.00092317    -0.00018846    -0.00042302
    14
  Step:    17            Position(A)                                  Velocity(au)
C        -6.10450830    -0.71238769    -0.10737915    -0.00013125    -0.00014368    -0.00014649
C        -4.65659845    -0.72589549     0.11752731    -0.00015048    -0.00017137     0.00015980
H        -6.48695088     0.21615982    -0.53514053    -0.00108973     0.00075497    -0.00011151
H        -6.75362419    -1.59205487    -0.01948203     0.00045338    -0.00059215     0.00068661
H        -4.11947379    -1.62259809     0.48607809     0.00020004     0.00034789    -0.00019362
C        -3.94532077     0.36790399    -0.09928993    -0.00021987     0.00003618    -0.00011410
C        -2.44552014     0.47296637     0.21352982     0.00014614     0.00018580    -0.00009639
H        -4.36834573     1.31895131    -0.48131822    -0.00029248    -0.00022285    -0.00052434
H        -1.95946813    -0.49429380     0.52917763     0.00104101     0.00075864     0.00061612
C        -1.85626707     1.64400200     0.09000651     0.00009825     0.00011830     0.00012988
H        -2.46943315     2.52795051    -0.11851165     0.00034531    -0.00009154     0.00114179
N        -0.51487224     1.86574853     0.14903494     0.00024467    -0.00005225     0.00002600
H        -0.20678797     2.87259891     0.16238885    -0.00005113    -0.00067304    -0.00069991
H         0.04852875     1.01586277     0.36481873    -0.00094146     0.00014363    -0.00047428
    14
  Step:    18            Position(A)                                  Velocity(au)
C        -6.10580510    -0.71398003    -0.10901538    -0.00010672    -0.00014536    -0.00015316
C        -4.65850767    -0.72804533     0.11933967    -0.00019832    -0.00021842     0.00017030
H        -6.49927422     0.22420116    -0.53612405    -0.00114525     0.00067867    -0.00005321
H        -6.74835993    -1.59820214    -0.01183449     0.00050631    -0.00052785     0.00070791
H        -4.11803970    -1.61849082     0.48383127     0.00006558     0.00038874    -0.00021039
C        -3.94748293     0.36861536    -0.10056926    -0.00017537     0.00009190    -0.00011936
C        -2.44420698     0.47446511     0.21251007     0.00009377     0.00008863    -0.00008990
H        -4.37163137     1.31580162    -0.48683262    -0.00030813    -0.00034880    -0.00048382
H        -1.94825038    -0.48464679     0.53540731     0.00100311     0.00099890     0.00051934
C        -1.85496700     1.64573770     0.09137449     0.00014033     0.00019815     0.00012074
H        -2.46546966     2.52688810    -0.10609894     0.00036884    -0.00008553     0.00112066
N        -0.51219704     1.86520017     0.14935976     0.00024076    -0.00004807     0.00003253
H        -0.20715679     2.86311145     0.15475560    -0.00000166    -0.00102475    -0.00069336
H         0.03827917     1.01910836     0.35939031    -0.00089950     0.00041127    -0.00050853
    14
  Step:    19            Position(A)                                  Velocity(au)
C        -6.10684304    -0.71556773    -0.11072979    -0.00008384    -0.00014318    -0.00016056
C        -4.66093700    -0.73067385     0.12125303    -0.00024518    -0.00025786     0.00017801
H        -6.51200537     0.23100704    -0.53630462    -0.00116571     0.00053493     0.00003240
H        -6.74254771    -1.60360258    -0.00399511     0.00055226    -0.00045759     0.00072186
H        -4.11803910    -1.61409370     0.48147533    -0.00005960     0.00039758    -0.00021232
C        -3.94915732     0.36991450    -0.10190121    -0.00013137     0.00014237    -0.00012346
C        -2.44346882     0.47490524     0.21156309     0.00004175    -0.00000551    -0.00008342
H        -4.37508658     1.31132071    -0.49190271    -0.00032450    -0.00046162    -0.00044495
H        -1.93752321    -0.47244101     0.54053928     0.00095454     0.00121802     0.00041816
C        -1.85319702     1.64833683     0.09264788     0.00018339     0.00027458     0.00011273
H        -2.46136416     2.52607933    -0.09399503     0.00037091    -0.00004387     0.00108563
N        -0.50960516     1.86469681     0.14974659     0.00022895    -0.00004436     0.00003726
H        -0.20682419     2.85018061     0.14722033     0.00008110    -0.00128668    -0.00068289
H         0.02885052     1.02486011     0.35369371    -0.00078740     0.00059165    -0.00052162
    14
  Step:    20            Position(A)                                  Velocity(au)
C        -6.10763922    -0.71711229    -0.11252797    -0.00006238    -0.00013791    -0.00016822
C        -4.66387144    -0.73368645     0.12323398    -0.00029033    -0.00028787     0.00018248
H        -6.52477634     0.23590382    -0.53541527    -0.00115464     0.00033674     0.00013902
H        -6.73627828    -1.60821290     0.00395767     0.00058875    -0.00038533     0.00072889
H        -4.11934356    -1.60979298     0.47918645    -0.00017112     0.00036901    -0.00019737
C        -3.95035680     0.37173007    -0.10327016    -0.00008911     0.00018526    -0.00012589
C        -2.44329362     0.47434465     0.21068517    -0.00000852    -0.00009225    -0.00007760
H        -4.37873034     1.30570283    -0.49656681    -0.00034350    -0.00055257    -0.00041133
H        -1.92736801    -0.45800032     0.54455527     0.00090199     0.00139950     0.00031816
C        -1.85095498     1.65174469     0.09384059     0.00022581     0.00034466     0.00010608
H        -2.45735523     2.52592834    -0.08234871     0.00035181     0.00003443     0.00103766
N        -0.50718838     1.86422966     0.15017488     0.00020857    -0.00004190     0.00004014