    14
  Step:   600            Position(A)                                  Velocity(au)
C        -4.95302077    -1.23294511    -0.49176769     0.00082253    -0.00028490    -0.00001630
C        -5.17254888     0.03839486    -0.08678733     0.00020688     0.00031170    -0.00100854
H        -4.06079115    -1.84414927    -0.33825392     0.00055837     0.00041532    -0.00179542
H        -5.67631801    -1.74822779    -1.02281875    -0.00042253    -0.00117397     0.00234365
H        -6.07610377     0.74117369    -0.28525365    -0.00024288    -0.00182037     0.00012913
C        -4.14287001     0.77660194     0.68109718    -0.00036878     0.00105997     0.00071466
C        -2.84053971     1.17545265     0.71215055    -0.00028456    -0.00022643     0.00087943
H        -4.47901700     1.15443641     1.71221183    -0.00096770     0.00083402    -0.00225714
H        -2.48958892     1.33009434     1.73088426     0.00225926    -0.00101824     0.00144559
C        -1.88301543     1.08197582    -0.36723744    -0.00028206    -0.00014952     0.00012259
H        -2.27298115     1.23422810    -1.42435184    -0.00020701    -0.00018397     0.00170811
N        -0.60080565     1.27540584    -0.07128472    -0.00012157    -0.00040936    -0.00046516
H         0.24967084     1.02266253    -0.61981671    -0.00081095     0.00094059    -0.00277656
H        -0.50991716     1.10693249     0.92085410     0.00040250    -0.00077505    -0.00057711
