    14
  Step:     0            Position(A)                                  Velocity(au)
C        -5.96216382    -0.81021496    -0.14494422     0.00039662     0.00023815     0.00008138
C        -4.67845500    -0.75106542     0.14075900    -0.00006496    -0.00024956    -0.00004431
H        -6.44092632     0.13013390    -0.38575758    -0.00025069     0.00037006    -0.00036265
H        -6.52246676    -1.68723040     0.07485746     0.00092554    -0.00134741     0.00000193
H        -4.10889773    -1.65369009     0.47055643     0.00002106    -0.00052583     0.00025107
C        -3.95085033     0.49823936     0.01272330    -0.00015586     0.00017385     0.00005828
C        -2.58726449     0.57408199     0.12253395    -0.00015775     0.00003722    -0.00009993
H        -4.50295382     1.42229810    -0.30340901    -0.00122396     0.00043781    -0.00001001
H        -2.01420958    -0.38375438     0.40594496    -0.00039922     0.00144033    -0.00008417
C        -1.86688450     1.74216421     0.01730480    -0.00008188    -0.00000332     0.00000130
H        -2.27767183     2.70574485    -0.42707451    -0.00060621    -0.00006363    -0.00101489
N        -0.50201853     1.70596825     0.18596582     0.00024994    -0.00010004     0.00019049
H         0.00320960     2.58156888     0.14140704    -0.00040111    -0.00059361    -0.00056256
H        -0.18455245     0.88581305     0.68493752    -0.00077806    -0.00066717    -0.00082678
    14
  Step:     1            Position(A)                                  Velocity(au)
C        -5.95822508    -0.80755849    -0.14407108     0.00031758     0.00024414     0.00007794
C        -4.67860366    -0.75374822     0.14036958     0.00004128    -0.00023968    -0.00002606
H        -6.44439287     0.13408882    -0.39018358    -0.00037142     0.00033432    -0.00043956
H        -6.51325358    -1.70283230     0.07457745     0.00077798    -0.00145970    -0.00006387
H        -4.10908587    -1.65867102     0.47304101    -0.00005921    -0.00037727     0.00019913
C        -3.95304556     0.50009519     0.01327291    -0.00024596     0.00016563     0.00004197
C        -2.58860699     0.57427568     0.12158576    -0.00008941     0.00000155    -0.00007411
H        -4.51604121     1.42606023    -0.30315096    -0.00115368     0.00023444     0.00006315
H        -2.01943510    -0.36638204     0.40445995    -0.00053943     0.00169753    -0.00017763
C        -1.86768893     1.74236630     0.01717311    -0.00006478     0.00004089    -0.00002608
H        -2.28394817     2.70354878    -0.43718876    -0.00053221    -0.00034306    -0.00082685
N        -0.49934362     1.70488448     0.18804415     0.00023507    -0.00009951     0.00018855
H        -0.00068853     2.57493767     0.13553723    -0.00028605    -0.00058630    -0.00051022
H        -0.19221625     0.87867701     0.67604300    -0.00061067    -0.00064980    -0.00078877
    14
  Step:     2            Position(A)                                  Velocity(au)
C        -5.95521611    -0.80487390    -0.14323913     0.00022827     0.00024322     0.00007409
C        -4.67755194    -0.75630894     0.14018892     0.00015229    -0.00022697    -0.00000666
H        -6.44905186     0.13744785    -0.39537389    -0.00046851     0.00026265    -0.00050219
H        -6.50544707    -1.71916410     0.07346011     0.00066780    -0.00148080    -0.00015021
H        -4.11019316    -1.66194359     0.47491273    -0.00014253    -0.00021939     0.00014121
C        -3.95623120     0.50186286     0.01364145    -0.00033576     0.00015727     0.00002544
C        -2.58922041     0.57411598     0.12091260    -0.00002539    -0.00002587    -0.00005010
H        -4.52819284     1.42742696    -0.30202740    -0.00105766     0.00000737     0.00014554
H        -2.02601065    -0.34661756     0.40205898    -0.00063805     0.00186511    -0.00024716
C        -1.86830164     1.74305872     0.01673418    -0.00004687     0.00008496    -0.00005443
H        -2.28931489     2.69823984    -0.44516333    -0.00044355    -0.00062313    -0.00062801
N        -0.49687588     1.70379138     0.19009078     0.00021263    -0.00010162     0.00018497
H        -0.00304838     2.56874252     0.13024501    -0.00012338    -0.00051802    -0.00045795
H        -0.19791197     0.87159746     0.66768160    -0.00042163    -0.00065333    -0.00073275
    14
  Step:     3            Position(A)                                  Velocity(au)
C        -5.95323132    -0.80223766    -0.14245029     0.00013235     0.00023546     0.00007028
C        -4.67527201    -0.75871359     0.14022387     0.00026348    -0.00021088     0.00001280
H        -6.45464232     0.13983472    -0.40116992    -0.00054233     0.00015934    -0.00055049
H        -6.49864410    -1.73522764     0.07129124     0.00059184    -0.00141452    -0.00025427
H        -4.11220389    -1.66347062     0.47613021    -0.00021991    -0.00006408     0.00008181
C        -3.96039100     0.50353579     0.01382938    -0.00042293     0.00014785     0.00000921
C        -2.58916250     0.57370963     0.12048973     0.00003239    -0.00004206    -0.00002881
H        -4.53917958     1.42622141    -0.29996701    -0.00094572    -0.00022837     0.00023174
H        -2.03339360    -0.32557925     0.39905295    -0.00067884     0.00191796    -0.00028366
C        -1.86871428     1.74422487     0.01598244    -0.00002820     0.00012617    -0.00008280
H        -2.29365166     2.68991668    -0.45092778    -0.00034769    -0.00088464    -0.00042731
N        -0.49469194     1.70266132     0.19209083     0.00018399    -0.00010589     0.00018032
H        -0.00338760     2.56360495     0.12551867     0.00007710    -0.00040186    -0.00040723
H        -0.20144012     0.86438410     0.66001272    -0.00021824    -0.00066933    -0.00066614
    14
  Step:     4            Position(A)                                  Velocity(au)
C        -5.95232070    -0.79972271    -0.14170153     0.00003405     0.00022135     0.00006696
C        -4.67178784    -0.76092240     0.14046903     0.00037014    -0.00019090     0.00003122
H        -6.46091631     0.14093382    -0.40741701    -0.00059472     0.00003083    -0.00058516
H        -6.49249945    -1.75010953     0.06789753     0.00054361    -0.00127130    -0.00037180
H        -4.11500402    -1.66334554     0.47670239    -0.00028252     0.00007683     0.00002554
C        -3.96548350     0.50509732     0.01384289    -0.00050525     0.00013642    -0.00000620
C        -2.58851192     0.57319589     0.12028223     0.00008218    -0.00004427    -0.00001113
H        -4.54888223     1.42243091    -0.29695762    -0.00082809    -0.00045779     0.00031636
H        -2.04086151    -0.30465842     0.39585346    -0.00064662     0.00183364    -0.00027857
C        -1.86891863     1.74581896     0.01492270    -0.00000873     0.00016191    -0.00011024
H        -2.29692133     2.67888662    -0.45451167    -0.00025251    -0.00110851    -0.00023417
N        -0.49285067     1.70147480     0.19403559     0.00015096    -0.00011136     0.00017511
H        -0.00136178     2.55995107     0.12133611     0.00030059    -0.00025932    -0.00035842
H        -0.20268640     0.85695452     0.65310852    -0.00000848    -0.00068727    -0.00059697
    14
  Step:     5            Position(A)                                  Velocity(au)
C        -5.95248650    -0.79739512    -0.14098533    -0.00006237     0.00020158     0.00006451
C        -4.66717450    -0.76288980     0.14090684     0.00046782    -0.00016647     0.00004752
H        -6.46765304     0.14050926    -0.41397143    -0.00062866    -0.00011506    -0.00060746
H        -6.48675160    -1.76303979     0.06315744     0.00051513    -0.00106558    -0.00049795
H        -4.11838452    -1.66178981     0.47668897    -0.00032204     0.00019198    -0.00002304
C        -3.97144430     0.50652026     0.01369366    -0.00058080     0.00012199    -0.00002030
C        -2.58736466     0.57274122     0.12024616     0.00012282    -0.00003061     0.00000229
H        -4.55729567     1.41620631    -0.29304609    -0.00071538    -0.00066596     0.00039400
H        -2.04753969    -0.28546483     0.39295868    -0.00053129     0.00159866    -0.00022596
C        -1.86890522     1.74776695     0.01357074     0.00001175     0.00018966    -0.00013571
H        -2.29917571     2.66566587    -0.45605080    -0.00016640    -0.00127570    -0.00005854
N        -0.49138942     1.70022504     0.19592178     0.00011556    -0.00011675     0.00016979
H         0.00318831     2.55793183     0.11767747     0.00052918    -0.00011702    -0.00031088
H        -0.20162562     0.84934875     0.64695285     0.00019963    -0.00069616    -0.00053288
    14
  Step:     6            Position(A)                                  Velocity(au)
C        -5.95368515    -0.79531268    -0.14029015    -0.00015298     0.00017693     0.00006326
C        -4.66155341    -0.76456427     0.14150854     0.00055266    -0.00013708     0.00006076
H        -6.47466936     0.13841658    -0.42070627    -0.00064787    -0.00026974    -0.00061913
H        -6.48122999    -1.77342119     0.05700388     0.00049816    -0.00081379    -0.00062782
H        -4.12204919    -1.65914560     0.47619834    -0.00033113     0.00027103    -0.00005976
C        -3.97818972     0.50776608     0.01339872    -0.00064802     0.00010349    -0.00003262
C        -2.58582498     0.57252619     0.12033237     0.00015421    -0.00000081     0.00001129
H        -4.56453261     1.40786181    -0.28833806    -0.00061844    -0.00083806     0.00045938
H        -2.05248457    -0.26968474     0.39091022    -0.00033328     0.00121689    -0.00012534
C        -1.86866165     1.74996813     0.01195370     0.00003356     0.00020714    -0.00015819
H        -2.30056164     2.65097815    -0.45579224    -0.00009813    -0.00136787     0.00008951
N        -0.49032257     1.69892058     0.19775014     0.00007984    -0.00012069     0.00016466
H         0.01021513     2.55739110     0.11453493     0.00074440    -0.00000186    -0.00026331
H        -0.19831905     0.84172473     0.64145072     0.00039858    -0.00068620    -0.00048027
    14
  Step:     7            Position(A)                                  Velocity(au)
C        -5.95583326    -0.79352439    -0.13960135    -0.00023455     0.00014822     0.00006343
C        -4.65508400    -0.76588866     0.14223600     0.00062171    -0.00010228     0.00007022
H        -6.48182642     0.13460812    -0.42751617    -0.00065656    -0.00042434    -0.00062233
H        -6.47585348    -1.78084302     0.04942265     0.00048476    -0.00053323    -0.00075673
H        -4.12562868    -1.65586057     0.47538162    -0.00030422     0.00030573    -0.00008127
C        -3.98562106     0.50878424     0.01297998    -0.00070572     0.00007983    -0.00004274
C        -2.58399093     0.57272353     0.12049314     0.00017769     0.00004317     0.00001639
H        -4.57082519     1.39787210    -0.28299634    -0.00054798    -0.00095993     0.00050747
H        -2.05483080    -0.25884311     0.39021663    -0.00006827     0.00071652     0.00001575
C        -1.86817093     1.75229843     0.01010992     0.00005721     0.00021247    -0.00017672
H        -2.30132257     2.63574118    -0.45409257    -0.00005623    -0.00136873     0.00020050
N        -0.48964284     1.69758480     0.19952403     0.00004560    -0.00012195     0.00015989
H         0.01947341     2.55789113     0.11191709     0.00092985     0.00006385    -0.00021430
H        -0.19290599     0.83433689     0.63644596     0.00058180    -0.00065011    -0.00044372
    14
  Step:     8            Position(A)                                  Velocity(au)
C        -5.95881640    -0.79207005    -0.13890254    -0.00030472     0.00011631     0.00006510
C        -4.64795221    -0.76680190     0.14304463     0.00067316    -0.00006189     0.00007547
H        -6.48903297     0.12913328    -0.43432097    -0.00065909    -0.00057018    -0.00061946
H        -6.47062484    -1.78508664     0.04044906     0.00046759    -0.00024155    -0.00088034
H        -4.12870458    -1.65245718     0.47442042    -0.00023836     0.00029141    -0.00008565
C        -3.99362859     0.50951254     0.01246378    -0.00075298     0.00005004    -0.00005028
C        -2.58193761     0.57347058     0.12069086     0.00019590     0.00009695     0.00001886
H        -4.57652066     1.38686149    -0.27723611    -0.00051391    -0.00101893     0.00053392
H        -2.05397809    -0.25400949     0.39125481     0.00023219     0.00015050     0.00018129
C        -1.86741017     1.75461628     0.00808760     0.00008322     0.00020452    -0.00019054
H        -2.30179188     2.62103460    -0.45140596    -0.00004770    -0.00126679     0.00026707
N        -0.48932496     1.69625267     0.20124803     0.00001426    -0.00011972     0.00015555
H         0.03055731     2.55878796     0.10984677     0.00107336     0.00006600    -0.00016288
H        -0.18559111     0.82750229     0.63174356     0.00074403    -0.00058399    -0.00042568
    14
  Step:     9            Position(A)                                  Velocity(au)
C        -5.96249950    -0.79097981    -0.13817708    -0.00036206     0.00008213     0.00006823
C        -4.64035724    -0.76724262     0.14388695     0.00070642    -0.00001614     0.00007643
H        -6.49624531     0.12213425    -0.44106795    -0.00065964    -0.00069920    -0.00061305
H        -6.46562403    -1.78612748     0.03016349     0.00043984     0.00004341    -0.00099475
H        -4.13084330    -1.64948547     0.47350794    -0.00013405     0.00022836    -0.00007295
C        -4.00209403     0.50987901     0.01188002    -0.00078911     0.00001347    -0.00005499
C        -2.57970525     0.57484442     0.12090568     0.00021207     0.00015442     0.00002049
H        -4.58206806     1.37558099    -0.27131577    -0.00052404    -0.00100578     0.00053563
H        -2.04975111    -0.25555057     0.39418264     0.00052641    -0.00041253     0.00034943
C        -1.86635043     1.75677275     0.00594158     0.00011208     0.00018329    -0.00019929
H        -2.30236604     2.60802772    -0.44824994    -0.00007602    -0.00105902     0.00028604
N        -0.48933096     1.69496575     0.20292695    -0.00001329    -0.00011362     0.00015162
H         0.04295518     2.55933503     0.10835377     0.00116798     0.00000006    -0.00010884
H        -0.17662887     0.82156090     0.62713338     0.00088149    -0.00048756    -0.00042655
    14
  Step:    10            Position(A)                                  Velocity(au)
C        -5.96673726    -0.79027321    -0.13740977    -0.00040606     0.00004672     0.00007264
C        -4.63249802    -0.76715498     0.14471671     0.00072201     0.00003409     0.00007342
H        -6.50346391     0.11383704    -0.44773266    -0.00066195    -0.00080434    -0.00060562
H        -6.46100240    -1.78413689     0.01868692     0.00039525     0.00030369    -0.00109653
H        -4.13163720    -1.64746136     0.47282455     0.00000423     0.00012309    -0.00004563
C        -4.01089193     0.50980725     0.01126080    -0.00081346    -0.00002989    -0.00005676
C        -2.57729810     0.57684889     0.12113908     0.00022896     0.00020908     0.00002313
H        -4.58798511     1.36485805    -0.26551828    -0.00058230    -0.00091689     0.00051151
H        -2.04246177    -0.26303432     0.39889922     0.00077302    -0.00090443     0.00049776
C        -1.86495830     1.75862607     0.00372781     0.00014401     0.00015024    -0.00020320
H        -2.30345497     2.59786644    -0.44514822    -0.00013908    -0.00075444     0.00026047
N        -0.48961579     1.69376699     0.20456508    -0.00003663    -0.00010375     0.00014805
H         0.05610918     2.55878937     0.10746563     0.00121203    -0.00012945    -0.00005281
H        -0.16630675     0.81683606     0.62241198     0.00099193    -0.00036391    -0.00044487
    14
  Step:    11            Position(A)                                  Velocity(au)
C        -5.97138290    -0.78995767    -0.13658804    -0.00043687     0.00001125     0.00007803
C        -4.62456198    -0.76649691     0.14549320     0.00072135     0.00008711     0.00006711
H        -6.51072663     0.10453778    -0.45431714    -0.00066895    -0.00088008    -0.00059941
H        -6.45697717    -1.77948368     0.00617476     0.00032810     0.00052141    -0.00118285
H        -4.13075069    -1.64679255     0.47250961     0.00016805    -0.00001134    -0.00000865
C        -4.01989003     0.50922506     0.01063831    -0.00082547    -0.00007910    -0.00005571
C        -2.57469640     0.57941844     0.12141174     0.00024785     0.00025538     0.00002824
H        -4.59480706     1.35552226    -0.26012562    -0.00068697    -0.00075675     0.00046322
H        -2.03283974    -0.27533670     0.40507213     0.00094139    -0.00127353     0.00060875
C        -1.86319985     1.76005943     0.00149616     0.00017879     0.00010840    -0.00020319
H        -2.30540871     2.59152298    -0.44255164    -0.00022770    -0.00037594     0.00020075
N        -0.49013228     1.69269607     0.20616578    -0.00005571    -0.00009055     0.00014473
H         0.06947063     2.55650302     0.10719837     0.00120839    -0.00031082     0.00000383
H        -0.15492857     0.81359962     0.61740101     0.00107455    -0.00021902    -0.00047774
    14
  Step:    12            Position(A)                                  Velocity(au)
C        -5.97629455    -0.79002705    -0.13570281    -0.00045511    -0.00002298     0.00008408
C        -4.61671716    -0.76524921     0.14618487     0.00070637     0.00014050     0.00005844
H        -6.51809838     0.09458361    -0.46084596    -0.00068249    -0.00092285    -0.00059616
H        -6.45382466    -1.77273001    -0.00719028     0.00023344     0.00067952    -0.00125168
H        -4.12796085    -1.64770952     0.47263529     0.00034590    -0.00015660     0.00003108
C        -4.02895072     0.50807672     0.01004195    -0.00082485    -0.00013206    -0.00005226
C        -2.57187588     0.58243576     0.12175679     0.00026835     0.00028967     0.00003656
H        -4.60301389     1.34830268    -0.25538437    -0.00082939    -0.00053952     0.00039560
H        -2.02186706    -0.29089514     0.41221679     0.00101712    -0.00149322     0.00067291
C        -1.86104702     1.76099755    -0.00071728     0.00021553     0.00006208    -0.00020076
H        -2.30843643     2.58964207    -0.44075638    -0.00032601     0.00004129     0.00012378
N        -0.49083458     1.69178605     0.20773137    -0.00007074    -0.00007472     0.00014159
H         0.08254505     2.55198949     0.10754935     0.00116353    -0.00052747     0.00005914
H        -0.14279893     0.81204459     0.61196053     0.00112992    -0.00006098    -0.00052126
    14
  Step:    13            Position(A)                                  Velocity(au)
C        -5.98133921    -0.79046043    -0.13474859    -0.00046172    -0.00005464     0.00009048
C        -4.60910879    -0.76342324     0.14677172     0.00067915     0.00019125     0.00004852
H        -6.52565741     0.08434865    -0.46735923    -0.00070307    -0.00093144    -0.00059683
H        -6.45187027    -1.76461790    -0.02120811     0.00010759     0.00076312    -0.00130199
H        -4.12318347    -1.65021856     0.47318963     0.00052486    -0.00029165     0.00006573
C        -4.03793523     0.50633594     0.00949500    -0.00081176    -0.00018558    -0.00004709
C        -2.56882565     0.58575547     0.12221166     0.00028877     0.00031035     0.00004820
H        -4.61295164     1.34371927    -0.25147110    -0.00099428    -0.00028841     0.00031626
H        -2.01058824    -0.30800368     0.41979323     0.00100125    -0.00156115     0.00068880
C        -1.85848474     1.76141758    -0.00289584     0.00025282     0.00001614    -0.00019777
H        -2.31254088     2.59242619    -0.43984365    -0.00041405     0.00045531     0.00004985
N        -0.49167992     1.69106141     0.20926328    -0.00008205    -0.00005709     0.00013855
H         0.09492505     2.54496365     0.10849216     0.00108648    -0.00076005     0.00011079
H        -0.13020947     0.81226549     0.60599749     0.00115974     0.00010066    -0.00057097
    14
  Step:    14            Position(A)                                  Velocity(au)
C        -5.98639547    -0.79122245    -0.13372328    -0.00045787    -0.00008255     0.00009696
C        -4.60185936    -0.76106523     0.14724623     0.00064164     0.00023616     0.00003843
H        -6.53347931     0.07420664    -0.47390280    -0.00072964    -0.00090716    -0.00060147
H        -6.45147096    -1.75603527    -0.03567380    -0.00005097     0.00076186    -0.00133401
H        -4.11647849    -1.65408998     0.47407318     0.00069247    -0.00039621     0.00008781
C        -4.04670944     0.50401675     0.00901173    -0.00078690    -0.00023568    -0.00004111
C        -2.56555859     0.58922530     0.12281136     0.00030685     0.00031748     0.00006275
H        -4.62476557     1.34199308    -0.24846565    -0.00116164    -0.00003274     0.00023455
H        -1.99996288    -0.32504824     0.42728560     0.00090528    -0.00149204     0.00066085
C        -1.85551607     1.76135059    -0.00504379     0.00028898    -0.00002487    -0.00019597
H        -2.31749461     2.59960274    -0.43966575    -0.00047203     0.00082544    -0.00000181
N        -0.49262951     1.69053711     0.21076241    -0.00009004    -0.00003853     0.00013558
H         0.10631379     2.53536194     0.10997313     0.00098808    -0.00098810     0.00015623
H        -0.11742741     0.81424668     0.59946937     0.00116665     0.00025567    -0.00062227
    14
  Step:    15            Position(A)                                  Velocity(au)
C        -5.99135608    -0.79226633    -0.13262748    -0.00044499    -0.00010591     0.00010328
C        -4.59507172    -0.75825678     0.14761251     0.00059540     0.00027216     0.00002916
H        -6.54161964     0.06450285    -0.48051743    -0.00075962    -0.00085383    -0.00060903
H        -6.45298536    -1.74795082    -0.05039209    -0.00024052     0.00067268    -0.00134922
H        -4.10803435    -1.65888643     0.47511073     0.00083842    -0.00045402     0.00009151
C        -4.05515019     0.50117988     0.00859569    -0.00075143    -0.00027812    -0.00003528
C        -2.56211262     0.59270089     0.12358446     0.00032051     0.00031213     0.00007954
H        -4.63836482     1.34300293    -0.24633984    -0.00131035     0.00019713     0.00015990
H        -1.99078352    -0.34064489     0.43425067     0.00074562    -0.00130930     0.00059656
C        -1.85216275     1.76087345    -0.00718309     0.00032245    -0.00005742    -0.00019670
H        -2.32286742     2.61048435    -0.43988321    -0.00048457     0.00111975    -0.00001710
N        -0.49364962     1.69021841     0.21222937    -0.00009520    -0.00001993     0.00013267
H         0.11654117     2.52334714     0.11190991     0.00088031    -0.00119128     0.00019283
H        -0.10468686     0.81785869     0.59238403     0.00115392     0.00039380    -0.00067073
    14
  Step:    16            Position(A)                                  Velocity(au)
C        -5.99613041    -0.79353954    -0.13146394    -0.00042474    -0.00012461     0.00010927
C        -4.58883387    -0.75511123     0.14788408     0.00054159     0.00029665     0.00002141
H        -6.55009738     0.05552737    -0.48722643    -0.00078907    -0.00077747    -0.00061742
H        -6.45673275    -1.74131916    -0.06519068    -0.00045504     0.00050247    -0.00135021
H        -4.09813653    -1.66402248     0.47607508     0.00095560    -0.00045505     0.00007341
C        -4.06314843     0.49793230     0.00823998    -0.00070667    -0.00030898    -0.00003047
C        -2.55854672     0.59605377     0.12455150     0.00032813     0.00029595     0.00009784
H        -4.65343197     1.34630574    -0.24496751    -0.00142194     0.00037532     0.00010006
H        -1.98365098    -0.35369177     0.44033659     0.00053946    -0.00103875     0.00050436
C        -1.84846190     1.76009435    -0.00934702     0.00035205    -0.00007940    -0.00020066
H        -2.32809561     2.62409944    -0.44003995    -0.00044331     0.00131918     0.00001084
N        -0.49471230     1.69010111     0.21366485    -0.00009810    -0.00000211     0.00012985
H         0.12557223     2.50930037     0.11419160     0.00077556    -0.00135061     0.00021809
H        -0.09218316     0.82286191     0.58479587     0.00112517     0.00050559    -0.00071242
    14
  Step:    17            Position(A)                                  Velocity(au)
C        -6.00064798    -0.79499250    -0.13023705    -0.00039908    -0.00013933     0.00011478
C        -4.58322340    -0.75176692     0.14808100     0.00048097     0.00030774     0.00001566
H        -6.55888205     0.04749411    -0.49402466    -0.00081311    -0.00068562    -0.00062368
H        -6.46294033    -1.73695823    -0.07993054    -0.00068377     0.00026924    -0.00134009
H        -4.08712883    -1.66884162     0.47671673     0.00104038    -0.00039626     0.00003277
C        -4.07060984     0.49442028     0.00792907    -0.00065387    -0.00032519    -0.00002735
C        -2.55493404     0.59917539     0.12572488     0.00032873     0.00027083     0.00011692
H        -4.66947244     1.35121388    -0.24415077    -0.00148350     0.00048439     0.00006005
H        -1.97898184    -0.36336963     0.44528448     0.00030270    -0.00070525     0.00039245
C        -1.84446108     1.75913644    -0.01157296     0.00037705    -0.00009012    -0.00020794
H        -2.33256573     2.63934384    -0.43964607    -0.00034722     0.00141795     0.00008186
N        -0.49579577     1.69017224     0.21507000    -0.00009927     0.00001418     0.00012716
H         0.13350800     2.49379990     0.11668114     0.00068575    -0.00144970     0.00022984
H        -0.08007157     0.82891946     0.57679849     0.00108396     0.00058302    -0.00074420
    14
  Step:    18            Position(A)                                  Velocity(au)
C        -6.00486115    -0.79658776    -0.12895290    -0.00037021    -0.00015153     0.00011964
C        -4.57831172    -0.74837893     0.14822678     0.00041402     0.00030431     0.00001210
H        -6.56788581     0.04052821    -0.50087059    -0.00082648    -0.00058649    -0.00062432
H        -6.47169145    -1.73542905    -0.09450778    -0.00091174     0.00000057    -0.00132175
H        -4.07537622    -1.67269134     0.47679203     0.00109218    -0.00028080    -0.00002886
C        -4.07745300     0.49081825     0.00764165    -0.00059411    -0.00032480    -0.00002630
C        -2.55135516     0.60197874     0.12710938     0.00032188     0.00023880     0.00013612
H        -4.68588640     1.35690261    -0.24365382    -0.00148891     0.00051694     0.00004179
H        -1.97702883    -0.36912056     0.44892219     0.00004939    -0.00033159     0.00026842
C        -1.84021331     1.75812288    -0.01389611     0.00039710    -0.00009007    -0.00021815
H        -2.33569180     2.65511982    -0.43824921    -0.00020122     0.00142103     0.00019048
N        -0.49688397     1.69041129     0.21644675    -0.00009914     0.00002834     0.00012470
H         0.14057425     2.47758534     0.11921972     0.00062106    -0.00147629     0.00022640
H        -0.06846940     0.83561665     0.56851504     0.00103347     0.00062024    -0.00076393
    14
  Step:    19            Position(A)                                  Velocity(au)
C        -6.00874705    -0.79830760    -0.12761970    -0.00034036    -0.00016317     0.00012361
C        -4.57416585    -0.74510946     0.14834565     0.00034114     0.00028619     0.00001067
H        -6.57696290     0.03466360    -0.50768285    -0.00082416    -0.00048808    -0.00061577
H        -6.48288637    -1.73694573    -0.10884640    -0.00112166    -0.00027049    -0.00129708
H        -4.06323540    -1.67498472     0.47608543     0.00111277    -0.00011681    -0.00010817
C        -4.08360724     0.48731469     0.00735375    -0.00052833    -0.00030716    -0.00002744
C        -2.54789225     0.60439954     0.12870271     0.00030762     0.00020199     0.00015480
H        -4.70204519     1.36252296    -0.24323649    -0.00143830     0.00047486     0.00004454
H        -1.97790142    -0.37062391     0.45115676    -0.00020799     0.00006113     0.00013932
C        -1.83577376     1.75716603    -0.01634550     0.00041211    -0.00008056    -0.00023064
H        -2.33696776     2.67043150    -0.43547903    -0.00001400     0.00134032     0.00032820
N        -0.49796473     1.69079230     0.21779806    -0.00009794     0.00004002     0.00012257
H         0.14709493     2.46150330     0.12163412     0.00058833    -0.00142401     0.00020695
H        -0.05746247     0.84248843     0.56008603     0.00097608     0.00061421    -0.00077067
    14
  Step:    20            Position(A)                                  Velocity(au)
C        -6.01230718    -0.80015735    -0.12624864    -0.00031161    -0.00017624     0.00012640
C        -4.57084872    -0.74211803     0.14846026     0.00026275     0.00025406     0.00001116
H        -6.58591588     0.02985043    -0.51434167    -0.00080201    -0.00039737    -0.00059480
H        -6.49622995    -1.74134657    -0.12288385    -0.00129664    -0.00051154    -0.00126655
H        -4.05103214    -1.67524681     0.47442563     0.00110563     0.00008420    -0.00020072
C        -4.08901124     0.48409857     0.00704145    -0.00045736    -0.00027282    -0.00003065
C        -2.54462541     0.60639755     0.13049583     0.00028621     0.00016268     0.00017233
H        -4.71735196     1.36729101    -0.24267948    -0.00133654     0.00036695     0.00006562
H        -1.98157897    -0.36778313     0.45197011    -0.00045774     0.00045250     0.00001196
C        -1.83119766     1.75636051    -0.01894189     0.00042209    -0.00006338    -0.00024462
H        -2.33599811     2.68444199    -0.43106925     0.00020383     0.00119145     0.00048533
N        -0.49902659     1.69128675     0.21912814    -0.00009550     0.00004914     0.00012087