     6
  Step:   120            Position(A)                                  Velocity(au)
C        -0.03909824    -0.04014535     0.00198987     0.00001197    -0.00023094    -0.00036332
N        -0.03936090    -0.00482543     1.34194905     0.00004079     0.00006254     0.00030485
H         0.85410838     0.21989085    -0.68390035     0.00067187     0.00112700     0.00033739
H         0.82846257    -0.36253525     1.80019628    -0.00007922    -0.00014326    -0.00028923
H        -0.95418431    -0.17079169     1.79994747    -0.00042144     0.00035582    -0.00014914
H        -0.92844419     0.18909787    -0.69611565    -0.00088063     0.00054317     0.00019404
