     6
  Step:   600            Position(A)                                  Velocity(au)
C        -0.10485775     0.07359674    -0.00931225    -0.00020830    -0.00020071     0.00108308
N         0.03023057    -0.15313207     1.31596193    -0.00003553     0.00014874    -0.00112199
H        -0.18847256     1.47151975     0.06428880     0.00086347     0.00548880     0.00492770
H        -0.83875132    -0.98815964     1.26795612     0.00211426    -0.00124563     0.00025505
H         0.08971498     0.50079931     2.35465615    -0.00166060     0.00127127    -0.00198971
H         0.55336664    -0.40275036    -0.97130527     0.00165859    -0.00518968    -0.00050764
