     6
  Step:     0            Position(A)                                  Velocity(au)
C        -0.04106883    -0.00240641     0.03670403    -0.00002482    -0.00001380     0.00021267
N        -0.04358794    -0.04448905     1.28372432    -0.00019969    -0.00002096    -0.00021423
H         0.93368981     0.07345102    -0.53471198    -0.00001454     0.00004927    -0.00011772
H         0.82775767    -0.14162416     1.87446666     0.00149783     0.00015172     0.00044327
H        -0.89142375    -0.05487514     1.80188077     0.00074619     0.00015402    -0.00023338
H        -0.98786934     0.10018064    -0.52604610     0.00084116     0.00010073     0.00035061
     6
  Step:     1            Position(A)                                  Velocity(au)
C        -0.04126853    -0.00254911     0.03803674    -0.00000931    -0.00001238     0.00002852
N        -0.04558329    -0.04473648     1.28224307    -0.00015913    -0.00002482    -0.00005279
H         0.93312033     0.07412758    -0.53633238    -0.00009083     0.00007400    -0.00017456
H         0.84323451    -0.13999558     1.87878939     0.00127848     0.00015199     0.00031231
H        -0.88515419    -0.05325060     1.80083905     0.00036899     0.00014293     0.00006576
H        -0.97893938     0.10139009    -0.52300390     0.00076549     0.00012353     0.00019026
     6
  Step:     2            Position(A)                                  Velocity(au)
C        -0.04127243    -0.00267726     0.03732793     0.00001036    -0.00001128    -0.00015573
N        -0.04706919    -0.04503201     1.28256934    -0.00010950    -0.00002949     0.00011230
H         0.93170276     0.07506984    -0.53853091    -0.00016601     0.00009799    -0.00022541
H         0.85572678    -0.13829907     1.88129908     0.00096970     0.00016187     0.00012537
H        -0.88335131    -0.05174820     1.80331943    -0.00004542     0.00013206     0.00039399
H        -0.97112281     0.10288309    -0.52188382     0.00063985     0.00015231     0.00000115
     6
  Step:     3            Position(A)                                  Velocity(au)
C        -0.04104185    -0.00279593     0.03462977     0.00003273    -0.00001076    -0.00033066
N        -0.04797886    -0.04538157     1.28469987    -0.00005674    -0.00003445     0.00027349
H         0.92948864     0.07627133    -0.54126362    -0.00023298     0.00012154    -0.00027429
H         0.86444862    -0.13645439     1.88153204     0.00060543     0.00017717    -0.00009153
H        -0.88614786    -0.05036147     1.80945832    -0.00044542     0.00012202     0.00071646
H        -0.96494145     0.10472215    -0.52297863     0.00047131     0.00018622    -0.00021104
     6
  Step:     4            Position(A)                                  Velocity(au)
C        -0.04055644    -0.00291269     0.03009419     0.00005596    -0.00001100    -0.00048792
N        -0.04831039    -0.04578561     1.28855240    -0.00000642    -0.00003922     0.00042402
H         0.92660586     0.07772883    -0.54453160    -0.00028511     0.00014497    -0.00032523
H         0.86897163    -0.13442310     1.87929662     0.00021742     0.00019433    -0.00031460
H        -0.89309573    -0.04907877     1.81899333    -0.00078185     0.00011310     0.00099904
H        -0.96081192     0.10695710    -0.52650083     0.00027187     0.00022379    -0.00043749
     6
  Step:     5            Position(A)                                  Velocity(au)
C        -0.03981769    -0.00303665     0.02395565     0.00007799    -0.00001209    -0.00062109
N        -0.04811928    -0.04623962     1.29397601     0.00003674    -0.00004338     0.00055813
H         0.92325127     0.07944282    -0.54837860    -0.00031668     0.00016864    -0.00038182
H         0.86920502    -0.13220305     1.87464956    -0.00016342     0.00021013    -0.00052169
H        -0.90325223    -0.04788729     1.83131432    -0.00101744     0.00010524     0.00121531
H        -0.95899386     0.10961804    -0.53254957     0.00005760     0.00026294    -0.00066679
     6
  Step:     6            Position(A)                                  Velocity(au)
C        -0.03885024    -0.00317727     0.01650658     0.00009678    -0.00001402    -0.00072611
N        -0.04750672    -0.04673461     1.30076247     0.00006911    -0.00004654     0.00067113
H         0.91967796     0.08141804    -0.55288460    -0.00032339     0.00019293    -0.00044688
H         0.86539655    -0.12982601     1.86788368    -0.00050523     0.00022150    -0.00069137
H        -0.91535424    -0.04677636     1.84558065    -0.00113206     0.00009818     0.00135056
H        -0.95955174     0.11270950    -0.54108821    -0.00015300     0.00030119    -0.00088629
     6
  Step:     7            Position(A)                                  Velocity(au)
C        -0.03770047    -0.00334339     0.00807070     0.00011054    -0.00001669    -0.00080125
N        -0.04660740    -0.04725771     1.30865820     0.00008810    -0.00004837     0.00075947
H         0.91617643     0.08366351    -0.55815487    -0.00030299     0.00021822    -0.00052204
H         0.85815225    -0.12735724     1.85952457    -0.00077418     0.00022538    -0.00080256
H        -0.92801816    -0.04573934     1.86086045    -0.00112280     0.00009154     0.00140215
H        -0.96234103     0.11620722    -0.55193880    -0.00034156     0.00033594    -0.00108371
     6
  Step:     8            Position(A)                                  Velocity(au)
C        -0.03643204    -0.00354234    -0.00102235     0.00011800    -0.00001994    -0.00084693
N        -0.04557934    -0.04779284     1.31737734     0.00009198    -0.00004863     0.00082086
H         0.91304940     0.08619195    -0.56430521    -0.00025575     0.00024476    -0.00060743
H         0.84845981    -0.12489535     1.85032606    -0.00093580     0.00021886    -0.00083566
H        -0.93991769    -0.04477384     1.87625528    -0.00100045     0.00008496     0.00137700
H        -0.96702408     0.12005877    -0.56479643    -0.00049230     0.00036479    -0.00124880
     6
  Step:     9            Position(A)                                  Velocity(au)
C        -0.03511906    -0.00377952    -0.01045757     0.00011877    -0.00001643    -0.00097388
N        -0.04459522    -0.04832159     1.32661602     0.00008088    -0.00005104     0.00093908
H         0.91058136     0.08901815    -0.57144359    -0.00024719     0.00037118    -0.00060049
H         0.83767991    -0.12256918     1.84124301    -0.00100797     0.00008170    -0.00081099
H        -0.94990491    -0.04388077     1.89098497    -0.00074707     0.00020411     0.00126377
H        -0.97311110     0.12418765    -0.57925875    -0.00053705     0.00024809    -0.00129725
     6
  Step:    10            Position(A)                                  Velocity(au)
C        -0.03383378    -0.00390180    -0.02232791     0.00011291    -0.00000534    -0.00119274
N        -0.04380991    -0.04890942     1.33792144     0.00005409    -0.00005638     0.00112220
H         0.90764163     0.09431233    -0.57744217    -0.00027754     0.00052143    -0.00050444
H         0.82640856    -0.12310798     1.83258404    -0.00096787    -0.00010527    -0.00072603
H        -0.95626137    -0.04030847     1.90390261    -0.00038314     0.00037415     0.00106652
H        -0.97877309     0.12548615    -0.59317618    -0.00046858     0.00005687    -0.00121791
     6
  Step:    11            Position(A)                                  Velocity(au)
C        -0.03264903    -0.00389635    -0.03655103     0.00010045     0.00000607    -0.00138817
N        -0.04341191    -0.04955506     1.35116636     0.00001174    -0.00006065     0.00127922
H         0.90450954     0.10042548    -0.58247916    -0.00027247     0.00058425    -0.00043010
H         0.81650595    -0.12487219     1.82535969    -0.00074958    -0.00021174    -0.00053993
H        -0.95828689    -0.03569550     1.91431718     0.00001848     0.00045571     0.00083466
H        -0.98336220     0.12543174    -0.60590277    -0.00035667    -0.00005778    -0.00109964
     6
  Step:    12            Position(A)                                  Velocity(au)
C        -0.03163621    -0.00376897    -0.05269676     0.00008187     0.00001682    -0.00154373
N        -0.04355305    -0.05023618     1.36590674    -0.00004206    -0.00006290     0.00139563
H         0.90168084     0.10709390    -0.58685153    -0.00021852     0.00063121    -0.00038564
H         0.81001013    -0.12774013     1.82077205    -0.00035851    -0.00031474    -0.00025387
H        -0.95585712    -0.03033893     1.92216238     0.00041154     0.00051780     0.00061065
H        -0.98657590     0.12422221    -0.61723291    -0.00022570    -0.00016054    -0.00097025
     6
  Step:    13            Position(A)                                  Velocity(au)
C        -0.03085803    -0.00352837    -0.07032310     0.00005818     0.00002669    -0.00166038
N        -0.04433197    -0.05093120     1.38169852    -0.00010101    -0.00006345     0.00147378
H         0.89972891     0.11423442    -0.59091582    -0.00011165     0.00067371    -0.00037463
H         0.80866288    -0.13175769     1.81980582     0.00015851    -0.00042231     0.00010198
H        -0.94928376    -0.02436765     1.92767635     0.00075564     0.00057132     0.00042125
H        -0.98829982     0.12191951    -0.62712876    -0.00009221    -0.00025903    -0.00084369
     6
  Step:    14            Position(A)                                  Velocity(au)
C        -0.03036337    -0.00318506    -0.08902080     0.00003094     0.00003555    -0.00174198
N        -0.04576286    -0.05162425     1.39814859    -0.00015636    -0.00006300     0.00151927
H         0.89923833     0.12183264    -0.59504722     0.00004549     0.00071626    -0.00039649
H         0.81347792    -0.13697897     1.82300306     0.00072092    -0.00053187     0.00048183
H        -0.93932599    -0.01784013     1.93137802     0.00100929     0.00062192     0.00029156
H        -0.98859327     0.11855538    -0.63569023     0.00002830    -0.00035452    -0.00073169
     6
  Step:    15            Position(A)                                  Velocity(au)
C        -0.03018105    -0.00275055    -0.10843233     0.00000229     0.00004342    -0.00179347
N        -0.04775263    -0.05230937     1.41493543    -0.00019832    -0.00006256     0.00153858
H         0.90072410     0.12990395    -0.59958978     0.00024261     0.00076036    -0.00044624
H         0.82443442    -0.14339341     1.83034667     0.00123297    -0.00063608     0.00083632
H        -0.92720366    -0.01076205     1.93405483     0.00113176     0.00067447     0.00024459
H        -0.98768069     0.11416378    -0.64313591     0.00012117    -0.00044664    -0.00064433
     6
  Step:    16            Position(A)                                  Velocity(au)
C        -0.03031325    -0.00223526    -0.12825642    -0.00002514     0.00005041    -0.00181981
N        -0.05010142    -0.05299298     1.43180804    -0.00021845    -0.00006327     0.00153755
H         0.90454582     0.13846686    -0.60480963     0.00046220     0.00080539    -0.00051522
H         0.84045141    -0.15089440     1.84129927     0.00160990    -0.00072631     0.00112588
H        -0.91456659    -0.00308483     1.93672885     0.00108988     0.00073409     0.00029770
H        -0.98594235     0.10878437    -0.64978620     0.00017313    -0.00053469    -0.00058984
     6
  Step:    17            Position(A)                                  Velocity(au)
C        -0.03073101    -0.00164766    -0.14824407    -0.00004849     0.00005678    -0.00182530
N        -0.05253161    -0.05369344     1.44857226    -0.00021195    -0.00006605     0.00152065
H         0.91083571     0.14752332    -0.61086127     0.00068173     0.00084917    -0.00059270
H         0.85965404    -0.15928293     1.85497748     0.00179865    -0.00079553     0.00132883
H        -0.90336037     0.00529752     1.94056748     0.00086904     0.00080572     0.00045674
H        -0.98389314     0.10246648    -0.65603981     0.00017361    -0.00061798    -0.00057398
     6
  Step:    18            Position(A)                                  Velocity(au)
C        -0.03137397    -0.00099316    -0.16818842    -0.00006512     0.00006282    -0.00181327
N        -0.05473825    -0.05443802     1.46507510    -0.00017898    -0.00007150     0.00149122
H         0.91945995     0.15704398    -0.61777602     0.00087712     0.00088850    -0.00066798
H         0.87980023    -0.16829804     1.87037007     0.00178459    -0.00083988     0.00144180
H        -0.89555468     0.01454179     1.94672093     0.00048492     0.00089276     0.00070994
H        -0.98214436     0.09526481    -0.66234317     0.00011644    -0.00069637    -0.00059938
     6
  Step:    19            Position(A)                                  Velocity(au)
C        -0.03215562    -0.00027334    -0.18791273    -0.00007313     0.00006891    -0.00178621
N        -0.05644715    -0.05525757     1.48119557    -0.00012461    -0.00007964     0.00145233
H         0.93002430     0.16696092    -0.62547469     0.00102680     0.00091989    -0.00073242
H         0.89869537    -0.17765693     1.88651957     0.00158513    -0.00085897     0.00147453
H        -0.89275191     0.02482838     1.95609879    -0.00001063     0.00099513     0.00102525
H        -0.98134588     0.08723197    -0.66915243     0.00000171    -0.00077041    -0.00066487
     6
  Step:    20            Position(A)                                  Velocity(au)
C        -0.03297390     0.00051443    -0.20726520    -0.00007177     0.00007543    -0.00174638
N        -0.05746436    -0.05618038     1.49684749    -0.00005746    -0.00008999     0.00140738
H         0.94192324     0.17716826    -0.63379913     0.00111511     0.00094022    -0.00078065
H         0.91447802    -0.18708968     1.90262830     0.00123703    -0.00085501     0.00144338
H        -0.89578713     0.03631206     1.96915021    -0.00053600     0.00110779     0.00135469
H        -0.98210687     0.07841053    -0.67688837    -0.00016253    -0.00084125    -0.00076500
     6
  Step:    21            Position(A)                                  Velocity(au)
C        -0.03372574     0.00137675    -0.22611808    -0.00006161     0.00008269    -0.00169592
N        -0.05770417    -0.05722622     1.51198470     0.00001257    -0.00010156     0.00135989
H         0.95441937     0.18753004    -0.64255293     0.00113392     0.00094742    -0.00081079
H         0.92575785    -0.19636196     1.91809624     0.00078490    -0.00083185     0.00136633
H        -0.90447791     0.04906338     1.98573515    -0.00099951     0.00122105     0.00164581
H        -0.98490147     0.06882792    -0.68588831    -0.00035998    -0.00091065    -0.00089036
     6
  Step:    22            Position(A)                                  Velocity(au)
C        -0.03432169     0.00232345    -0.24436660    -0.00004442     0.00009093    -0.00163685
N        -0.05718932    -0.05840215     1.52659778     0.00007657    -0.00011315     0.00131267
H         0.96672989     0.19789480    -0.65153673     0.00108262     0.00094064    -0.00082385
H         0.93164911    -0.20528803     1.93251947     0.00027411    -0.00079424     0.00126062
H        -0.91765325     0.06302493     2.00515537    -0.00132392     0.00132292     0.00185535
H        -0.98998222     0.05848831    -0.69636677    -0.00056769    -0.00098045    -0.00102867
     6
  Step:    23            Position(A)                                  Velocity(au)
C        -0.03469749     0.00336596    -0.26192726    -0.00002280     0.00010020    -0.00157100
N        -0.05602899    -0.05970153     1.54070177     0.00012808    -0.00012358     0.00126716
H         0.97810367     0.20810841    -0.66057633     0.00096683     0.00092022    -0.00082292
H         0.93175449    -0.21373742     1.94567462    -0.00025180    -0.00074750     0.00114215
H        -0.93344117     0.07800479     2.02632449    -0.00146390     0.00140247     0.00195843
H        -0.99732073     0.04737866    -0.70839234    -0.00075934    -0.00105179    -0.00116655
     6
  Step:    24            Position(A)                                  Velocity(au)
C        -0.03482053     0.00451548    -0.27873522     0.00000033     0.00011039    -0.00149992
N        -0.05438736    -0.06110573     1.55431938     0.00016334    -0.00013190     0.00122338
H         0.98788121     0.21802647    -0.66953958     0.00079672     0.00088751    -0.00081214
H         0.92614056    -0.22164111     1.95750620    -0.00075102    -0.00069765     0.00102613
H        -0.94967882     0.09370654     2.04799985    -0.00140990     0.00145243     0.00195014
H        -1.00659426     0.03547839    -0.72188732    -0.00090972    -0.00112478    -0.00129163
     6
  Step:    25            Position(A)                                  Velocity(au)
C        -0.03469023     0.00578101    -0.29474085     0.00002227     0.00012124    -0.00142482
N        -0.05245555    -0.06258709     1.56746559     0.00018073    -0.00013740     0.00118014
H         0.99553335     0.22752444    -0.67834337     0.00058503     0.00084463    -0.00079598
H         0.91532457    -0.22899983     1.96812315    -0.00118252    -0.00065155     0.00092774
H        -0.96428552     0.10977940     2.06898746    -0.00118065     0.00147012     0.00184090
H        -1.01722253     0.02277197    -0.73664924    -0.00099878    -0.00119841    -0.00139418
     6
  Step:    26            Position(A)                                  Velocity(au)
C        -0.03433341     0.00716777    -0.30990586     0.00004082     0.00013233    -0.00134655
N        -0.05043356    -0.06411172     1.58013725     0.00017985    -0.00013962     0.00113556
H         1.00067986     0.23650444    -0.68695311     0.00034578     0.00079426    -0.00077874
H         0.90027072    -0.23589509     1.97780226    -0.00150613    -0.00061706     0.00086240
H        -0.97550770     0.12586826     2.08827312    -0.00081114     0.00145690     0.00164977
H        -1.02844438     0.00926087    -0.75238765    -0.00101436    -0.00127076    -0.00146808
     6
  Step:    27            Position(A)                                  Velocity(au)
C        -0.03379711     0.00867604    -0.32419916     0.00005448     0.00014321    -0.00126561
N        -0.04852095    -0.06564153     1.59230811     0.00016103    -0.00013823     0.00108752
H         1.00309803     0.24490036    -0.69537978     0.00009342     0.00073945    -0.00076439
H         0.88237500    -0.24249916     1.98698974    -0.00168526    -0.00060256     0.00084486
H        -0.98203086     0.14165191     2.10507943    -0.00034252     0.00141702     0.00139876
H        -1.03941364    -0.00502824    -0.76876637    -0.00095274    -0.00133939    -0.00151083
     6
  Step:    28            Position(A)                                  Velocity(au)
C        -0.03314152     0.01030069    -0.33759350     0.00006233     0.00015336    -0.00118223
N        -0.04691062    -0.06713586     1.60392890     0.00012534    -0.00013313     0.00103411
H         1.00272353     0.25268140    -0.70367551    -0.00015777     0.00068356    -0.00075647
H         0.86340240    -0.24907727     1.99628522    -0.00169309    -0.00061581     0.00088677
H        -0.98300088     0.15686829     2.11887365     0.00018383     0.00135672     0.00110971
H        -1.04928728    -0.02004081    -0.78544004    -0.00081751    -0.00140186    -0.00152292
     6
  Step:    29            Position(A)                                  Velocity(au)
C        -0.03243363     0.01203115    -0.35006274     0.00006393     0.00016233    -0.00109644
N        -0.04577889    -0.06855405     1.61493127     0.00007512    -0.00012453     0.00097393
H         0.99964653     0.25985451    -0.71192902    -0.00039398     0.00063009    -0.00075814
H         0.84533551    -0.25597116     2.00638950    -0.00152180    -0.00066171     0.00099265
H        -0.97800915     0.17133273     2.12935657     0.00072780     0.00128392     0.00080357
H        -1.05729831    -0.03569671    -0.80208317    -0.00061784    -0.00145610    -0.00150699
     6
  Step:    30            Position(A)                                  Velocity(au)
C        -0.03174284     0.01385187    -0.36158019     0.00005923     0.00016967    -0.00100814
N        -0.04526724    -0.06986009     1.62523547     0.00001472    -0.00011317     0.00090638
H         0.99410436     0.26646582    -0.72026127    -0.00060233     0.00058264    -0.00077213
H         0.83011020    -0.26355345     2.01800130    -0.00119136    -0.00073968     0.00115564
H        -0.96707897     0.18495644     2.13645335     0.00124956     0.00120855     0.00050104
H        -1.06280364    -0.05189576    -0.81840840    -0.00036624    -0.00150060    -0.00146699
     6
  Step:    31            Position(A)                                  Velocity(au)
C        -0.03113788     0.01574299    -0.37211764     0.00004839     0.00017505    -0.00091717
N        -0.04545696    -0.07102989     1.63476008    -0.00004920    -0.00010057     0.00083174
H         0.98646944     0.27260080    -0.72882077    -0.00077134     0.00054471    -0.00080068
H         0.81927218    -0.27215299     2.03167124    -0.00075242    -0.00084169     0.00135523
H        -0.95067263     0.19777202     2.14031768     0.00170777     0.00114331     0.00022383
H        -1.06531047    -0.06852516    -0.83417631    -0.00007710    -0.00153459    -0.00140754
     6
  Step:    32            Position(A)                                  Velocity(au)
C        -0.03068413     0.01768134    -0.38164497     0.00003186     0.00017821    -0.00082336
N        -0.04634355    -0.07206027     1.64343130    -0.00010812    -0.00008900     0.00075094
H         0.97722985     0.27838231    -0.73777770    -0.00089170     0.00051951    -0.00084543
H         0.81364967    -0.28196705     2.04764957    -0.00027879    -0.00095257     0.00155941
H        -0.92971820     0.20996857     2.14135012     0.00205885     0.00110438    -0.00000452
H        -1.06449025    -0.08546778    -0.84920092     0.00023441    -0.00155805    -0.00133361
     6
  Step:    33            Position(A)                                  Velocity(au)
C        -0.03044098     0.01964160    -0.39013018     0.00001033     0.00017903    -0.00072656
N        -0.04782224    -0.07297693     1.65118824    -0.00015314    -0.00008128     0.00066515
H         0.96696172     0.28396615    -0.74731617    -0.00095732     0.00050966    -0.00090709
H         0.81317315    -0.29299219     2.06578633     0.00014976    -0.00105304     0.00173154
H        -0.90563127     0.22193255     2.14021882     0.00225948     0.00111131    -0.00015958
H        -1.06018237    -0.10261049    -0.86335165     0.00055295    -0.00157174    -0.00125033
     6
  Step:    34            Position(A)                                  Velocity(au)
C        -0.03045816     0.02159785    -0.39753988    -0.00001507     0.00017753    -0.00062669
N        -0.04969369    -0.07383835     1.65798271    -0.00017693    -0.00008026     0.00057539
H         0.95628671     0.28953215    -0.75762212    -0.00096661     0.00051672    -0.00098505
H         0.81692585    -0.30500421     2.08553023     0.00046750    -0.00112464     0.00183943
H        -0.88028779     0.23428060     2.13785889     0.00227393     0.00118499    -0.00021969
H        -1.05239346    -0.11985255    -0.87655426     0.00086333    -0.00157717    -0.00116288
     6
  Step:    35            Position(A)                                  Velocity(au)
C        -0.03077074     0.02352546    -0.40384021    -0.00004276     0.00017394    -0.00052376
N        -0.05169282    -0.07473285     1.66377597    -0.00017564    -0.00008819     0.00048250
H         0.94581523     0.29527048    -0.76886608    -0.00092354     0.00054088    -0.00107694
H         0.82340056    -0.31759582     2.10602741     0.00063657    -0.00115419     0.00186256
H        -0.85588463     0.24785651     2.13541260     0.00208658     0.00134277    -0.00017290
H        -1.04129543    -0.13711403    -0.88879198     0.00115060    -0.00157663    -0.00107660
     6
  Step:    36            Position(A)                                  Velocity(au)
C        -0.03139362     0.02540317    -0.40899823    -0.00007065     0.00016866    -0.00041795
N        -0.05353616    -0.07576765     1.66853837    -0.00015012    -0.00010593     0.00038762
H         0.93608260     0.30136487    -0.78118222    -0.00083789     0.00058069    -0.00117835
H         0.83085204    -0.33025425     2.12627726     0.00064976    -0.00113595     0.00179449
H        -0.83463991     0.26365620     2.13407639     0.00171561     0.00159078    -0.00002549
H        -1.02722182    -0.15434431    -0.90010697     0.00140034    -0.00157317    -0.00099691
     6
  Step:    37            Position(A)                                  Velocity(au)
C        -0.03231626     0.02721526    -0.41298362    -0.00009625     0.00016228    -0.00030958
N        -0.05497691    -0.07705036     1.67225588    -0.00010592    -0.00013251     0.00029269
H         0.92748484     0.30797413    -0.79464474    -0.00072474     0.00063311    -0.00128278
H         0.83761536    -0.34244687     2.14528525     0.00052429    -0.00107129     0.00164095
H        -0.81835242     0.28265782     2.13485500     0.00122000     0.00191638     0.00019255
H        -1.01066037    -0.17153021    -0.91060123     0.00159921    -0.00157052    -0.00092916
     6
  Step:    38            Position(A)                                  Velocity(au)
C        -0.03349938     0.02895330    -0.41577078    -0.00011698     0.00015550    -0.00019917
N        -0.05585330    -0.07866648     1.67494149    -0.00005203    -0.00016498     0.00020058
H         0.92022743     0.31521545    -0.80924559    -0.00060263     0.00069387    -0.00138201
H         0.84232182    -0.35369082     2.16217608     0.00029186    -0.00096675     0.00141568
H        -0.80795001     0.30558061     2.13828888     0.00069150     0.00228542     0.00043043
H        -0.99223598    -0.18870254    -0.92043413     0.00173613    -0.00157284    -0.00087821
     6
  Step:    39            Position(A)                                  Velocity(au)
C        -0.03487532     0.03061712    -0.41734074    -0.00013043     0.00014907    -0.00008740
N        -0.05611523    -0.08065960     1.67664392     0.00000148    -0.00019909     0.00011444
H         0.91430105     0.32315382    -0.82487888    -0.00049078     0.00075809    -0.00146686
H         0.84400046    -0.36359642     2.17625599    -0.00001012    -0.00083182     0.00113644
H        -0.80322442     0.33265580     2.14427146     0.00023088     0.00264841     0.00062936
H        -0.97267921    -0.20593908    -0.92981371     0.00180360    -0.00158429    -0.00084771
     6
  Step:    40            Position(A)                                  Velocity(au)
C        -0.03635284     0.03221447    -0.41768293    -0.00013491     0.00014363     0.00002486
N        -0.05582091    -0.08302203     1.67744500     0.00004600    -0.00023035     0.00003661
H         0.90949077     0.33180009    -0.84133601    -0.00040613     0.00082115    -0.00152829
H         0.84210042    -0.37188840     2.18703781    -0.00034414    -0.00067727     0.00082231
H        -0.80289907     0.36351973     2.15205734    -0.00008092     0.00295409     0.00073993
H        -0.95277883    -0.22336200    -0.93897939     0.00179956    -0.00160836    -0.00083905
     6
  Step:    41            Position(A)                                  Velocity(au)
C        -0.03782678     0.03375929    -0.41679686    -0.00012971     0.00013960     0.00013663
N        -0.05510899    -0.08569902     1.67744492     0.00007584    -0.00025511    -0.00003215
H         0.90541625     0.34111808    -0.85831319    -0.00036103     0.00087941    -0.00155846
H         0.83647172    -0.37841310     2.19424568    -0.00067486    -0.00051432     0.00049261
H        -0.80499479     0.39728224     2.16045894    -0.00020142     0.00316341     0.00073458
H        -0.93331046    -0.24112505    -0.94816953     0.00172898    -0.00164688    -0.00085013
     6
  Step:    42            Position(A)                                  Velocity(au)
C        -0.03919043     0.03526843    -0.41469388    -0.00011526     0.00013705     0.00024675
N        -0.05416187    -0.08860294     1.67674167     0.00008841    -0.00027110    -0.00009289
H         0.90159257     0.35103890    -0.87543022    -0.00036208     0.00093066    -0.00155151
H         0.82733654    -0.38314024     2.19781457    -0.00096945    -0.00035428     0.00016660
H        -0.80730552     0.43272535     2.16812777    -0.00012798     0.00325698     0.00060992
H        -0.91495405    -0.25939058    -0.95757756     0.00160432    -0.00169918    -0.00087453
     6
  Step:    43            Position(A)                                  Velocity(au)
C        -0.04034829     0.03675752    -0.41139878    -0.00009307     0.00013568     0.00035393
N        -0.05317494    -0.09162976     1.67541283     0.00008336    -0.00027743    -0.00014797
H         0.89749513     0.36147809    -0.89225553    -0.00041022     0.00097425    -0.00150403
H         0.81526318    -0.38616355     2.19789038    -0.00119742    -0.00020842    -0.00013650
H        -0.80779449     0.46853488     2.17380207     0.00011364     0.00323433     0.00038068
H        -0.89821279    -0.27829787    -0.96730157     0.00144450    -0.00176160    -0.00090145
     6
  Step:    44            Position(A)                                  Velocity(au)
C        -0.04122650     0.03823670    -0.40695093    -0.00006539     0.00013483     0.00045687
N        -0.05233818    -0.09467232     1.67350457     0.00006156    -0.00027419    -0.00020041
H         0.89261833     0.37235256    -0.90833380    -0.00050161     0.00101098    -0.00141506
H         0.80114063    -0.38769985     2.19482842    -0.00133115    -0.00008773    -0.00039805
H        -0.80481941     0.50348260     2.17645581     0.00048421     0.00310811     0.00007078
H        -0.88335278    -0.29792889    -0.97729848     0.00127212    -0.00182766    -0.00091677
     6