     6
  Step:   600            Position(A)                                  Velocity(au)
C         0.12409661     0.13733166     0.11816803     0.00121944    -0.00059020     0.00050880
N        -0.15198306    -0.08050980     1.20933604    -0.00089246     0.00030228    -0.00038509
H        -0.82763801     0.57732593    -0.38911760    -0.00255404     0.00249304    -0.00041025
H        -1.05155781    -0.23153190     1.92533225     0.00146875    -0.00301713     0.00340316
H         0.52549680    -0.86476399     1.23072826     0.00333853     0.00394943     0.00172048
H         0.77404734    -0.66783356    -0.08783606    -0.00438217    -0.00059303    -0.00542488
