|===============================================================================
|
|  DFTB+ release 20.1
|
|  Copyright (C) 2006 - 2020  DFTB+ developers group
|
|===============================================================================
|
|  When publishing results obtained with DFTB+, please cite the following
|  reference:
|
|  * DFTB+, a software package for efficient approximate density functional
|    theory based atomistic simulations, J. Chem. Phys. 152, 124101 (2020).
|    [doi: 10.1063/1.5143190]
|
|  You should also cite additional publications crediting the parametrization
|  data you use. Please consult the documentation of the SK-files for the
|  references.
|
|===============================================================================

Reading input file 'dftb_in.hsd'
Parser version: 8

--------------------------------------------------------------------------------
Reading SK-files:
Done.


Processed input in HSD format written to 'dftb_pin.hsd'

Starting initialization...
--------------------------------------------------------------------------------
OpenMP threads:              1
Chosen random seed:          508634133
Mode:                        Static calculation
Self consistent charges:     Yes
SCC-tolerance:                 0.100000E-05
Max. scc iterations:                   1000
Shell resolved Hubbard:      No
Spin polarisation:           No
Nr. of up electrons:             6.000000
Nr. of down electrons:           6.000000
Periodic boundaries:         No
Electronic solver:           Relatively robust
Maximal SCC-cycles:                    1000
Initial charges:             Set automatically (system chrg:   0.100E+01)
Included shells:             C:  s, p
                             N:  s, p
                             H:  s
Spin coupling constants:     C   1(s)-1(s):  -0.455900E-01
                             C   1(s)-2(p):  -0.293000E-01
                             C   2(p)-1(s):  -0.293000E-01
                             C   2(p)-2(p):  -0.275500E-01
                             N   1(s)-1(s):  -0.468700E-01
                             N   1(s)-2(p):  -0.317000E-01
                             N   2(p)-1(s):  -0.317000E-01
                             N   2(p)-2(p):  -0.307200E-01
                             H   1(s)-1(s):  -0.792500E-01
Range separated hybrid:      Yes
  Screening parameter omega:   0.300000E+00
  Range separated algorithm:   MatrixBased
Extra options:
                             Mulliken analysis
                             Force calculation
Force type                   original
                             Eigenvector printing


REKS Calcuation:             Yes
SSR(2,2) Calcuation:         Yes
Energy Functional:           (PPS+OSS)/2
Number of Core Orbitals:                  5
Number of Active Orbitals:                2
Number of Basis:                         12
Number of States:                         2
State-Averaging Weight:          0.500000
                                 0.500000
State of Interest:                        1
Initial Guess:               Diagonalize H0 matrix
Newton-Raphson for FON opt:  Yes
NR max. Iterations:                      50
Level Shifting:              Yes
Shift Value:                     0.300000
W Scale Factor:              C  =    3.000000
                             N  =    3.000000
                             H  =    3.000000
Transition Dipole:           No
Gradient of Microstate:      No
CP-REKS Solver:              Preconditioned Conjugate-Gradient
CG max. Iterations:                     100
CG Tolerance:                  0.100000E-07
Memory for A and Hxc:        Direct Updating Without Saving
Non-Adiabatic Coupling:      Yes

--------------------------------------------------------------------------------

***  Geometry step: 0

  iSCC       reks energy        Diff energy         x_a       SCC error   
    1       -6.2592568289       0.0000000000     0.999469    1.18314927
    2       -6.2730351525      -0.0137783236     0.999786    0.10383162
    3       -6.2780233712      -0.0049882187     0.999886    0.04701715
    4       -6.2809495704      -0.0029261992     0.999929    0.02335012
    5       -6.2828426561      -0.0018930857     0.999950    0.01168819
    6       -6.2840728046      -0.0012301485     0.999961    0.00971478
    7       -6.2848521456      -0.0007793410     0.999967    0.00860319
    8       -6.2853310274      -0.0004788818     0.999970    0.00722283
    9       -6.2856177295      -0.0002867021     0.999972    0.00584443
   10       -6.2857861788      -0.0001684492     0.999974    0.00460734
   11       -6.2858839890      -0.0000978103     0.999974    0.00356531
   12       -6.2859404468      -0.0000564578     0.999975    0.00272282
   13       -6.2859729917      -0.0000325449     0.999975    0.00206020
   14       -6.2859917917      -0.0000188000     0.999975    0.00154885
   15       -6.2860027016      -0.0000109099     0.999975    0.00115943
   16       -6.2860090724      -0.0000063708     0.999975    0.00090956
   17       -6.2860128195      -0.0000037471     0.999975    0.00073279
   18       -6.2860150403      -0.0000022208     0.999975    0.00059060
   19       -6.2860163666      -0.0000013263     0.999975    0.00048368
   20       -6.2860171646      -0.0000007979     0.999975    0.00039439
   21       -6.2860176479      -0.0000004833     0.999975    0.00032045
   22       -6.2860179424      -0.0000002945     0.999975    0.00025959
   23       -6.2860181229      -0.0000001805     0.999975    0.00020977
   24       -6.2860182340      -0.0000001111     0.999975    0.00016914
   25       -6.2860183027      -0.0000000687     0.999975    0.00013613
   26       -6.2860183453      -0.0000000426     0.999975    0.00010938
   27       -6.2860183718      -0.0000000265     0.999975    0.00008776
   28       -6.2860183883      -0.0000000165     0.999975    0.00007033
   29       -6.2860183986      -0.0000000103     0.999975    0.00005630
   30       -6.2860184050      -0.0000000065     0.999975    0.00004502
   31       -6.2860184091      -0.0000000040     0.999975    0.00003598
   32       -6.2860184116      -0.0000000025     0.999975    0.00002872
   33       -6.2860184132      -0.0000000016     0.999975    0.00002292
   34       -6.2860184142      -0.0000000010     0.999975    0.00001828
   35       -6.2860184148      -0.0000000006     0.999975    0.00001457
   36       -6.2860184152      -0.0000000004     0.999975    0.00001161
   37       -6.2860184155      -0.0000000002     0.999975    0.00000924
   38       -6.2860184156      -0.0000000002     0.999975    0.00000736
   39       -6.2860184157      -0.0000000001     0.999975    0.00000585
   40       -6.2860184158      -0.0000000001     0.999975    0.00000466
   41       -6.2860184158      -0.0000000000     0.999975    0.00000370
   42       -6.2860184159      -0.0000000000     0.999975    0.00000295
   43       -6.2860184159      -0.0000000000     0.999975    0.00000234
   44       -6.2860184159      -0.0000000000     0.999975    0.00000186
   45       -6.2860184159      -0.0000000000     0.999975    0.00000148
   46       -6.2860184159      -0.0000000000     0.999975    0.00000118
   47       -6.2860184159      -0.0000000000     0.999975    0.00000093
  
--------------------------------------------------
 Final SA-REKS(2,2) energy:      -6.28601842
  
 State     Energy      FON(1)    FON(2)   Spin
  PPS   -6.41753325   1.999950  0.000050  0.00
  OSS   -6.15450358   1.000000  1.000000  0.00
 Trip   -6.23240466   1.000000  1.000000  1.00
--------------------------------------------------

 Lagrangian Wab:  -0.00213542 -0.00213534

--------------------------------------------------
 SSR: 2SI-2SA-REKS(2,2) Hamiltonian matrix
               PPS           OSS
   PPS    -6.41753325   -0.00300484
   OSS    -0.00300484   -6.15450358
--------------------------------------------------

----------------------------------------------------------------
 SSR: 2SI-2SA-REKS(2,2) states
                    E_n       C_{PPS}    C_{OSS}
 SSR state  1   -6.41756758  -0.999935  -0.011422
 SSR state  2   -6.15446926   0.011422  -0.999935
----------------------------------------------------------------

 unrelaxed SSR FONs for S0:  1.999820  0.000180

Total Energy:                       -6.4175675764 H         -174.6309 eV
Extrapolated to 0:                  -6.4175675764 H         -174.6309 eV

----------------------------------------------------------------------------------
 Solving CP-REKS equation for  1 state vector...
----------------------------------------------------------------------------------
  CG solver: Constructing Y initial guess
  CG solver: Iteration    1    eps =    0.000040854561
  CG solver: Iteration    2    eps =    0.000005160921
  CG solver: Iteration    3    eps =    0.000000259642
  CG solver: Iteration    4    eps =    0.000000014122
  CG solver: Iteration    5    eps =    0.000000003471
  Convergence reached in CG solver after    5 iterations
  CG solver: Calculating converged R, Z, Q2 matrix
----------------------------------------------------------------------------------

----------------------------------------------------------------------------------
 Solving CP-REKS equation for SI between  1 and  2 state vectors...
----------------------------------------------------------------------------------
  CG solver: Constructing Y initial guess
  CG solver: Iteration    1    eps =    0.000547359493
  CG solver: Iteration    2    eps =    0.000322305772
  CG solver: Iteration    3    eps =    0.000113879552
  CG solver: Iteration    4    eps =    0.000001475604
  CG solver: Iteration    5    eps =    0.000000188457
  CG solver: Iteration    6    eps =    0.000000003862
  Convergence reached in CG solver after    6 iterations
  CG solver: Calculating converged R, Z, Q2 matrix
----------------------------------------------------------------------------------

--------------------------------------------------
 Gradient Information
--------------------------------------------------
           1 st state (SSR)
    -0.00115197    -0.00490410     0.01072648
     0.00446312    -0.00407448    -0.01212803
     0.00626827    -0.00495968    -0.00125828
     0.00391821     0.00636224     0.00190538
    -0.00716107     0.00048840    -0.00154375
    -0.00633656     0.00708763     0.00229819

           2 st state (SSR)
     0.00119086    -0.00532377     0.11921106
    -0.00247695     0.00167534    -0.13804864
    -0.00550769     0.00615019     0.01708138
    -0.00304223    -0.00204434    -0.00698689
     0.00522737     0.00838452    -0.00973847
     0.00460864    -0.00884194     0.01848157
--------------------------------------------------
 Coupling Information
--------------------------------------------------
 between  1 and  2 states
--------------------------------------------------
 g vector - difference gradient
    -0.00116120     0.00023391    -0.05428890
     0.00348757    -0.00290847     0.06299182
     0.00602517    -0.00555448    -0.00917012
     0.00363246     0.00421284     0.00446162
    -0.00635939    -0.00393643     0.00410240
    -0.00562460     0.00795263    -0.00809683

 h vector - derivative coupling
    -0.00046055    -0.00105130     0.00142038
    -0.00072771     0.00143592    -0.00066001
    -0.00593714    -0.00008338    -0.00009221
    -0.00662325    -0.00037009    -0.00062703
     0.00715842    -0.00055399    -0.00017357
     0.00659023     0.00062284     0.00013244

 G vector - GDV
    -0.00117142     0.00020984    -0.05424229
     0.00347004    -0.00287491     0.06296031
     0.00588798    -0.00555494    -0.00916983
     0.00348022     0.00420329     0.00444614
    -0.00619422    -0.00394806     0.00409736
    -0.00547260     0.00796478    -0.00809169

 H vector - DCV - non-adiabatic coupling
    -0.00164923    -0.00401512     0.01011056
    -0.00306798     0.00570882    -0.00797685
    -0.02308347     0.00016541     0.00044577
    -0.02548283    -0.00177206    -0.00277000
     0.02775317    -0.00176334    -0.00101570
     0.02553034     0.00167628     0.00120622
--------------------------------------------------


--------------------------------------------------------------------------------
DFTB+ running times                          cpu [s]             wall clock [s]
--------------------------------------------------------------------------------
SCC                                    +     0.02  ( 66.7%)      0.03  ( 64.1%)
Post-SCC processing                    +     0.01  ( 28.7%)      0.01  ( 25.6%)
--------------------------------------------------------------------------------
Missing                                +     0.00  (  4.6%)      0.00  ( 10.3%)
Total                                  =     0.03  (100.0%)      0.04  (100.0%)
--------------------------------------------------------------------------------
