     6
  Step:     0            Position(A)                                  Velocity(au)
C        -0.04160885     0.02074693     0.02130866    -0.00004560    -0.00010039     0.00023517
N        -0.04009887    -0.04698151     1.29368068    -0.00001866     0.00012389    -0.00026812
H         0.90925896    -0.03451579    -0.53622830    -0.00037930     0.00035498     0.00011654
H         0.80576657    -0.17703007     1.94431145    -0.00019939    -0.00060675     0.00017256
H        -0.87067661    -0.08100089     1.78822702     0.00039839    -0.00033271     0.00010425
H        -1.00424523     0.02841820    -0.53562579     0.00098300     0.00005914     0.00053028
     6
  Step:     1            Position(A)                                  Velocity(au)
C        -0.04208303     0.01968583     0.02325594    -0.00003957    -0.00009368     0.00011787
N        -0.03999119    -0.04565344     1.29131165     0.00003747     0.00011904    -0.00016009
H         0.90543522    -0.03063569    -0.53580953    -0.00030914     0.00035498    -0.00004291
H         0.80234733    -0.18352196     1.94490594    -0.00042277    -0.00058076    -0.00006528
H        -0.86988897    -0.08480832     1.79174778    -0.00024158    -0.00036480     0.00052990
H        -0.99363567     0.02902657    -0.53044246     0.00092433     0.00005257     0.00039848
     6
  Step:     2            Position(A)                                  Velocity(au)
C        -0.04247450     0.01869759     0.02388731    -0.00003069    -0.00008725    -0.00000294
N        -0.03927914    -0.04437718     1.29017834     0.00008814     0.00011453    -0.00004335
H         0.90249583    -0.02674990    -0.53716707    -0.00022002     0.00035630    -0.00020600
H         0.79651759    -0.18973541     1.94288335    -0.00062883    -0.00055805    -0.00029511
H        -0.87596166    -0.08898158     1.79981965    -0.00081305    -0.00039707     0.00090858
H        -0.98402369     0.02956831    -0.52690826     0.00080273     0.00004705     0.00023004
     6
  Step:     3            Position(A)                                  Velocity(au)
C        -0.04275443     0.01777699     0.02319152    -0.00001952    -0.00008148    -0.00012228
N        -0.03806286    -0.04314793     1.29036330     0.00012699     0.00011059     0.00007894
H         0.90062190    -0.02284102    -0.54031607    -0.00011758     0.00035949    -0.00036794
H         0.78859046    -0.19573036     1.93844994    -0.00079503    -0.00054339    -0.00049520
H        -0.88767604    -0.09349502     1.81162476    -0.00124504    -0.00042460     0.00119377
H        -0.97607445     0.03005592    -0.52540989     0.00062555     0.00004268     0.00002953
     6
  Step:     4            Position(A)                                  Velocity(au)
C        -0.04290144     0.01691499     0.02121225    -0.00000684    -0.00007669    -0.00023531
N        -0.03650105    -0.04195779     1.29190525     0.00014990     0.00010758     0.00020195
H         0.89992355    -0.01888547    -0.54521655    -0.00000894     0.00036509    -0.00052357
H         0.77912471    -0.20162310     1.93204991    -0.00089916    -0.00054229    -0.00064419
H        -0.90319936    -0.09827050     1.82593554    -0.00149967    -0.00044334     0.00135990
H        -0.97033850     0.03050200    -0.52626217     0.00040620     0.00003936    -0.00019456
     6
  Step:     5            Position(A)                                  Velocity(au)
C        -0.04290398     0.01609934     0.01804368     0.00000638    -0.00007311    -0.00033783
N        -0.03478356    -0.04079436     1.29478140     0.00015511     0.00010597     0.00031969
H         0.90042636    -0.01485392    -0.55177025     0.00009788     0.00037360    -0.00066760
H         0.76891971    -0.20759409     1.92435713    -0.00092039    -0.00056082    -0.00072250
H        -0.92048409    -0.10319392     1.84137524    -0.00157228    -0.00045098     0.00140355
H        -0.96718795     0.03091704    -0.52966633     0.00016328     0.00003680    -0.00043035
     6
  Step:     6            Position(A)                                  Velocity(au)
C        -0.04276181     0.01531552     0.01382153     0.00001910    -0.00007092    -0.00042661
N        -0.03310772    -0.03963943     1.29889913     0.00014275     0.00010630     0.00042602
H         0.90206487    -0.01071225    -0.55982162     0.00019467     0.00038539    -0.00079506
H         0.75898943    -0.21389219     1.91624373    -0.00084249    -0.00060492    -0.00071547
H        -0.93759600    -0.10813664     1.85664089    -0.00148209    -0.00044703     0.00133769
H        -0.96676637     0.03130717    -0.53567692    -0.00008136     0.00003452    -0.00066374
     6
  Step:     7            Position(A)                                  Velocity(au)
C        -0.04248615     0.01454779     0.00871085     0.00003034    -0.00007018    -0.00049955
N        -0.03166064    -0.03846885     1.30410133     0.00011438     0.00010904     0.00051585
H         0.90468514    -0.00642285    -0.56916379     0.00027385     0.00040071    -0.00090172
H         0.75048858    -0.22082795     1.90870479    -0.00065879    -0.00067913    -0.00061760
H        -0.95290771    -0.11297364     1.87063977    -0.00126040    -0.00043235     0.00118396
H        -0.96896786     0.03167227    -0.54418692    -0.00030561     0.00003187    -0.00088033
     6
  Step:     8            Position(A)                                  Velocity(au)
C        -0.04209803     0.01378018     0.00289282     0.00003937    -0.00007087    -0.00055574
N        -0.03060552    -0.03725408     1.31018434     0.00007278     0.00011442     0.00058609
H         0.90805585    -0.00194585    -0.57954857     0.00032915     0.00041975    -0.00098440
H         0.74457705    -0.22874949     1.90273255    -0.00037778    -0.00078480    -0.00043683
H        -0.96516962    -0.11759512     1.88254234    -0.00094154    -0.00040856     0.00096640
H        -0.97345217     0.03200449    -0.55493585    -0.00049026     0.00002814    -0.00106742
     6
  Step:     9            Position(A)                                  Velocity(au)
C        -0.04162496     0.01299742    -0.00344705     0.00004577    -0.00007289    -0.00059522
N        -0.03006845    -0.03596578     1.31692317     0.00002190     0.00012231     0.00063597
H         0.91188587     0.00275989    -0.59069934     0.00035602     0.00044253    -0.00104109
H         0.74222389    -0.23799684     1.89914836    -0.00002615    -0.00091841    -0.00019632
H        -0.97350572    -0.12191173     1.89178154    -0.00055819    -0.00037769     0.00070794
H        -0.97969318     0.03228789    -0.56753874    -0.00062147     0.00002260    -0.00121549
     6
  Step:    10            Position(A)                                  Velocity(au)
C        -0.04109667     0.01218547    -0.01012883     0.00004955    -0.00007613    -0.00061882
N        -0.03012633    -0.03457838     1.32409744    -0.00003333     0.00013216     0.00066681
H         0.91584439     0.00773538    -0.60232436     0.00035186     0.00046900    -0.00107103
H         0.74400499    -0.24884155     1.89843771     0.00035309    -0.00107102     0.00006812
H        -0.97738102    -0.12585776     1.89802989    -0.00014024    -0.00034193     0.00042949
H        -0.98704809     0.03249880    -0.58152695    -0.00069198     0.00001461    -0.00131893
     6
  Step:    11            Position(A)                                  Velocity(au)
C        -0.04054102     0.01133201    -0.01698482     0.00005100    -0.00008040    -0.00062777
N        -0.03079753    -0.03307461     1.33151089    -0.00008743     0.00014308     0.00068117
H         0.91958340     0.01302013    -0.61413027     0.00031617     0.00049903    -0.00107469
H         0.74994845    -0.26142747     1.90063855     0.00070805    -0.00122914     0.00031508
H        -0.97657380    -0.12939200     1.90117749     0.00028403    -0.00030368     0.00015043
H        -0.99483154     0.03260748    -0.59639291    -0.00070094     0.00000365    -0.00137607
     6
  Step:    12            Position(A)                                  Velocity(au)
C        -0.03998097     0.01042653    -0.02386248     0.00005065    -0.00008555    -0.00062356
N        -0.03203907    -0.03144830     1.33899937    -0.00013504     0.00015407     0.00068185
H         0.92276121     0.01865251    -0.62583522     0.00025044     0.00053252    -0.00105353
H         0.75949489    -0.27573135     1.90533060     0.00098953    -0.00137761     0.00050710
H        -0.97116739    -0.13250133     1.90132077     0.00068587    -0.00026576    -0.00011013
H        -1.00238258     0.03257856    -0.61163102    -0.00065272    -0.00001078    -0.00138834
     6
  Step:    13            Position(A)                                  Velocity(au)
C        -0.03943306     0.00946043    -0.03062631     0.00005291    -0.00008725    -0.00070337
N        -0.03375182    -0.02970393     1.34642771    -0.00017484     0.00016354     0.00074698
H         0.92506226     0.02467001    -0.63717830     0.00009970     0.00064846    -0.00092641
H         0.77159632    -0.29156536     1.91173225     0.00112915    -0.00160973     0.00055494
H        -0.96156913    -0.13520596     1.89876829     0.00108083    -0.00013410    -0.00034535
H        -1.00911104     0.03237158    -0.62676559    -0.00051055    -0.00013763    -0.00128197
     6
  Step:    14            Position(A)                                  Velocity(au)
C        -0.03882345     0.00851782    -0.03925015     0.00005692    -0.00008444    -0.00087108
N        -0.03586395    -0.02787045     1.35534092    -0.00020253     0.00016999     0.00088018
H         0.92494233     0.03283875    -0.64610232    -0.00012337     0.00081891    -0.00069857
H         0.78419731    -0.31094728     1.91747098     0.00111284    -0.00188415     0.00045188
H        -0.94752223    -0.13543505     1.89376567     0.00143043     0.00006470    -0.00054235
H        -1.01355187     0.02956771    -0.63967648    -0.00028380    -0.00035551    -0.00106240
     6
  Step:    15            Position(A)                                  Velocity(au)
C        -0.03818774     0.00761313    -0.04968289     0.00005773    -0.00008074    -0.00102675
N        -0.03818246    -0.02598502     1.36568337    -0.00021082     0.00017379     0.00100100
H         0.92236322     0.04258522    -0.65246077    -0.00033899     0.00095003    -0.00046703
H         0.79594183    -0.33278481     1.92161808     0.00097902    -0.00207381     0.00027543
H        -0.93027576    -0.13379052     1.88690324     0.00163517     0.00021566    -0.00066278
H        -1.01531976     0.02459422    -0.65000768    -0.00003343    -0.00054486    -0.00082099
     6
  Step:    16            Position(A)                                  Velocity(au)
C        -0.03756041     0.00675153    -0.06171229     0.00005538    -0.00007667    -0.00116041
N        -0.04047615    -0.02406842     1.37723964    -0.00019682     0.00017615     0.00109910
H         0.91752626     0.05362247    -0.65631955    -0.00052631     0.00106021    -0.00024949
H         0.80561514    -0.35631592     1.92349660     0.00074473    -0.00220082     0.00004807
H        -0.91174985    -0.13071699     1.87926610     0.00163794     0.00032648    -0.00066775
H        -1.01428321     0.01764781    -0.65763723     0.00021889    -0.00072002    -0.00057676
     6
  Step:    17            Position(A)                                  Velocity(au)
C        -0.03697627     0.00593578    -0.07506909     0.00004982    -0.00007242    -0.00126848
N        -0.04248829    -0.02213146     1.38972824    -0.00015913     0.00017784     0.00117035
H         0.91084912     0.06577925    -0.65791880    -0.00066601     0.00115814    -0.00006115
H         0.81223414    -0.38093203     1.92266962     0.00043277    -0.00227767    -0.00020859
H        -0.89444264    -0.12664810     1.87229499     0.00139739     0.00039773    -0.00053314
H        -1.01053112     0.00884248    -0.66262536     0.00045349    -0.00088659    -0.00034547
     6
  Step:    18            Position(A)                                  Velocity(au)
C        -0.03647048     0.00516729    -0.08946267     0.00004115    -0.00006808    -0.00134984
N        -0.04395735    -0.02017782     1.40284330    -0.00009901     0.00017939     0.00121422
H         0.90295598     0.07895891    -0.65765723    -0.00074000     0.00125012     0.00008440
H         0.81508285    -0.40614430     1.91893327     0.00006835    -0.00231548    -0.00047410
H        -0.88117931    -0.12201593     1.86760274     0.00090619     0.00043163    -0.00025712
H        -1.00436218    -0.00174804    -0.66519496     0.00065099    -0.00104779    -0.00014167
     6
  Step:    19            Position(A)                                  Velocity(au)
C        -0.03607605     0.00444633    -0.10459936     0.00002974    -0.00006379    -0.00140469
N        -0.04465427    -0.01820703     1.41629163    -0.00002166     0.00018098     0.00123342
H         0.89466021     0.09312792    -0.65607231    -0.00073289     0.00134179     0.00017607
H         0.81372951    -0.43158761     1.91229777    -0.00032220    -0.00232626    -0.00072997
H        -0.87461800    -0.11720534     1.86667004     0.00020992     0.00043591     0.00013131
H        -0.99628954    -0.01407995    -0.66572464     0.00079177    -0.00120630     0.00002087
     6
  Step:    20            Position(A)                                  Velocity(au)
C        -0.03581976     0.00377178    -0.12019293     0.00001646    -0.00005964    -0.00143403
N        -0.04443124    -0.01621848     1.42982680     0.00006357     0.00018253     0.00123325
H         0.88692270     0.10831313    -0.65380541    -0.00063505     0.00143847     0.00020707
H         0.80803415    -0.45703569     1.90296367    -0.00071214    -0.00232369    -0.00095999
H        -0.87658701    -0.11247956     1.87047550    -0.00058936     0.00042434     0.00057334
H        -0.98704068    -0.02813821    -0.66473838     0.00085704    -0.00136499     0.00012984
     6
  Step:    21            Position(A)                                  Velocity(au)
C        -0.03571602     0.00314169    -0.13597152     0.00000272    -0.00005564    -0.00143944
N        -0.04326351    -0.01421381     1.44327143     0.00014491     0.00018391     0.00122009
H         0.88076734     0.12459724    -0.65154225    -0.00044659     0.00154464     0.00017703
H         0.79815002    -0.48242269     1.89129605    -0.00107516    -0.00232343    -0.00115047
H        -0.88751129    -0.10792211     1.87921298    -0.00135553     0.00041344     0.00099534
H        -0.97754012    -0.04394181    -0.66288404     0.00083111    -0.00152732     0.00017574
     6
  Step:    22            Position(A)                                  Velocity(au)
C        -0.03576022     0.00255457    -0.15168345    -0.00000951    -0.00005164    -0.00142307
N        -0.04126102    -0.01219509     1.45651864     0.00021125     0.00018532     0.00119952
H         0.87715279     0.14210520    -0.64993256    -0.00018069     0.00166285     0.00009337
H         0.78451296    -0.50786520     1.87779503    -0.00138707    -0.00234265    -0.00129078
H        -0.90624174    -0.10343468     1.89225053    -0.00195972     0.00041706     0.00133190
H        -0.96885864    -0.06155119    -0.66089375     0.00070519    -0.00169716     0.00015387
     6
  Step:    23            Position(A)                                  Velocity(au)
C        -0.03592405     0.00201189    -0.16710380    -0.00001812    -0.00004726    -0.00138772
N        -0.03864201    -0.01015953     1.46951330     0.00025506     0.00018746     0.00117505
H         0.87681432     0.16097533    -0.64949968     0.00013543     0.00179245    -0.00002893
H         0.76780532    -0.53367274     1.86305766    -0.00162869    -0.00239840    -0.00137446
H        -0.93038398    -0.09879802     1.90835085    -0.00231756     0.00044228     0.00154384
H        -0.96211263    -0.08107042    -0.65951795     0.00048240    -0.00187813     0.00006674
     6
  Step:    24            Position(A)                                  Velocity(au)
C        -0.03615670     0.00152070    -0.18204241    -0.00002144    -0.00004190    -0.00133700
N        -0.03568111    -0.00809413     1.48222516     0.00027370     0.00019129     0.00114807
H         0.88011558     0.18131854    -0.65056550     0.00046362     0.00192892    -0.00016977
H         0.74888215    -0.56033479     1.84772609    -0.00178990    -0.00250454    -0.00140051
H        -0.95694283    -0.09375897     1.92602489    -0.00240314     0.00048900     0.00162249
H        -0.95830529    -0.10263893    -0.65943359     0.00018155    -0.00207232    -0.00007443
     6
  Step:    25            Position(A)                                  Velocity(au)
C        -0.03639310     0.00109534    -0.19635315    -0.00001883    -0.00003492    -0.00127516
N        -0.03265441    -0.00597477     1.49462948     0.00026893     0.00019758     0.00111869
H         0.88695682     0.20317420    -0.65321374     0.00076158     0.00206423    -0.00030806
H         0.72864773    -0.58846430     1.83241874    -0.00187344    -0.00266748    -0.00137454
H        -0.98295717    -0.08810015     1.94384591    -0.00223867     0.00055248     0.00158203
H        -0.95814084    -0.12640647    -0.66114616    -0.00016227    -0.00227875    -0.00025031
     6
  Step:    26            Position(A)                                  Velocity(au)
C        -0.03656856     0.00075670    -0.20993899    -0.00001101    -0.00002589    -0.00120657
N        -0.02979777    -0.00377162     1.50669875     0.00024554     0.00020636     0.00108667
H         0.89677663     0.22647760    -0.65730480     0.00099146     0.00218838    -0.00042601
H         0.70789711    -0.61869102     1.81765536    -0.00189682    -0.00288178    -0.00130854
H        -1.00591793    -0.08167251     1.96063477    -0.00187321     0.00062644     0.00144779
H        -0.96185524    -0.15249100    -0.66490952    -0.00050233    -0.00249224    -0.00043644
     6
  Step:    27            Position(A)                                  Velocity(au)
C        -0.03663404     0.00052903    -0.22274922     0.00000012    -0.00001468    -0.00113504
N        -0.02728269    -0.00146021     1.51840255     0.00020980     0.00021654     0.00105188
H         0.90864681     0.25104919    -0.66253353     0.00112655     0.00229147    -0.00051199
H         0.68715122    -0.65150875     1.80379185    -0.00189040    -0.00312759    -0.00121892
H        -1.02393723    -0.07439555     1.97551909    -0.00136359     0.00070540     0.00124706
H        -0.96913016    -0.18092888    -0.67069419    -0.00078949    -0.00270346    -0.00060822
     6
  Step:    28            Position(A)                                  Velocity(au)
C        -0.03656591     0.00043546    -0.23477011     0.00001220    -0.00000160    -0.00106334
N        -0.02520793     0.00096569     1.52971058     0.00016819     0.00022601     0.00101438
H         0.92142210     0.27660800    -0.66850556     0.00115432     0.00236564    -0.00056116
H         0.66654109    -0.68711307     1.79098916    -0.00189078    -0.00337226    -0.00112281
H        -1.03574916    -0.06624060     1.98791655    -0.00076343     0.00078554     0.00100439
H        -0.97912690    -0.21163427    -0.67821558    -0.00098275    -0.00290054    -0.00074581
     6
  Step:    29            Position(A)                                  Velocity(au)
C        -0.03636712     0.00049410    -0.24601180     0.00002306     0.00001283    -0.00099307
N        -0.02360315     0.00348411     1.54059410     0.00012650     0.00023202     0.00097424
H         0.93389982     0.30280208    -0.67480999     0.00107535     0.00240604    -0.00057438
H         0.64578675    -0.72528341     1.77922829    -0.00193171    -0.00357643    -0.00103414
H        -1.04063873    -0.05721040     1.99749202    -0.00011980     0.00086478     0.00074068
H        -0.99062979    -0.24438371    -0.68701023    -0.00105652    -0.00307149    -0.00083710
     6
  Step:    30            Position(A)                                  Velocity(au)
C        -0.03606148     0.00071606    -0.25649540     0.00003120     0.00002794    -0.00092476
N        -0.02244041     0.00604165     1.55102402     0.00008936     0.00023193     0.00093122
H         0.94494748     0.32924474    -0.68107128     0.00089993     0.00241105    -0.00055627
H         0.62428126    -0.76535438     1.76836541    -0.00203589    -0.00370277    -0.00096100
H        -1.03837012    -0.04732187     2.00412034     0.00052518     0.00094239     0.00047432
H        -1.00224036    -0.27882901    -0.69652877    -0.00100273    -0.00320651    -0.00087809
     6
  Step:    31            Position(A)                                  Velocity(au)
C        -0.03568466     0.00110527    -0.26624259     0.00003591     0.00004313    -0.00085816
N        -0.02164819     0.00855798     1.56096622     0.00006021     0.00022371     0.00088458
H         0.95358755     0.35554850    -0.68697951     0.00064399     0.00238177    -0.00051328
H         0.60124767    -0.80628858     1.75820465    -0.00221106    -0.00372383    -0.00090519
H        -1.02914944    -0.03659378     2.00786860     0.00113067     0.00101860     0.00022310
H        -1.01256652    -0.31453220    -0.70622019    -0.00082812    -0.00329928    -0.00087120
     6
  Step:    32            Position(A)                                  Velocity(au)
C        -0.03527598     0.00165972    -0.27526933     0.00003708     0.00005793    -0.00079262
N        -0.02112322     0.01093574     1.57037595     0.00004167     0.00020633     0.00083313
H         0.95903601     0.38135055    -0.69230022     0.00032586     0.00232134    -0.00045233
H         0.57591007    -0.84682025     1.74856266    -0.00245098    -0.00362620    -0.00086373
H        -1.01363460    -0.02503809     2.00900118     0.00165310     0.00109440     0.00000613
H        -1.02035703    -0.35100715    -0.71558787    -0.00054888    -0.00334713    -0.00082265
     6
  Step:    33            Position(A)                                  Velocity(au)
C        -0.03487347     0.00237269    -0.28358269     0.00003496     0.00007196    -0.00072729
N        -0.02073657     0.01307190     1.57919259     0.00003602     0.00017971     0.00077525
H         0.96071628     0.40633219    -0.69687508    -0.00003580     0.00223434    -0.00038011
H         0.54762788    -0.88561873     1.73930894    -0.00273977    -0.00341041    -0.00083111
H        -0.99298466    -0.01265170     2.00800270     0.00204410     0.00117173    -0.00015528
H        -1.02457423    -0.38775717    -0.72421720    -0.00018570    -0.00335042    -0.00074032
     6
  Step:    34            Position(A)                                  Velocity(au)
C        -0.03451114     0.00323398    -0.29118012     0.00002992     0.00008492    -0.00066129
N        -0.02033514     0.01486724     1.58733614     0.00004542     0.00014447     0.00070915
H         0.95825282     0.43023096    -0.70061575    -0.00042301     0.00212639    -0.00030275
H         0.51597228    -0.92142956     1.73038063    -0.00305703    -0.00308802    -0.00080132
H        -0.96891602     0.00059571     2.00560413     0.00225243     0.00125395    -0.00023840
H        -1.02441967    -0.42430410    -0.73178376     0.00023982    -0.00331173    -0.00063226
     6
  Step:    35            Position(A)                                  Velocity(au)
C        -0.03421885     0.00423040    -0.29804957     0.00002230     0.00009654    -0.00059377
N        -0.01974281     0.01623239     1.59470670     0.00007160     0.00010163     0.00063321
H         0.95146204     0.45285097    -0.70349825    -0.00081870     0.00200399    -0.00022594
H         0.48074951    -0.95317511     1.72177847    -0.00338188    -0.00267791    -0.00076921
H        -0.94370844     0.01478088     2.00278735     0.00223254     0.00134649    -0.00022275
H        -1.01932762    -0.46020763    -0.73804916     0.00070731    -0.00323511    -0.00050599
     6
  Step:    36            Position(A)                                  Velocity(au)
C        -0.03402318     0.00534590    -0.30417002     0.00001235     0.00010655    -0.00052393
N        -0.01876877     0.01709050     1.60118886     0.00011486     0.00005238     0.00054653
H         0.94034219     0.47407213    -0.70555869    -0.00120660     0.00187453    -0.00015510
H         0.44198714    -0.98001390     1.71355273    -0.00369548    -0.00220328    -0.00073100
H        -0.92007493     0.03005266     2.00073102     0.00196062     0.00145692    -0.00009715
H        -1.00894594    -0.49507841    -0.74285330     0.00119817    -0.00312570    -0.00036836
     6
  Step:    37            Position(A)                                  Velocity(au)
C        -0.03394863     0.00656129    -0.30951157     0.00000021     0.00011465    -0.00045093
N        -0.01723006     0.01737841     1.60666316     0.00017278    -0.00000189     0.00044958
H         0.92506539     0.49385993    -0.70689143    -0.00157107     0.00174633    -0.00009558
H         0.39990373    -1.00137615     1.70578645    -0.00398203    -0.00169014    -0.00068444
H        -0.90081611     0.04665369     2.00066210     0.00145413     0.00159358     0.00013166
H        -0.99311528    -0.52858833    -0.74610766     0.00169553    -0.00298958    -0.00022576
     6
  Step:    38            Position(A)                                  Velocity(au)
C        -0.03401858     0.00785401    -0.31403501    -0.00001405     0.00012051    -0.00037388
N        -0.01498898     0.01704910     1.61102421     0.00023934    -0.00005945     0.00034456
H         0.90597200     0.51227640    -0.70764979    -0.00189706     0.00162870    -0.00005286
H         0.35487259    -1.01698899     1.69857934    -0.00422910    -0.00116675    -0.00062865
H        -0.88826294     0.06491537     2.00361129     0.00078385     0.00176205     0.00043308
H        -0.97185299    -0.56048120    -0.74779221     0.00218377    -0.00283386    -0.00008447
     6
  Step:    39            Position(A)                                  Velocity(au)
C        -0.03425595     0.00919776    -0.31769084    -0.00003038     0.00012381    -0.00029176
N        -0.01199406     0.01607780     1.61420096     0.00030556    -0.00011781     0.00023524
H         0.88356358     0.52949087    -0.70804777    -0.00217030     0.00153187    -0.00003257
H         0.30738401    -1.02690097     1.69203355    -0.00442788    -0.00066363    -0.00056397
H        -0.88366785     0.08520186     2.01013649     0.00006589     0.00196037     0.00075514
H        -0.94534103    -0.59058446    -0.74795552     0.00264821    -0.00266681     0.00004906
     6
  Step:    40            Position(A)                                  Velocity(au)
C        -0.03468328     0.01056253    -0.32041771    -0.00004873     0.00012420    -0.00020337
N        -0.00830432     0.01447189     1.61617048     0.00036175    -0.00017352     0.00012603
H         0.85849248     0.54578901    -0.70836234    -0.00237812     0.00146647    -0.00004046
H         0.25800422    -1.03150713     1.68624133    -0.00457379    -0.00021318    -0.00049193
H        -0.88682154     0.10780213     2.02013141    -0.00056922     0.00217598     0.00103673
H        -0.91391826    -0.61882281    -0.74671900     0.00307474    -0.00249795     0.00016771
     6
  Step:    41            Position(A)                                  Velocity(au)
C        -0.03532195     0.01191496    -0.32213986    -0.00006892     0.00012138    -0.00010706
N        -0.00408005     0.01228168     1.61695803     0.00040069    -0.00022224     0.00002074
H         0.83153760     0.56157279    -0.70893287    -0.00251085     0.00144231    -0.00008227
H         0.20732361    -1.03156461     1.68127166    -0.00466813     0.00015173    -0.00041586
H        -0.89612068     0.13280551     2.03281686    -0.00101719     0.00238560     0.00122315
H        -0.87807510    -0.64523185    -0.74428660     0.00344939    -0.00233760     0.00026255
     6
  Step:    42            Position(A)                                  Velocity(au)
C        -0.03619111     0.01321791    -0.32275985    -0.00008296     0.00013274    -0.00003447
N         0.00046144     0.00960991     1.61662420     0.00039577    -0.00028844    -0.00008459
H         0.80356290     0.57734235    -0.71016212    -0.00260373     0.00151317    -0.00010551
H         0.15588004    -1.02818764     1.67714351    -0.00468528     0.00042216    -0.00024026
H        -0.90907447     0.15999163     2.04689022    -0.00106669     0.00280880     0.00149094
H        -0.83845620    -0.66996219    -0.74097529     0.00384447    -0.00231763     0.00044110
     6
  Step:    43            Position(A)                                  Velocity(au)
C        -0.03715447     0.01462027    -0.32269078    -0.00007396     0.00013629    -0.00000908
N         0.00466869     0.00618309     1.61519207     0.00031055    -0.00036982    -0.00017344
H         0.77521136     0.59386450    -0.71149470    -0.00252689     0.00151203    -0.00003810
H         0.10626474    -1.02203570     1.67537074    -0.00398376     0.00071206     0.00008197
H        -0.92102697     0.19215214     2.06349530    -0.00083105     0.00333529     0.00171625
H        -0.79552278    -0.69388664    -0.73539621     0.00390755    -0.00204426     0.00075835
     6
  Step:    44            Position(A)                                  Velocity(au)
C        -0.03806141     0.01600510    -0.32215607    -0.00008956     0.00011795     0.00010572
N         0.00797485     0.00207179     1.61285236     0.00028360    -0.00037613    -0.00025028
H         0.74816379     0.61066331    -0.71259524    -0.00238446     0.00158605    -0.00017218
H         0.06374143    -1.01381880     1.67668878    -0.00375996     0.00071316     0.00017287
H        -0.92970646     0.22887250     2.08113243    -0.00065453     0.00336775     0.00147126
H        -0.75240874    -0.71499188    -0.72710858     0.00392520    -0.00184560     0.00074638
     6