     6
  Step:     0            Position(A)                                  Velocity(au)
C        -0.03628599     0.00832654     0.00638146     0.00005630     0.00015225     0.00010860
N        -0.04804128    -0.05455891     1.31721746    -0.00033258    -0.00017007    -0.00004658
H         0.95631614     0.07456281    -0.57046100     0.00037376    -0.00028251    -0.00022672
H         0.89243422    -0.07242293     1.78945681     0.00144209     0.00051920    -0.00000025
H        -0.97059549    -0.10820171     1.82595037     0.00213254     0.00094623    -0.00032297
H        -0.99110802     0.09523440    -0.53346451     0.00000240    -0.00063370    -0.00009682
     6
  Step:     1            Position(A)                                  Velocity(au)
C        -0.03595723     0.00915994     0.00690079     0.00006412     0.00015240     0.00008079
N        -0.04985676    -0.05549096     1.31703580    -0.00032816    -0.00017053    -0.00002002
H         0.95812318     0.07301163    -0.57167760     0.00028380    -0.00028450    -0.00021623
H         0.90003249    -0.06958900     1.78953312     0.00132018     0.00051679     0.00002049
H        -0.95861879    -0.10303981     1.82418465     0.00222032     0.00093908    -0.00030888
H        -0.99117898     0.09181152    -0.53422226    -0.00002811    -0.00061758    -0.00017985
     6
  Step:     2            Position(A)                                  Velocity(au)
C        -0.03558414     0.00999477     0.00726585     0.00007221     0.00015234     0.00005222
N        -0.05163347    -0.05642558     1.31699830    -0.00031750    -0.00017052     0.00000578
H         0.95942281     0.07144848    -0.57282792     0.00018843    -0.00028603    -0.00020227
H         0.90688562    -0.06676589     1.78968110     0.00116851     0.00051365     0.00002689
H        -0.94629072    -0.09792203     1.82256919     0.00225227     0.00092769    -0.00026578
H        -0.99141569     0.08847408    -0.53543329    -0.00005758    -0.00060084    -0.00026131
     6
  Step:     3            Position(A)                                  Velocity(au)
C        -0.03516563     0.01082986     0.00747319     0.00008040     0.00015211     0.00002332
N        -0.05333720    -0.05736023     1.31709913    -0.00030082    -0.00017012     0.00003010
H         0.96018876     0.06987620    -0.57389486     0.00008949    -0.00028707    -0.00018569
H         0.91284163    -0.06395840     1.78982785     0.00099249     0.00050969     0.00002107
H        -0.93392956    -0.09287057     1.82127113     0.00222530     0.00091288    -0.00019147
H        -0.99181016     0.08522514    -0.53708677    -0.00008505    -0.00058388    -0.00034007
     6
  Step:     4            Position(A)                                  Velocity(au)
C        -0.03470165     0.01166422     0.00752178     0.00008851     0.00015176    -0.00000550
N        -0.05493517    -0.05829274     1.31732871    -0.00027852    -0.00016942     0.00005236
H         0.96040501     0.06829770    -0.57486598    -0.00001121    -0.00028767    -0.00016737
H         0.91777883    -0.06117168     1.78991239     0.00079779     0.00050496     0.00000530
H        -0.92186667    -0.08790260     1.82046775     0.00213878     0.00089579    -0.00008483
H        -0.99234920     0.08206568    -0.53916581    -0.00010967    -0.00056711    -0.00041521
     6
  Step:     5            Position(A)                                  Velocity(au)
C        -0.03419318     0.01249719     0.00741281     0.00009637     0.00015137    -0.00003387
N        -0.05639721    -0.05922155     1.31767441    -0.00025117    -0.00016854     0.00007212
H         0.96006564     0.06671567    -0.57573375    -0.00011195    -0.00028789    -0.00014821
H         0.92160675    -0.05841050     1.78988605     0.00058993     0.00049959    -0.00001820
H        -0.91043131    -0.08302873     1.82033917     0.00199474     0.00087773     0.00005388
H        -0.99301505     0.07899442    -0.54164858    -0.00013070    -0.00055098    -0.00048603
     6
  Step:     6            Position(A)                                  Velocity(au)
C        -0.03364205     0.01332847     0.00714940     0.00010384     0.00015100    -0.00006151
N        -0.05769678    -0.06014578     1.31812161    -0.00021952    -0.00016763     0.00008912
H         0.95917418     0.06513236    -0.57649553    -0.00021118    -0.00028785    -0.00012907
H         0.92426501    -0.05567877     1.78971231     0.00037403     0.00049377    -0.00004726
H        -0.89993488    -0.07825212     1.82106020     0.00179791     0.00086007     0.00022291
H        -0.99378619     0.07600777    -0.54450957    -0.00014756    -0.00053586    -0.00055205
     6
  Step:     7            Position(A)                                  Velocity(au)
C        -0.03305095     0.01415816     0.00673621     0.00011078     0.00015073    -0.00008820
N        -0.05881188    -0.06106538     1.31865472    -0.00018443    -0.00016681     0.00010332
H         0.95774271     0.06354947    -0.57715346    -0.00030752    -0.00028761    -0.00011078
H         0.92572091    -0.05297924     1.78936618     0.00015466     0.00048769    -0.00007988
H        -0.89065498    -0.07356826     1.82279113     0.00155557     0.00084410     0.00041888
H        -0.99463815     0.07310011    -0.54772092    -0.00015980    -0.00052207    -0.00061299
     6
  Step:     8            Position(A)                                  Velocity(au)
C        -0.03242330     0.01498670     0.00617903     0.00011705     0.00015058    -0.00011377
N        -0.05972584    -0.06198100     1.31925834    -0.00014689    -0.00016621     0.00011484
H         0.95579104     0.06196825    -0.57771425    -0.00039964    -0.00028723    -0.00009412
H         0.92596654    -0.05031342     1.78883346    -0.00006407     0.00048153    -0.00011417
H        -0.88282123    -0.06896568     1.82566850     0.00127724     0.00083090     0.00063676
H        -0.99554427     0.07026419    -0.55125338    -0.00016708    -0.00050979    -0.00066865
     6
  Step:     9            Position(A)                                  Velocity(au)
C        -0.03176330     0.01581477     0.00548459     0.00012249     0.00015058    -0.00013807
N        -0.06042780    -0.06289387     1.31991815    -0.00010794    -0.00016587     0.00012394
H         0.95334614     0.06038955    -0.57818893    -0.00048629    -0.00028674    -0.00007984
H         0.92501610    -0.04768182     1.78811013    -0.00027840     0.00047539    -0.00014832
H        -0.87660383    -0.06442738     1.82979623     0.00097422     0.00082117     0.00086992
H        -0.99647626     0.06749176    -0.55507683    -0.00016913    -0.00049909    -0.00071882
     6
  Step:    10            Position(A)                                  Velocity(au)
C        -0.03107594     0.01664309     0.00466034     0.00012694     0.00015070    -0.00016093
N        -0.06091319    -0.06380555     1.32062164    -0.00006874    -0.00016581     0.00013096
H         0.95044200     0.05881418    -0.57859253    -0.00056607    -0.00028606    -0.00006864
H         0.92290420    -0.04508426     1.78720194    -0.00048465     0.00046928    -0.00018054
H        -0.87210496    -0.05993299     1.83523739     0.00065916     0.00081518     0.00111022
H        -0.99740462     0.06477433    -0.55916030    -0.00016572    -0.00048986    -0.00076323
     6
  Step:    11            Position(A)                                  Velocity(au)
C        -0.03036716     0.01747224     0.00371459     0.00013019     0.00015085    -0.00018216
N        -0.06118390    -0.06471758     1.32135853    -0.00003048    -0.00016597     0.00013630
H         0.94712005     0.05724324    -0.57894392    -0.00063748    -0.00028508    -0.00006119
H         0.91968550    -0.04252036     1.78612436    -0.00067899     0.00046312    -0.00020902
H        -0.86935388    -0.05546140     1.84200725     0.00034539     0.00081270     0.00134830
H        -0.99829900     0.06210396    -0.56347146    -0.00015673    -0.00048186    -0.00080144
     6
  Step:    12            Position(A)                                  Velocity(au)
C        -0.02964394     0.01830244     0.00265665     0.00013202     0.00015095    -0.00020151
N        -0.06124841    -0.06563118     1.32212084     0.00000566    -0.00016624     0.00014033
H         0.94342996     0.05567844    -0.57926556    -0.00069879    -0.00028361    -0.00005810
H         0.91543560    -0.03999006     1.78490279    -0.00085719     0.00045679    -0.00023186
H        -0.86830581    -0.05099360     1.85006822     0.00004627     0.00081299     0.00157401
H        -0.99912857     0.05947406    -0.56797586    -0.00014209    -0.00047473    -0.00083285
     6
  Step:    13            Position(A)                                  Velocity(au)
C        -0.02891442     0.01913332     0.00149719     0.00013221     0.00015086    -0.00021866
N        -0.06112163    -0.06654687     1.32290268     0.00003848    -0.00016645     0.00014338
H         0.93943062     0.05412247    -0.57958321    -0.00074814    -0.00028142    -0.00005994
H         0.91025305    -0.03749394     1.78357298    -0.00101465     0.00045008    -0.00024712
H        -0.86884472    -0.04651538     1.85932744    -0.00022560     0.00081488     0.00177700
H        -0.99986251     0.05688009    -0.57263602    -0.00012187    -0.00046801    -0.00085672
     6
  Step:    14            Position(A)                                  Velocity(au)
C        -0.02818791     0.01996378     0.00024858     0.00013056     0.00015042    -0.00023326
N        -0.06082460    -0.06746426     1.32369981     0.00006692    -0.00016641     0.00014568
H         0.93519093     0.05257921    -0.57992561    -0.00078363    -0.00027830    -0.00006716
H         0.90426158    -0.03503349     1.78218131    -0.00114646     0.00044283    -0.00025287
H        -0.87079024    -0.04201958     1.86963770    -0.00045924     0.00081692     0.00194755
H        -1.00047071     0.05432004    -0.57741069    -0.00009632    -0.00046119    -0.00087231
     6
  Step:    15            Position(A)                                  Velocity(au)
C        -0.02747481     0.02079190    -0.00107491     0.00012689     0.00014949    -0.00024494
N        -0.06038374    -0.06838186     1.32450901     0.00009005    -0.00016593     0.00014735
H         0.93078972     0.05105375    -0.58032375    -0.00080360    -0.00027403    -0.00008005
H         0.89761134    -0.03261103     1.78078464    -0.00124784     0.00043491    -0.00024734
H        -0.87390859    -0.03750748     1.88080249    -0.00064610     0.00081752     0.00207747
H        -1.00092463     0.05179464    -0.58225469    -0.00006589    -0.00045380    -0.00087894
