 Fermi distribution function

Calculation with static geometry


********************************************************************************
 iSCC Total electronic   Diff electronic      SCC error    
   10   -0.54028736E+01   -0.16253665E-12    0.31526542E-07
********************************************************************************

 Total charge:     1.00000000

 Atomic gross charges (e)
 Atom           Charge
    1       0.14711796
    2      -0.03602680
    3       0.18608327
    4       0.27178807
    5       0.27408825
    6       0.15694924

Nr. of electrons (up):     12.00000000
Atom populations (up)
 Atom       Population
    1       3.85288204
    2       5.03602680
    3       0.81391673
    4       0.72821193
    5       0.72591175
    6       0.84305076

l-shell populations (up)
 Atom Sh.   l       Population
    1   1   0       1.32770711
    1   2   1       2.52517492
    2   1   0       1.42824700
    2   2   1       3.60777980
    3   1   0       0.81391673
    4   1   0       0.72821193
    5   1   0       0.72591175
    6   1   0       0.84305076

Orbital populations (up)
 Atom Sh.   l   m       Population  Label
    1   1   0   0       1.32770711  s
    1   2   1  -1       0.61028484  p_y
    1   2   1   0       0.87201964  p_z
    1   2   1   1       1.04287045  p_x
    2   1   0   0       1.42824700  s
    2   2   1  -1       1.32704015  p_y
    2   2   1   0       1.12178472  p_z
    2   2   1   1       1.15895493  p_x
    3   1   0   0       0.81391673  s
    4   1   0   0       0.72821193  s
    5   1   0   0       0.72591175  s
    6   1   0   0       0.84305076  s

Fermi level:                        -0.5013545189 H          -13.6426 eV
Band energy:                        -8.9297235947 H         -242.9901 eV
TS:                                  0.0000000000 H            0.0000 eV
Band free energy (E-TS):            -8.9297235947 H         -242.9901 eV
Extrapolated E(0K):                 -8.9297235947 H         -242.9901 eV
Input / Output electrons (q):     12.0000000000     12.0000000000

Energy H0:                          -5.5367280357 H         -150.6620 eV
Energy SCC:                          0.1338544374 H            3.6424 eV
Total Electronic energy:            -5.4028735983 H         -147.0197 eV
Repulsive energy:                    0.1816620736 H            4.9433 eV
Total energy:                       -5.2212115247 H         -142.0764 eV
Extrapolated to 0:                  -5.2212115247 H         -142.0764 eV
Total Mermin free energy:           -5.2212115247 H         -142.0764 eV
Force related energy:               -5.2212115247 H         -142.0764 eV

SCC converged

Excitation Energy:                   0.1457791215 H            3.9669 eV

Total Forces
    1      0.003422369729     -0.009109433051      0.046678876825
    2     -0.004471520241      0.000520289290     -0.057296842836
    3     -0.009245075621     -0.001190892601      0.000474284171
    4     -0.001269501649      0.007429027057      0.007646549728
    5      0.006681008391     -0.002290461493      0.002120578989
    6      0.004882719391      0.004641470798      0.000376553124

Maximal derivative component:        0.572968E-01 au


