     6
  Step:     0            Position(A)                                  Velocity(au)
C        -0.03833835     0.01638033     0.03560769     0.00011100     0.00003450     0.00008285
N        -0.04208662    -0.03776158     1.28168926    -0.00014984     0.00000277    -0.00003051
H         0.93968303    -0.02670484    -0.53917052    -0.00069167    -0.00003894    -0.00006957
H         0.80801383    -0.22431482     1.84890214     0.00130791    -0.00035838     0.00081502
H        -0.92771016    -0.11954114     1.86392314     0.00071513     0.00022405    -0.00114341
H        -0.99123199     0.03034114    -0.51672123    -0.00057181    -0.00027631    -0.00016530
     6
  Step:     1            Position(A)                                  Velocity(au)
C        -0.03771034     0.01661169     0.03561648     0.00011761     0.00005017    -0.00007958
N        -0.04292120    -0.03774497     1.28191879    -0.00015321     0.00000312     0.00011437
H         0.93584594    -0.02705521    -0.53939454    -0.00070579    -0.00008970    -0.00001477
H         0.81525405    -0.22642028     1.85326493     0.00132238    -0.00040766     0.00077009
H        -0.92366016    -0.11840978     1.85741110     0.00075314     0.00018808    -0.00122875
H        -0.99457078     0.02867796    -0.51764232    -0.00064204    -0.00033190    -0.00016759
     6
  Step:     2            Position(A)                                  Velocity(au)
C        -0.03705191     0.01692917     0.03473715     0.00012203     0.00006597    -0.00024100
N        -0.04376254    -0.03772748     1.28294033    -0.00015224     0.00000318     0.00025816
H         0.93196269    -0.02768608    -0.53933207    -0.00070834    -0.00014168     0.00003453
H         0.82247891    -0.22877411     1.85732588     0.00130322    -0.00044953     0.00070585
H        -0.91947185    -0.11748384     1.85048226     0.00076381     0.00014848    -0.00129399
H        -0.99825502     0.02671064    -0.51855443    -0.00069718    -0.00038751    -0.00016212
     6
  Step:     3            Position(A)                                  Velocity(au)
C        -0.03637535     0.01733341     0.03297992     0.00012409     0.00008181    -0.00039940
N        -0.04458672    -0.03771020     1.28474310    -0.00014681     0.00000313     0.00039883
H         0.92809651    -0.02860521    -0.53901673    -0.00069904    -0.00019510     0.00007704
H         0.82951156    -0.23133829     1.86098710     0.00125255    -0.00048459     0.00062495
H        -0.91530390    -0.11678537     1.84325458     0.00074360     0.00010445    -0.00133560
H        -1.00219808     0.02443847    -0.51941598    -0.00073554    -0.00044300    -0.00014932
     6
  Step:     4            Position(A)                                  Velocity(au)
C        -0.03569379     0.01782456     0.03036570     0.00012364     0.00009754    -0.00055251
N        -0.04536941    -0.03769328     1.28730547    -0.00013688     0.00000311     0.00053411
H         0.92431173    -0.02982148    -0.53848890    -0.00067764    -0.00024995     0.00011148
H         0.83618798    -0.23407794     1.86416598     0.00117274    -0.00051318     0.00053032
H        -0.91133315    -0.11634065     1.83586418     0.00068945     0.00005538    -0.00135020
H        -1.00630543     0.02186207    -0.52018869    -0.00075574    -0.00049778    -0.00012996
     6
  Step:     5            Position(A)                                  Velocity(au)
C        -0.03502099     0.01840188     0.02692763     0.00012058     0.00011292    -0.00069768
N        -0.04608610    -0.03767611     1.29059377    -0.00012246     0.00000326     0.00066146
H         0.92067357    -0.03134318    -0.53779557    -0.00064399    -0.00030579     0.00013666
H         0.84235794    -0.23695968     1.86679632     0.00106648    -0.00053530     0.00042513
H        -0.90775155    -0.11617875     1.82846431     0.00059924     0.00000106    -0.00133485
H        -1.01047654     0.01898572    -0.52083962    -0.00075688    -0.00055082    -0.00010525
     6
  Step:     6            Position(A)                                  Velocity(au)
C        -0.03437113     0.01906321     0.02271288     0.00011488     0.00012762    -0.00083193
N        -0.04671263    -0.03765756     1.29456101    -0.00010373     0.00000363     0.00077814
H         0.91724788    -0.03317562    -0.53698993    -0.00059804    -0.00036171     0.00015149
H         0.84788615    -0.23994957     1.86882925     0.00093690    -0.00055063     0.00031282
H        -0.90476015    -0.11632906     1.82122233     0.00047244    -0.00005817    -0.00128757
H        -1.01460763     0.01582019    -0.52134321    -0.00073876    -0.00060057    -0.00007673
     6
  Step:     7            Position(A)                                  Velocity(au)
C        -0.03375846     0.01980442     0.01778450     0.00010657     0.00014119    -0.00095202
N        -0.04722608    -0.03763625     1.29914574    -0.00008107     0.00000424     0.00088125
H         0.91410098    -0.03531845    -0.53613062    -0.00053985    -0.00041636     0.00015516
H         0.85265468    -0.24301122     1.87023429     0.00078779    -0.00055862     0.00019704
H        -0.90255932    -0.11681801     1.81431357     0.00031076    -0.00012130    -0.00120794
H        -1.01859566     0.01238528    -0.52168292    -0.00070206    -0.00064513    -0.00004621
     6
  Step:     8            Position(A)                                  Velocity(au)
C        -0.03319684     0.02061897     0.01222292     0.00009582     0.00015319    -0.00105467
N        -0.04760591    -0.03761080     1.30427127    -0.00005513     0.00000509     0.00096801
H         0.91129950    -0.03776336    -0.53528026    -0.00046961    -0.00046811     0.00014720
H         0.85656652    -0.24610487     1.87100040     0.00062386    -0.00055878     0.00008168
H        -0.90133598    -0.11766564     1.80791241     0.00011867    -0.00018677    -0.00109761
H        -1.02234344     0.00871167    -0.52185236    -0.00064857    -0.00068248    -0.00001561
     6
  Step:     9            Position(A)                                  Velocity(au)
C        -0.03269922     0.02149780     0.00612600     0.00008290     0.00016318    -0.00113699
N        -0.04783555    -0.03757998     1.30984631    -0.00002687     0.00000614     0.00103606
H         0.90890983    -0.04049298    -0.53450348    -0.00038785    -0.00051531     0.00012765
H         0.85955099    -0.24918808     1.87113721     0.00045086    -0.00055094    -0.00002925
H        -0.90124754    -0.11888258     1.80218031    -0.00009638    -0.00025257    -0.00096067
H        -1.02576512     0.00484101    -0.52185548    -0.00058109    -0.00071085     0.00001320
     6
  Step:    10            Position(A)                                  Velocity(au)
C        -0.03227701     0.02242958    -0.00039325     0.00006819     0.00017085    -0.00119704
N        -0.04790401    -0.03754271     1.31576754     0.00000254     0.00000735     0.00108400
H         0.90699588    -0.04348128    -0.53386386    -0.00029572    -0.00055667     0.00009722
H         0.86156935    -0.25221812     1.87067581     0.00027535    -0.00053557    -0.00013184
H        -0.90240537    -0.12046824     1.79725267    -0.00032426    -0.00031662    -0.00080357
H        -1.02879130     0.00082402    -0.52170590    -0.00050328    -0.00072913     0.00003859
     6
  Step:    11            Position(A)                                  Velocity(au)
C        -0.03193936     0.02340147    -0.00721201     0.00005224     0.00017611    -0.00123442
N        -0.04780724    -0.03749806     1.32192472     0.00003175     0.00000872     0.00111180
H         0.90561476    -0.04669561    -0.53342017    -0.00019522    -0.00059152     0.00005732
H         0.86261910    -0.25515567     1.86966819     0.00010424    -0.00051395    -0.00022261
H        -0.90486061    -0.12241048     1.79322656    -0.00055331    -0.00037701    -0.00063458
H        -1.03137294    -0.00328326    -0.52142547    -0.00041935    -0.00073718     0.00005934
     6
  Step:    12            Position(A)                                  Velocity(au)
C        -0.03169247     0.02440020    -0.01420599     0.00003563     0.00017913    -0.00125068
N        -0.04754879    -0.03744517     1.32820818     0.00005944     0.00001023     0.00112117
H         0.90481146    -0.05010020    -0.53322242    -0.00008906    -0.00062007     0.00000992
H         0.86273574    -0.25796909     1.86818488    -0.00005600    -0.00048811    -0.00029896
H        -0.90859676    -0.12468691     1.79015196    -0.00077198    -0.00043244    -0.00046273
H        -1.03348365    -0.00742481    -0.52104188    -0.00033356    -0.00073603     0.00007475
     6
  Step:    13            Position(A)                                  Velocity(au)
C        -0.03153912     0.02541355    -0.02126037     0.00001897     0.00018034    -0.00124941
N        -0.04713955    -0.03738316     1.33451835     0.00008456     0.00001190     0.00111555
H         0.90461434    -0.05366066    -0.53330870     0.00001967    -0.00064346    -0.00004271
H         0.86199002    -0.26063842     1.86631012    -0.00020019    -0.00046063    -0.00035949
H        -0.91353197    -0.12726795     1.78802891    -0.00097071    -0.00048242    -0.00029649
H        -1.03511972    -0.01155079    -0.52058580    -0.00024986    -0.00072776     0.00008460
     6
  Step:    14            Position(A)                                  Velocity(au)
C        -0.03147877     0.02643174    -0.02828079     0.00000276     0.00018035    -0.00123554
N        -0.04659624    -0.03731112     1.34077505     0.00010639     0.00001375     0.00109948
H         0.90503307    -0.05734885    -0.53370351     0.00012817    -0.00066351    -0.00009841
H         0.86048061    -0.26315811     1.86413522    -0.00032491    -0.00043425    -0.00040400
H        -0.91953191    -0.13012142     1.78681198    -0.00114314    -0.00052731    -0.00014249
H        -1.03629841    -0.01562315    -0.52008890    -0.00017142    -0.00071512     0.00008892
     6
  Step:    15            Position(A)                                  Velocity(au)
C        -0.03150796     0.02744835    -0.03520018    -0.00001965     0.00027983    -0.00188950
N        -0.04593926    -0.03722800     1.34692306     0.00019387     0.00002463     0.00167686
H         0.90606038    -0.06114655    -0.53441901     0.00036459    -0.00106176    -0.00024202
H         0.85832426    -0.26553776     1.86175204    -0.00066683    -0.00064033    -0.00067406
H        -0.92642925    -0.13321722     1.78642131    -0.00200151    -0.00088403    -0.00000761
H        -1.03705376    -0.01961904    -0.51958262    -0.00015620    -0.00109071     0.00013681
     6
  Step:    16            Position(A)                                  Velocity(au)
C        -0.03164048     0.02898684    -0.04542078    -0.00002657     0.00026180    -0.00170616
N        -0.04482004    -0.03709068     1.35603218     0.00019707     0.00002403     0.00152761
H         0.90855364    -0.06700807    -0.53628992     0.00050905    -0.00100281    -0.00041065
H         0.85438952    -0.26900332     1.85797578    -0.00070111    -0.00058441    -0.00064385
H        -0.93796889    -0.13810833     1.78683558    -0.00203396    -0.00083597     0.00013806
H        -1.03804663    -0.02564179    -0.51914415    -0.00019588    -0.00103039     0.00001892
     6
  Step:    17            Position(A)                                  Velocity(au)
C        -0.03181021     0.03042678    -0.05461063    -0.00003265     0.00024527    -0.00152895
N        -0.04369730    -0.03695460     1.36430221     0.00019527     0.00002415     0.00138332
H         0.91185164    -0.07255528    -0.53909090     0.00064510    -0.00095108    -0.00056786
H         0.85034793    -0.27218637     1.85442716    -0.00070544    -0.00054122    -0.00059536
H        -0.94956907    -0.14272781     1.78799194    -0.00202413    -0.00078851     0.00025423
H        -1.03928225    -0.03134151    -0.51936735    -0.00024009    -0.00097742    -0.00009515
     6
  Step:    18            Position(A)                                  Velocity(au)
C        -0.03201179     0.03177642    -0.06281026    -0.00002074     0.00012656    -0.00074763
N        -0.04259909    -0.03681602     1.37176540     0.00010379     0.00001367     0.00068474
H         0.91589063    -0.07782519    -0.54274843     0.00042223    -0.00049780    -0.00039111
H         0.84636624    -0.27515888     1.85120450    -0.00037484    -0.00028070    -0.00029187
H        -0.96099031    -0.14707649     1.78972709    -0.00108536    -0.00040747     0.00018865
H        -1.04077732    -0.03675848    -0.52022634    -0.00015718    -0.00051213    -0.00011228
     6
  Step:    19            Position(A)                                  Velocity(au)
C        -0.03216295     0.03249190    -0.06696507    -0.00003240     0.00012805    -0.00073094
N        -0.04200951    -0.03672781     1.37556518     0.00010466     0.00001776     0.00066754
H         0.91849150    -0.08071097    -0.54507295     0.00049808    -0.00052863    -0.00043390
H         0.84423100    -0.27676523     1.84965599    -0.00037732    -0.00029325    -0.00025520
H        -0.96712144    -0.14947612     1.79096520    -0.00108540    -0.00044481     0.00024575
H        -1.04150366    -0.03961815    -0.52088566    -0.00010362    -0.00050596    -0.00012318
     6
  Step:    20            Position(A)                                  Velocity(au)
C        -0.03237576     0.03321469    -0.07102043    -0.00004298     0.00013028    -0.00071854
N        -0.04142353    -0.03661649     1.37926349     0.00010348     0.00002209     0.00065435
H         0.92148523    -0.08376299    -0.54762215     0.00056632    -0.00056171    -0.00047482
H         0.84212802    -0.27845278     1.84833803    -0.00036702    -0.00031223    -0.00021207
H        -0.97318189    -0.15207275     1.79248747    -0.00107000    -0.00048179     0.00029269
H        -1.04194120    -0.04244165    -0.52160993    -0.00005512    -0.00050366    -0.00013663
     6
  Step:    21            Position(A)                                  Velocity(au)
C        -0.03264358     0.03394887    -0.07500066    -0.00005227     0.00013279    -0.00070777
N        -0.04085232    -0.03648080     1.38288286     0.00009998     0.00002661     0.00064266
H         0.92482479    -0.08699266    -0.55038298     0.00062436    -0.00059506    -0.00051187
H         0.84012651    -0.28025697     1.84728433    -0.00034342    -0.00033655    -0.00016202
H        -0.97908743    -0.15486409     1.79423839    -0.00103602    -0.00051709     0.00032957
H        -1.04212005    -0.04525064    -0.52241364    -0.00001143    -0.00050338    -0.00015240
     6
  Step:    22            Position(A)                                  Velocity(au)
C        -0.03295882     0.03469592    -0.07891541    -0.00006009     0.00013527    -0.00069710
N        -0.04030828    -0.03631970     1.38643212     0.00009412     0.00003127     0.00063104
H         0.92844974    -0.09040065    -0.55333190     0.00067011    -0.00062727    -0.00054355
H         0.83829734    -0.28220689     1.84653071    -0.00030691    -0.00036532    -0.00010537
H        -0.98473833    -0.15784076     1.79616372    -0.00098239    -0.00054983     0.00035666
H        -1.04206869    -0.04805667    -0.52330985     0.00002727    -0.00050405    -0.00017029
     6
  Step:    23            Position(A)                                  Velocity(au)
C        -0.03331294     0.03545569    -0.08276583    -0.00006628     0.00013754    -0.00068569
N        -0.03980386    -0.03613245     1.38991222     0.00008603     0.00003603     0.00061875
H         0.93228931    -0.09397999    -0.55643770     0.00070214    -0.00065737    -0.00056884
H         0.83670771    -0.28432633     1.84611053    -0.00025879    -0.00039771    -0.00004305
H        -0.99003055    -0.16098876     1.79821131    -0.00090963    -0.00057947     0.00037447
H        -1.04181630    -0.05086539    -0.52431055     0.00006066    -0.00050507    -0.00019017
     6
  Step:    24            Position(A)                                  Velocity(au)
C        -0.03369669     0.03622700    -0.08654852    -0.00007076     0.00013949    -0.00067319
N        -0.03935062    -0.03591861     1.39331999     0.00007595     0.00004083     0.00060544
H         0.93626594    -0.09771852    -0.55966424     0.00071967    -0.00068474    -0.00058719
H         0.83541648    -0.28663414     1.84605146    -0.00020104    -0.00043289     0.00002361
H        -0.99486427    -0.16429139     1.80033232    -0.00081937    -0.00060580     0.00038377
H        -1.04139344    -0.05367907    -0.52542679     0.00008845    -0.00050613    -0.00021189
     6
  Step:    25            Position(A)                                  Velocity(au)
C        -0.03410045     0.03700812    -0.09025800    -0.00007348     0.00014107    -0.00065947
N        -0.03895855    -0.03567804     1.39665042     0.00006425     0.00004562     0.00059105
H         0.94029878    -0.10160069    -0.56297270     0.00072251    -0.00070897    -0.00059835
H         0.83447031    -0.28914411     1.84637327    -0.00013617    -0.00046998     0.00009300
H        -0.99914964    -0.16773092     1.80248243    -0.00071401    -0.00062881     0.00038551
H        -1.04083194    -0.05649824    -0.52666870     0.00011044    -0.00050708    -0.00023529
     6
  Step:    26            Position(A)                                  Velocity(au)
C        -0.03451451     0.03779699    -0.09388810    -0.00007448     0.00014225    -0.00064459
N        -0.03863555    -0.03541093     1.39989807     0.00005133     0.00005034     0.00057565
H         0.94430704    -0.10560902    -0.56632360     0.00071099    -0.00072991    -0.00060244
H         0.83390099    -0.29186482     1.84708650    -0.00006707    -0.00050807     0.00016338
H        -1.00281083    -0.17128972     1.80462286    -0.00059643    -0.00064868     0.00038079
H        -1.04016426    -0.05932258    -0.52804547     0.00012661    -0.00050788    -0.00026022
     6
  Step:    27            Position(A)                                  Velocity(au)
C        -0.03492943     0.03859150    -0.09743286    -0.00007382     0.00014305    -0.00062867
N        -0.03838715    -0.03511776     1.40305793     0.00003765     0.00005494     0.00055941
H         0.94821276    -0.10972522    -0.56967841     0.00068591    -0.00074752    -0.00059977
H         0.83372376    -0.29479943     1.84819182     0.00000321    -0.00054620     0.00023296
H        -1.00578844    -0.17495133     1.80672097    -0.00046976    -0.00066572     0.00037078
H        -1.03942269    -0.06215142    -0.52956522     0.00013705    -0.00050853    -0.00028649
     6
  Step:    28            Position(A)                                  Velocity(au)
C        -0.03533630     0.03938952    -0.10088700    -0.00007163     0.00014348    -0.00061189
N        -0.03821639    -0.03479933     1.40612592     0.00002365     0.00005937     0.00054254
H         0.95194316    -0.11393103    -0.57300077     0.00064837    -0.00076192    -0.00059085
H         0.83393668    -0.29794559     1.84968002     0.00007160    -0.00058340     0.00030003
H        -1.00804065    -0.17870108     1.80875066    -0.00033723    -0.00068033     0.00035666
H        -1.03863848    -0.06498401    -0.53123495     0.00014205    -0.00050905    -0.00031390
     6
  Step:    29            Position(A)                                  Velocity(au)
C        -0.03572696     0.04018907    -0.10424617    -0.00006805     0.00014357    -0.00059445
N        -0.03812377    -0.03445668     1.40909907     0.00000979     0.00006360     0.00052527
H         0.95543223    -0.11820903    -0.57625737     0.00059971    -0.00077332    -0.00057628
H         0.83452101    -0.30129551     1.85153256     0.00013522    -0.00061875     0.00036300
H        -1.00954344    -0.18252672     1.81069231    -0.00020199    -0.00069301     0.00033960
H        -1.03784097    -0.06781957    -0.53306041     0.00014203    -0.00050944    -0.00034222
     6
  Step:    30            Position(A)                                  Velocity(au)
C        -0.03609419     0.04098831    -0.10750702    -0.00006329     0.00014335    -0.00057652
N        -0.03810741    -0.03409107     1.41197558    -0.00000354     0.00006758     0.00050781
H         0.95862179    -0.12254306    -0.57941848     0.00054143    -0.00078202    -0.00055676
H         0.83544250    -0.30483623     1.85372251     0.00019146    -0.00065136     0.00042050
H        -1.01029013    -0.18641876     1.81253263    -0.00006707    -0.00070429     0.00032072
H        -1.03705682    -0.07065728    -0.53504604     0.00013752    -0.00050967    -0.00037123
     6
  Step:    31            Position(A)                                  Velocity(au)
C        -0.03643180     0.04178562    -0.11066717    -0.00005752     0.00014286    -0.00055829
N        -0.03816322    -0.03370396     1.41475473    -0.00001596     0.00007130     0.00049033
H         0.96146233    -0.12691872    -0.58245824     0.00047509    -0.00078836    -0.00053299
H         0.83665340    -0.30854997     1.85621587     0.00023814    -0.00068042     0.00047141
H        -1.01029041    -0.19037075     1.81426427     0.00006474    -0.00071474     0.00030102
H        -1.03630931    -0.07349604    -0.53719493     0.00012919    -0.00050971    -0.00040068
     6
  Step:    32            Position(A)                                  Velocity(au)
C        -0.03673479     0.04257953    -0.11372513    -0.00005096     0.00014214    -0.00053987
N        -0.03828519    -0.03329692     1.41743681    -0.00002715     0.00007473     0.00047299
H         0.96391330    -0.13132368    -0.58535487     0.00040232    -0.00079273    -0.00050570
H         0.83809492    -0.31241467     1.85897307     0.00027354    -0.00070522     0.00051488
H        -1.00956909    -0.19437943     1.81588534     0.00019086    -0.00072494     0.00028143
H        -1.03561786    -0.07633436    -0.53950877     0.00011777    -0.00050943    -0.00043033
     6
  Step:    33            Position(A)                                  Velocity(au)
C        -0.03699934     0.04336879    -0.11668017    -0.00004383     0.00014122    -0.00052141
N        -0.03846562    -0.03287160     1.42002282    -0.00003684     0.00007787     0.00045591
H         0.96594329    -0.13574792    -0.58809057     0.00032473    -0.00079557    -0.00047557
H         0.83970005    -0.31640455     1.86195054     0.00029644    -0.00072515     0.00055035
H        -1.00816468    -0.19844493     1.81739880     0.00030898    -0.00073550     0.00026277
H        -1.03499758    -0.07916999    -0.54198785     0.00010405    -0.00050869    -0.00045995
     6
  Step:    34            Position(A)                                  Velocity(au)
C        -0.03722289     0.04415233    -0.11953213    -0.00003635     0.00014013    -0.00050298
N        -0.03869548    -0.03242968     1.42251436    -0.00004482     0.00008071     0.00043917
H         0.96752987    -0.14018402    -0.59065136     0.00024390    -0.00079737    -0.00044328
H         0.84139643    -0.32049071     1.86510241     0.00030614    -0.00073969     0.00057754
H        -1.00612796    -0.20257081     1.81881188     0.00041705    -0.00074707     0.00024574
H        -1.03445906    -0.08199969    -0.54463122     0.00008884    -0.00050726    -0.00048931
     6
  Step:    35            Position(A)                                  Velocity(au)
C        -0.03740414     0.04492924    -0.12228130    -0.00002875     0.00013889    -0.00048463
N        -0.03896468    -0.03197278     1.42491336    -0.00005091     0.00008328     0.00042278
H         0.96865938    -0.14462739    -0.59302692     0.00016138    -0.00079867    -0.00040944
H         0.84310924    -0.32464168     1.86838205     0.00030244    -0.00074842     0.00059647
H        -1.00352046    -0.20676425     1.82013538     0.00051328    -0.00076030     0.00023091
H        -1.03400826    -0.08481883    -0.54743679     0.00007298    -0.00050485    -0.00051826
     6
  Step:    36            Position(A)                                  Velocity(au)
C        -0.03754305     0.04569874    -0.12492814    -0.00002127     0.00013752    -0.00046635
N        -0.03926232    -0.03150244     1.42722179    -0.00005500     0.00008558     0.00040674
H         0.96932670    -0.14907670    -0.59521025     0.00007866    -0.00080009    -0.00037463
H         0.84476396    -0.32882386     1.87174368     0.00028561    -0.00075096     0.00060740
H        -1.00041286    -0.21103626     1.82138294     0.00059620    -0.00077590     0.00021870
H        -1.03364651    -0.08762090    -0.55040168     0.00005727    -0.00050107    -0.00054668
     6
  Step:    37            Position(A)                                  Velocity(au)
C        -0.03764091     0.04646023    -0.12747288    -0.00001414     0.00013607    -0.00044807
N        -0.03957697    -0.03102005     1.42944138    -0.00005701     0.00008765     0.00039096
H         0.96953509    -0.15353441    -0.59719748    -0.00000273    -0.00080242    -0.00033938
H         0.84628880    -0.33300169     1.87514393     0.00025632    -0.00074693     0.00061091
H        -0.99688333    -0.21540196     1.82257010     0.00066458    -0.00079468     0.00020937
H        -1.03337069    -0.09039699    -0.55352268     0.00004250    -0.00049540    -0.00057460
     6
  Step:    38            Position(A)                                  Velocity(au)
C        -0.03770038     0.04721320    -0.12991523    -0.00000762     0.00013454    -0.00042963
N        -0.03989685    -0.03052685     1.43157325    -0.00005688     0.00008952     0.00037529
H         0.96929629    -0.15800780    -0.59898762    -0.00008123    -0.00080666    -0.00030420
H         0.84761684    -0.33713740     1.87854330     0.00021559    -0.00073583     0.00060785
H        -0.99301588    -0.21988128     1.82371326     0.00071755    -0.00081761     0.00020293
H        -1.03317345    -0.09313479    -0.55679716     0.00002939    -0.00048708    -0.00060228
     6
  Step:    39            Position(A)                                  Velocity(au)
C        -0.03772571     0.04795732    -0.13225367    -0.00000205     0.00013297    -0.00041068
N        -0.04020995    -0.03002388     1.43361751    -0.00005457     0.00009122     0.00035946
H         0.96863114    -0.16251074    -0.60058251    -0.00015502    -0.00081435    -0.00026963
H         0.84868783    -0.34118980     1.88190792     0.00016474    -0.00071675     0.00059943
H        -0.98889869    -0.22450008     1.82482826     0.00075444    -0.00084597     0.00019911
H        -1.03304370    -0.09581713    -0.56022466     0.00001852    -0.00047499    -0.00063039
     6
  Step:    40            Position(A)                                  Velocity(au)
C        -0.03772318     0.04869245    -0.13448405     0.00000211     0.00013141    -0.00039040
N        -0.04050389    -0.02951204     1.43557223    -0.00004995     0.00009276     0.00034287
H         0.96757171    -0.16706739    -0.60198726    -0.00022148    -0.00082808    -0.00023651
H         0.84944961    -0.34511123     1.88521190     0.00010536    -0.00068783     0.00058750
H        -0.98462275    -0.22929265     1.82592833     0.00077479    -0.00088177     0.00019713
H        -1.03296743    -0.09841906    -0.56381024     0.00001021    -0.00045718    -0.00066072
     6
  Step:    41            Position(A)                                  Velocity(au)
C        -0.03770220     0.04941881    -0.13659568     0.00000406     0.00012996    -0.00036617
N        -0.04076545    -0.02899221     1.43743088    -0.00004273     0.00009410     0.00032369
H         0.96616790    -0.17172064    -0.60321299    -0.00027526    -0.00085315    -0.00020730
H         0.84985966    -0.34883974     1.88844206     0.00003943    -0.00064463     0.00057538
H        -0.98028149    -0.23430702     1.82702072     0.00077783    -0.00092834     0.00019547
H        -1.03293017    -0.10090188    -0.56757310     0.00000343    -0.00043013    -0.00069834
     6
  Step:    42            Position(A)                                  Velocity(au)
C        -0.03767808     0.05013740    -0.13855542     0.00000280     0.00012890    -0.00032783
N        -0.04097896    -0.02846575     1.43917127    -0.00003251     0.00009498     0.00029485
H         0.96451114    -0.17655327    -0.60429220    -0.00030196    -0.00089754    -0.00019443
H         0.84988808    -0.35227868     1.89160942    -0.00002963    -0.00058000     0.00056865
H        -0.97597435    -0.23961460     1.82810168     0.00076129    -0.00098618     0.00019405
H        -1.03292932    -0.10320152    -0.57157490    -0.00001127    -0.00039221    -0.00075909
     6
  Step:    43            Position(A)                                  Velocity(au)
C        -0.03767108     0.05085158    -0.14023954     0.00000118     0.00012846    -0.00026313
N        -0.04112681    -0.02793648     1.44070810    -0.00002126     0.00009507     0.00024767
H         0.96281157    -0.18169683    -0.60537411    -0.00029304    -0.00094639    -0.00022117
H         0.84953030    -0.35528652     1.89476265    -0.00009716    -0.00050874     0.00056344
H        -0.97181976    -0.24526844     1.82917755     0.00072587    -0.00103033     0.00020450
H        -1.03305545    -0.10526131    -0.57601040    -0.00005434    -0.00036639    -0.00085299
     6
  Step:    44            Position(A)                                  Velocity(au)
C        -0.03766493     0.05156472    -0.14147901     0.00000301     0.00012835    -0.00018098
N        -0.04121517    -0.02740947     1.44192307    -0.00001163     0.00009463     0.00018820
H         0.96125519    -0.18706851    -0.60674958    -0.00026793    -0.00097481    -0.00028320
H         0.84880855    -0.35793122     1.89786966    -0.00016217    -0.00045579     0.00054843
H        -0.96790935    -0.25106244     1.83037380     0.00067871    -0.00104088     0.00023496
H        -1.03353307    -0.10727244    -0.58105238    -0.00012292    -0.00037297    -0.00095894
     6