|===============================================================================
|
|  DFTB+ release 20.1
|
|  Copyright (C) 2006 - 2020  DFTB+ developers group
|
|===============================================================================
|
|  When publishing results obtained with DFTB+, please cite the following
|  reference:
|
|  * DFTB+, a software package for efficient approximate density functional
|    theory based atomistic simulations, J. Chem. Phys. 152, 124101 (2020).
|    [doi: 10.1063/1.5143190]
|
|  You should also cite additional publications crediting the parametrization
|  data you use. Please consult the documentation of the SK-files for the
|  references.
|
|===============================================================================

Reading input file 'dftb_in.hsd'
Parser version: 8

--------------------------------------------------------------------------------
Reading SK-files:
Done.


Processed input in HSD format written to 'dftb_pin.hsd'

Starting initialization...
--------------------------------------------------------------------------------
OpenMP threads:              1
Chosen random seed:          509978428
Mode:                        Static calculation
Self consistent charges:     Yes
SCC-tolerance:                 0.100000E-05
Max. scc iterations:                   1000
Shell resolved Hubbard:      No
Spin polarisation:           No
Nr. of up electrons:             6.000000
Nr. of down electrons:           6.000000
Periodic boundaries:         No
Electronic solver:           Relatively robust
Maximal SCC-cycles:                    1000
Initial charges:             Set automatically (system chrg:   0.100E+01)
Included shells:             C:  s, p
                             N:  s, p
                             H:  s
Spin coupling constants:     C   1(s)-1(s):  -0.455900E-01
                             C   1(s)-2(p):  -0.293000E-01
                             C   2(p)-1(s):  -0.293000E-01
                             C   2(p)-2(p):  -0.275500E-01
                             N   1(s)-1(s):  -0.468700E-01
                             N   1(s)-2(p):  -0.317000E-01
                             N   2(p)-1(s):  -0.317000E-01
                             N   2(p)-2(p):  -0.307200E-01
                             H   1(s)-1(s):  -0.792500E-01
Range separated hybrid:      Yes
  Screening parameter omega:   0.300000E+00
  Range separated algorithm:   MatrixBased
Extra options:
                             Mulliken analysis
                             Force calculation
Force type                   original
                             Eigenvector printing


REKS Calcuation:             Yes
SSR(2,2) Calcuation:         Yes
Energy Functional:           (PPS+OSS)/2
Number of Core Orbitals:                  5
Number of Active Orbitals:                2
Number of Basis:                         12
Number of States:                         2
State-Averaging Weight:          0.500000
                                 0.500000
State of Interest:                        1
Initial Guess:               Diagonalize H0 matrix
Newton-Raphson for FON opt:  Yes
NR max. Iterations:                      50
Level Shifting:              Yes
Shift Value:                     0.300000
W Scale Factor:              C  =    3.000000
                             N  =    3.000000
                             H  =    3.000000
Transition Dipole:           No
Gradient of Microstate:      No
CP-REKS Solver:              Preconditioned Conjugate-Gradient
CG max. Iterations:                     100
CG Tolerance:                  0.100000E-07
Memory for A and Hxc:        Direct Updating Without Saving
Non-Adiabatic Coupling:      Yes

--------------------------------------------------------------------------------

***  Geometry step: 0

  iSCC       reks energy        Diff energy         x_a       SCC error   
    1       -6.2647556872       0.0000000000     0.998976    1.18932167
    2       -6.2770851187      -0.0123294315     0.999588    0.09727353
    3       -6.2805032286      -0.0034181099     0.999771    0.04301039
    4       -6.2819712715      -0.0014680429     0.999846    0.02162544
    5       -6.2827300767      -0.0007588053     0.999882    0.01169657
    6       -6.2831840675      -0.0004539907     0.999900    0.00645222
    7       -6.2834839935      -0.0002999261     0.999911    0.00470955
    8       -6.2836935343      -0.0002095408     0.999917    0.00420868
    9       -6.2838441903      -0.0001506560     0.999921    0.00370839
   10       -6.2839540292      -0.0001098388     0.999924    0.00323950
   11       -6.2840346088      -0.0000805796     0.999926    0.00295378
   12       -6.2840938521      -0.0000592433     0.999927    0.00269189
   13       -6.2841374111      -0.0000435590     0.999928    0.00242473
   14       -6.2841694055      -0.0000319944     0.999928    0.00216363
   15       -6.2841928698      -0.0000234644     0.999929    0.00191590
   16       -6.2842100491      -0.0000171792     0.999929    0.00168585
   17       -6.2842226051      -0.0000125560     0.999929    0.00147564
   18       -6.2842317670      -0.0000091619     0.999929    0.00128598
   19       -6.2842384423      -0.0000066752     0.999929    0.00111654
   20       -6.2842432990      -0.0000048567     0.999929    0.00096637
   21       -6.2842468283      -0.0000035293     0.999929    0.00083416
   22       -6.2842493901      -0.0000025618     0.999929    0.00071839
   23       -6.2842512478      -0.0000018577     0.999929    0.00061747
   24       -6.2842525938      -0.0000013460     0.999929    0.00052983
   25       -6.2842535683      -0.0000009745     0.999929    0.00045396
   26       -6.2842542734      -0.0000007051     0.999929    0.00038847
   27       -6.2842547832      -0.0000005098     0.999929    0.00033206
   28       -6.2842551517      -0.0000003685     0.999929    0.00028358
   29       -6.2842554178      -0.0000002662     0.999929    0.00024197
   30       -6.2842556100      -0.0000001922     0.999929    0.00020633
   31       -6.2842557488      -0.0000001387     0.999929    0.00017582
   32       -6.2842558489      -0.0000001001     0.999929    0.00014975
   33       -6.2842559211      -0.0000000722     0.999929    0.00012748
   34       -6.2842559732      -0.0000000521     0.999929    0.00010848
   35       -6.2842560108      -0.0000000376     0.999929    0.00009228
   36       -6.2842560379      -0.0000000271     0.999929    0.00007848
   37       -6.2842560574      -0.0000000195     0.999929    0.00006672
   38       -6.2842560715      -0.0000000141     0.999929    0.00005671
   39       -6.2842560817      -0.0000000101     0.999929    0.00004820
   40       -6.2842560890      -0.0000000073     0.999929    0.00004095
   41       -6.2842560943      -0.0000000053     0.999929    0.00003479
   42       -6.2842560981      -0.0000000038     0.999929    0.00002955
   43       -6.2842561008      -0.0000000027     0.999929    0.00002510
   44       -6.2842561028      -0.0000000020     0.999929    0.00002132
   45       -6.2842561042      -0.0000000014     0.999929    0.00001810
   46       -6.2842561052      -0.0000000010     0.999929    0.00001537
   47       -6.2842561060      -0.0000000007     0.999929    0.00001305
   48       -6.2842561065      -0.0000000005     0.999929    0.00001108
   49       -6.2842561069      -0.0000000004     0.999929    0.00000941
   50       -6.2842561071      -0.0000000003     0.999929    0.00000799
   51       -6.2842561073      -0.0000000002     0.999929    0.00000678
   52       -6.2842561075      -0.0000000001     0.999929    0.00000576
   53       -6.2842561076      -0.0000000001     0.999929    0.00000489
   54       -6.2842561077      -0.0000000001     0.999929    0.00000415
   55       -6.2842561077      -0.0000000001     0.999929    0.00000352
   56       -6.2842561078      -0.0000000000     0.999929    0.00000299
   57       -6.2842561078      -0.0000000000     0.999929    0.00000254
   58       -6.2842561078      -0.0000000000     0.999929    0.00000215
   59       -6.2842561078      -0.0000000000     0.999929    0.00000183
   60       -6.2842561078      -0.0000000000     0.999929    0.00000155
   61       -6.2842561078      -0.0000000000     0.999929    0.00000132
   62       -6.2842561078      -0.0000000000     0.999929    0.00000112
   63       -6.2842561078      -0.0000000000     0.999929    0.00000095
  
--------------------------------------------------
 Final SA-REKS(2,2) energy:      -6.28425611
  
 State     Energy      FON(1)    FON(2)   Spin
  PPS   -6.40511111   1.999857  0.000143  0.00
  OSS   -6.16340110   1.000000  1.000000  0.00
 Trip   -6.24467337   1.000000  1.000000  1.00
--------------------------------------------------

 Lagrangian Wab:   0.00839529  0.00839500

--------------------------------------------------
 SSR: 2SI-2SA-REKS(2,2) Hamiltonian matrix
               PPS           OSS
   PPS    -6.40511111    0.01177199
   OSS     0.01177199   -6.16340110
--------------------------------------------------

----------------------------------------------------------------
 SSR: 2SI-2SA-REKS(2,2) states
                    E_n       C_{PPS}    C_{OSS}
 SSR state  1   -6.40568309  -0.998822   0.048531
 SSR state  2   -6.16282913  -0.048531  -0.998822
----------------------------------------------------------------

 unrelaxed SSR FONs for S0:  1.997502  0.002498

Total Energy:                       -6.4056830905 H         -174.3075 eV
Extrapolated to 0:                  -6.4056830905 H         -174.3075 eV

----------------------------------------------------------------------------------
 Solving CP-REKS equation for  1 state vector...
----------------------------------------------------------------------------------
  CG solver: Constructing Y initial guess
  CG solver: Iteration    1    eps =    0.000188980527
  CG solver: Iteration    2    eps =    0.000050660160
  CG solver: Iteration    3    eps =    0.000022788128
  CG solver: Iteration    4    eps =    0.000001017125
  CG solver: Iteration    5    eps =    0.000000028029
  CG solver: Iteration    6    eps =    0.000000012638
  CG solver: Iteration    7    eps =    0.000000000301
  Convergence reached in CG solver after    7 iterations
  CG solver: Calculating converged R, Z, Q2 matrix
----------------------------------------------------------------------------------

----------------------------------------------------------------------------------
 Solving CP-REKS equation for SI between  1 and  2 state vectors...
----------------------------------------------------------------------------------
  CG solver: Constructing Y initial guess
  CG solver: Iteration    1    eps =    0.004510063783
  CG solver: Iteration    2    eps =    0.007042883709
  CG solver: Iteration    3    eps =    0.000642765646
  CG solver: Iteration    4    eps =    0.000012051793
  CG solver: Iteration    5    eps =    0.000001783544
  CG solver: Iteration    6    eps =    0.000000044093
  CG solver: Iteration    7    eps =    0.000000004087
  Convergence reached in CG solver after    7 iterations
  CG solver: Calculating converged R, Z, Q2 matrix
----------------------------------------------------------------------------------

--------------------------------------------------
 Gradient Information
--------------------------------------------------
           1 st state (SSR)
    -0.01279270    -0.01090835     0.00188599
    -0.00444511     0.02680726     0.00201658
    -0.00605370    -0.01168744     0.00676902
     0.00721613     0.00488556     0.00066565
     0.00670955    -0.02193284    -0.01184448
     0.00936583     0.01283581     0.00050723

           2 st state (SSR)
    -0.00006303     0.00758272     0.10659966
     0.00518388    -0.02156126    -0.12151208
    -0.01878953     0.01354256     0.02298000
    -0.00234585    -0.00470359    -0.01033033
     0.00369678     0.02228593    -0.01380042
     0.01231774    -0.01714636     0.01606316
--------------------------------------------------
 Coupling Information
--------------------------------------------------
 between  1 and  2 states
--------------------------------------------------
 g vector - difference gradient
    -0.00598519    -0.00900626    -0.05590567
    -0.00554902     0.02527766     0.06467156
     0.00581412    -0.01455668    -0.00793956
     0.00483060     0.00614700     0.00587511
     0.00212827    -0.02429941     0.00071431
    -0.00123877     0.01643769    -0.00741576

 h vector - derivative coupling
     0.00420684     0.00290569    -0.03388951
    -0.00730698     0.01005016     0.02684562
    -0.00599485    -0.01932098     0.00209733
     0.00027698     0.01365144     0.00360450
     0.00631126    -0.02140920    -0.00275438
     0.00250675     0.01412289     0.00409645

 G vector - GDV
    -0.00636483    -0.00924554    -0.05235684
    -0.00481449     0.02418426     0.06176433
     0.00636791    -0.01261500    -0.00810549
     0.00478099     0.00479458     0.00549799
     0.00150638    -0.02210939     0.00097797
    -0.00147596     0.01499109    -0.00777797

 H vector - DCV - non-adiabatic coupling
     0.01485164     0.00831313    -0.16120703
    -0.03216141     0.05127943     0.13583833
    -0.02224773    -0.08499426     0.00542604
     0.00306351     0.05840162     0.01711767
     0.02671507    -0.09744173    -0.01100314
     0.00977892     0.06444180     0.01382812
--------------------------------------------------


--------------------------------------------------------------------------------
DFTB+ running times                          cpu [s]             wall clock [s]
--------------------------------------------------------------------------------
SCC                                    +     0.03  ( 70.6%)      0.03  ( 65.2%)
Post-SCC processing                    +     0.01  ( 25.7%)      0.01  ( 23.9%)
  Force calculation                          0.01  ( 25.1%)      0.01  ( 21.7%)
--------------------------------------------------------------------------------
Missing                                +     0.00  (  3.7%)      0.01  ( 10.9%)
Total                                  =     0.04  (100.0%)      0.05  (100.0%)
--------------------------------------------------------------------------------
