     6
  Step:     0            Position(A)                                  Velocity(au)
C        -0.03631865     0.01379773     0.02576310    -0.00007532    -0.00006994    -0.00022917
N        -0.04867980    -0.05995241     1.29050988     0.00019245    -0.00005874     0.00028569
H         0.90985231     0.01587437    -0.54020345     0.00043236     0.00055738     0.00000553
H         0.84066664    -0.10085180     1.86875566    -0.00022800     0.00014862    -0.00080876
H        -0.88946246     0.00269243     1.82136411    -0.00175799     0.00056541     0.00034765
H        -0.96474721     0.08121263    -0.49824882    -0.00022322     0.00037829    -0.00078360
     6
  Step:     1            Position(A)                                  Velocity(au)
C        -0.03670310     0.01342529     0.02434710    -0.00006565    -0.00006633    -0.00028718
N        -0.04757831    -0.06029044     1.29223926     0.00020808    -0.00006461     0.00034554
H         0.91231743     0.01893658    -0.54036099     0.00046658     0.00056240    -0.00006174
H         0.83915287    -0.10002267     1.86420501    -0.00031793     0.00015404    -0.00084773
H        -0.89950100     0.00583961     1.82361550    -0.00188853     0.00058372     0.00046114
H        -0.96638565     0.08330963    -0.50295066    -0.00036949     0.00038807    -0.00093137
     6
  Step:     2            Position(A)                                  Velocity(au)
C        -0.03703690     0.01307199     0.02262097    -0.00005684    -0.00006286    -0.00034186
N        -0.04640308    -0.06065931     1.29429061     0.00021896    -0.00006989     0.00040250
H         0.91495734     0.02202780    -0.54087896     0.00049531     0.00056718    -0.00012590
H         0.83718798    -0.09916644     1.85948032    -0.00039080     0.00015827    -0.00087021
H        -0.91012562     0.00907911     1.82640963    -0.00196911     0.00059816     0.00054527
H        -0.96878997     0.08545863    -0.50843933    -0.00050093     0.00039659    -0.00106874
     6
  Step:     3            Position(A)                                  Velocity(au)
C        -0.03732542     0.01273707     0.02060410    -0.00004909    -0.00005950    -0.00039244
N        -0.04518090    -0.06105562     1.29664619     0.00022473    -0.00007447     0.00045548
H         0.91774056     0.02514657    -0.54173951     0.00051771     0.00057133    -0.00018641
H         0.83487408    -0.09828983     1.85467723    -0.00044313     0.00016114    -0.00087384
H        -0.92106054     0.01238881     1.82958557    -0.00199854     0.00060809     0.00060003
H        -0.97187027     0.08765187    -0.51465216    -0.00061401     0.00040331    -0.00119278
     6
  Step:     4            Position(A)                                  Velocity(au)
C        -0.03757490     0.01241990     0.01832002    -0.00004254    -0.00005624    -0.00043817
N        -0.04394019    -0.06147544     1.29928235     0.00022519    -0.00007826     0.00050338
H         0.92063116     0.02828927    -0.54292188     0.00053305     0.00057450    -0.00024268
H         0.83233152    -0.09740044     1.84990356    -0.00047189     0.00016253    -0.00085677
H        -0.93202841     0.01574337     1.83298556    -0.00197766     0.00061303     0.00062657
H        -0.97551912     0.08987864    -0.52151152    -0.00070587     0.00040772    -0.00130096
     6
  Step:     5            Position(A)                                  Velocity(au)
C        -0.03779220     0.01211994     0.01579623    -0.00003728    -0.00005307    -0.00047837
N        -0.04271003    -0.06191435     1.30216958     0.00022033    -0.00008120     0.00054523
H         0.92358944     0.03145027    -0.54440231     0.00054076     0.00057636    -0.00029417
H         0.82969625    -0.09650651     1.84527622    -0.00047472     0.00016235    -0.00081785
H        -0.94276049     0.01911527     1.83646069    -0.00190908     0.00061273     0.00062702
H        -0.97961549     0.09212561    -0.52892701    -0.00077450     0.00040943    -0.00139124
     6
  Step:     6            Position(A)                                  Velocity(au)
C        -0.03798450     0.01183673     0.01306369    -0.00003332    -0.00004999    -0.00051252
N        -0.04151927    -0.06236767     1.30527323     0.00021031    -0.00008325     0.00058018
H         0.92657298     0.03462222    -0.54615421     0.00054052     0.00057668    -0.00034042
H         0.82711532    -0.09561658     1.84091705    -0.00045027     0.00016060    -0.00075680
H        -0.95300522     0.02247595     1.83987516    -0.00179700     0.00060716     0.00060422
H        -0.98402924     0.09437742    -0.53679828    -0.00081878     0.00040816    -0.00146223
     6
  Step:     7            Position(A)                                  Velocity(au)
C        -0.03815893     0.01156981     0.01015609    -0.00003065    -0.00004699    -0.00054024
N        -0.04039555    -0.06283053     1.30855441     0.00019551    -0.00008441     0.00060769
H         0.92953775     0.03779652    -0.54814855     0.00053223     0.00057533    -0.00038106
H         0.82474110    -0.09473908     1.83694775    -0.00039842     0.00015737    -0.00067434
H        -0.96253614     0.02579698     1.84310999    -0.00164681     0.00059653     0.00056156
H        -0.98862600     0.09661733    -0.54501855    -0.00083857     0.00040377    -0.00151328
     6
  Step:     8            Position(A)                                  Velocity(au)
C        -0.03832237     0.01131873     0.00710888    -0.00002918    -0.00004409    -0.00056138
N        -0.03936428    -0.06329810     1.31197154     0.00017642    -0.00008471     0.00062746
H         0.93243951     0.04096382    -0.55035451     0.00051605     0.00057226    -0.00041590
H         0.82272369    -0.09388191     1.83348401    -0.00032050     0.00015281    -0.00057228
H        -0.97115739     0.02905129     1.84606508    -0.00146474     0.00058124     0.00050273
H        -0.99327247     0.09882798    -0.55347855    -0.00083468     0.00039626    -0.00154450
     6
  Step:     9            Position(A)                                  Velocity(au)
C        -0.03848111     0.01108300     0.00395821    -0.00002879    -0.00004130    -0.00057599
N        -0.03844779    -0.06376574     1.31548188     0.00015372    -0.00008420     0.00063953
H         0.93523520     0.04411453    -0.55274027     0.00049239     0.00056754    -0.00044489
H         0.82120263    -0.09305200     1.83062952    -0.00021931     0.00014713    -0.00045340
H        -0.97870760     0.03221416     1.84866039    -0.00125745     0.00056186     0.00043148
H        -0.99784130     0.10099221    -0.56207061    -0.00080872     0.00038577    -0.00155671
     6
  Step:    10            Position(A)                                  Velocity(au)
C        -0.03864072     0.01086203     0.00073974    -0.00002933    -0.00003863    -0.00058434
N        -0.03766450    -0.06422920     1.31904327     0.00012818    -0.00008299     0.00064423
H         0.93788427     0.04723947    -0.55527401     0.00046187     0.00056132    -0.00046818
H         0.82029866    -0.09225496     1.82847044    -0.00009898     0.00014062    -0.00032134
H        -0.98506198     0.03526417     1.85083630    -0.00103171     0.00053909     0.00035150
H        -1.00221509     0.10309374    -0.57069224    -0.00076290     0.00037255    -0.00155131
     6
  Step:    11            Position(A)                                  Velocity(au)
C        -0.03880590     0.01065518    -0.00251249    -0.00003064    -0.00003610    -0.00058685
N        -0.03702840    -0.06468469     1.32261575     0.00010064    -0.00008116     0.00064214
H         0.94034976     0.05033030    -0.55792474     0.00042524     0.00055383    -0.00048607
H         0.82010652    -0.09149482     1.82707111     0.00003523     0.00013358    -0.00018033
H        -0.99013231     0.03818385     1.85255275    -0.00079400     0.00051373     0.00026622
H        -1.00628930     0.10511773    -0.57924913    -0.00069983     0.00035694    -0.00153015
     6
  Step:    12            Position(A)                                  Velocity(au)
C        -0.03898048     0.01046173    -0.00576694    -0.00003257    -0.00003373    -0.00058411
N        -0.03654868    -0.06512906     1.32616290     0.00007197    -0.00007885     0.00063404
H         0.94259911     0.05338003    -0.56066323     0.00038337     0.00054538    -0.00049898
H         0.82068929    -0.09077391     1.82647102     0.00017736     0.00012632    -0.00003491
H        -0.99386537     0.04096008     1.85378794    -0.00055035     0.00048659     0.00017875
H        -1.00997441     0.10705124    -0.58765760    -0.00062239     0.00033930    -0.00149542
     6
  Step:    13            Position(A)                                  Velocity(au)
C        -0.03916737     0.01028087    -0.00899526    -0.00003494    -0.00003151    -0.00057674
N        -0.03622966    -0.06555979     1.32965272     0.00004301    -0.00007617     0.00062082
H         0.94460467     0.05638323    -0.56346268     0.00033716     0.00053627    -0.00050743
H         0.82207494    -0.09009284     1.82668368     0.00032109     0.00011914     0.00011040
H        -0.99624044     0.04358436     1.85453665    -0.00030616     0.00045851     0.00009186
H        -1.01319699     0.10888350    -0.59584617    -0.00053346     0.00032005    -0.00144941
     6
  Step:    14            Position(A)                                  Velocity(au)
C        -0.03936859     0.01011172    -0.01217272    -0.00003762    -0.00002947    -0.00056543
N        -0.03607092    -0.06597505     1.33305824     0.00001458    -0.00007324     0.00060339
H         0.94634387     0.05933631    -0.56629926     0.00028747     0.00052683    -0.00051202
H         0.82425561    -0.08945064     1.82769720     0.00046024     0.00011230     0.00025133
H        -0.99726590     0.04605275     1.85480827    -0.00006616     0.00043029     0.00000794
H        -1.01589951     0.11060600    -0.60375612    -0.00043577     0.00029957    -0.00139443
     6
  Step:    15            Position(A)                                  Velocity(au)
C        -0.03958545     0.00995338    -0.01527834    -0.00004049    -0.00002761    -0.00055084
N        -0.03606769    -0.06637366     1.33635763    -0.00001263    -0.00007018     0.00058264
H         0.94779908     0.06223745    -0.56915235     0.00023514     0.00051738    -0.00051334
H         0.82718913    -0.08884499     1.82947647     0.00058909     0.00010600     0.00038413
H        -0.99697564     0.04836577     1.85462491     0.00016559     0.00040267    -0.00007096
H        -1.01803932     0.11221234    -0.61134125    -0.00033181     0.00027821    -0.00133261
     6
  Step:    16            Position(A)                                  Velocity(au)
C        -0.03981856     0.00980489    -0.01829483    -0.00004342    -0.00002592    -0.00053358
N        -0.03621134    -0.06675506     1.33953387    -0.00003800    -0.00006709     0.00055938
H         0.94895727     0.06508659    -0.57200467     0.00018091     0.00050819    -0.00051197
H         0.83080282    -0.08827253     1.83196651     0.00070270     0.00010040     0.00050570
H        -0.99542553     0.05052811     1.85401964     0.00038559     0.00037635    -0.00014305
H        -1.01958728     0.11369807    -0.61856706    -0.00022376     0.00025628    -0.00126589
     6
  Step:    17            Position(A)                                  Velocity(au)
C        -0.04006799     0.00966530    -0.02120817    -0.00004598    -0.00002181    -0.00055957
N        -0.03648999    -0.06711926     1.34257425    -0.00006133    -0.00006682     0.00056876
H         0.94980958     0.06788519    -0.57484211     0.00009767     0.00055325    -0.00046535
H         0.83499854    -0.08772920     1.83509653     0.00078145     0.00004345     0.00060465
H        -0.99269049     0.05254833     1.85303514     0.00061323     0.00041351    -0.00021328
H        -1.02052604     0.11506042    -0.62540954    -0.00009215     0.00017834    -0.00116172
     6
  Step:    18            Position(A)                                  Velocity(au)
C        -0.04032942     0.00956253    -0.02451214    -0.00004764    -0.00001496    -0.00063355
N        -0.03689281    -0.06749753     1.34585322    -0.00008253    -0.00006954     0.00061515
H         0.95004250     0.07123361    -0.57717505    -0.00001597     0.00063316    -0.00037367
H         0.83948530    -0.08778978     1.83868464     0.00082080    -0.00004490     0.00067491
H        -0.98861209     0.05512251     1.85164993     0.00084749     0.00049407    -0.00028282
H        -1.02061112     0.11567957    -0.63147472     0.00006229     0.00006224    -0.00101724
     6
  Step:    19            Position(A)                                  Velocity(au)
C        -0.04059723     0.00949913    -0.02824614    -0.00004860    -0.00000796    -0.00070906
N        -0.03740683    -0.06789175     1.34940777    -0.00010092    -0.00007242     0.00066337
H         0.94963217     0.07491884    -0.57899316    -0.00013018     0.00068646    -0.00028228
H         0.84411667    -0.08822793     1.84259392     0.00083521    -0.00010500     0.00072427
H        -0.98327591     0.05803684     1.84989334     0.00106122     0.00054910    -0.00034349
H        -1.01983405     0.11575187    -0.63670978     0.00021530    -0.00002932    -0.00086770
     6
  Step:    20            Position(A)                                  Velocity(au)
C        -0.04086932     0.00947408    -0.03238892    -0.00004922    -0.00000122    -0.00077935
N        -0.03801390    -0.06830201     1.35322245    -0.00011580    -0.00007527     0.00070761
H         0.94859641     0.07885937    -0.58031083    -0.00023959     0.00072745    -0.00019432
H         0.84876346    -0.08895616     1.84673036     0.00082665    -0.00015205     0.00075739
H        -0.97682328     0.06122232     1.84783423     0.00124638     0.00059452    -0.00039008
H        -1.01821943     0.11535385    -0.64111377     0.00036222    -0.00010929    -0.00071937
     6
  Step:    21            Position(A)                                  Velocity(au)
C        -0.04114410     0.00948554    -0.03690554    -0.00004955     0.00000514    -0.00084250
N        -0.03869348    -0.06872811     1.35727007    -0.00012680    -0.00007808     0.00074623
H         0.94697010     0.08300155    -0.58115227    -0.00034137     0.00075983    -0.00011146
H         0.85330170    -0.08991736     1.85100932     0.00079629    -0.00019009     0.00077572
H        -0.96942731     0.06464257     1.84555910     0.00139751     0.00063485    -0.00041975
H        -1.01580940     0.11453751    -0.64470279     0.00049999    -0.00018083    -0.00057508
     6
  Step:    22            Position(A)                                  Velocity(au)
C        -0.04142006     0.00953118    -0.04175376    -0.00004960     0.00001104    -0.00089745
N        -0.03942332    -0.06916986     1.36151720    -0.00013365    -0.00008084     0.00077834
H         0.94480194     0.08730532    -0.58154979    -0.00043310     0.00078559    -0.00003514
H         0.85761470    -0.09106908     1.85535292     0.00074581    -0.00022125     0.00078057
H        -0.96128921     0.06827902     1.84316846     0.00150981     0.00067287    -0.00043019
H        -1.01266180     0.11334380    -0.64750606     0.00062578    -0.00024543    -0.00043718
     6
  Step:    23            Position(A)                                  Velocity(au)
C        -0.04169571     0.00960837    -0.04688684    -0.00004937     0.00001644    -0.00094362
N        -0.04017994    -0.06962720     1.36592661    -0.00013621    -0.00008361     0.00080345
H         0.94215329     0.09173878    -0.58154313    -0.00051265     0.00080609     0.00003334
H         0.86159641    -0.09237806     1.85969065     0.00067747    -0.00024693     0.00077342
H        -0.95263547     0.07212608     1.84077461     0.00157934     0.00071070    -0.00041961
H        -1.00884961     0.11180791    -0.64956502     0.00073698    -0.00030391    -0.00030790
     6
  Step:    24            Position(A)                                  Velocity(au)
C        -0.04196946     0.00971417    -0.05225546    -0.00004884     0.00002129    -0.00098077
N        -0.04093927    -0.07010036     1.37045892    -0.00013445    -0.00008644     0.00082138
H         0.93909659     0.09627638    -0.58117878    -0.00057822     0.00082242     0.00009286
H         0.86515438    -0.09381724     1.86396040     0.00059404    -0.00026814     0.00075595
H        -0.94371255     0.07618853     1.83849855     0.00160336     0.00075011    -0.00038689
H        -1.00445988     0.10996159    -0.65093273     0.00083123    -0.00035680    -0.00018929
     6
  Step:    25            Position(A)                                  Velocity(au)
C        -0.04223963     0.00984542    -0.05780951    -0.00004800     0.00002554    -0.00100895
N        -0.04167734    -0.07058989     1.37507427    -0.00012848    -0.00008941     0.00083224
H         0.93571369     0.10089801    -0.58050894    -0.00062835     0.00083564     0.00014253
H         0.86821211    -0.09536430     1.86810957     0.00049861    -0.00028566     0.00073002
H        -0.93477906     0.08047996     1.83646589     0.00158065     0.00079261    -0.00033165
H        -0.99959234     0.10783431    -0.65167308     0.00090645    -0.00040450    -0.00008321
     6
  Step:    26            Position(A)                                  Velocity(au)
C        -0.04250441     0.00999884    -0.06349962    -0.00004682     0.00002920    -0.00102850
N        -0.04237107    -0.07109676     1.37973371    -0.00011853    -0.00009258     0.00083634
H         0.93209405     0.10558902    -0.57959042    -0.00066195     0.00084667     0.00018167
H         0.87071104    -0.09700079     1.87209605     0.00039447    -0.00030014     0.00069758
H        -0.92609717     0.08502165     1.83480250     0.00151177     0.00083942    -0.00025441
H        -0.99435802     0.10545371    -0.65186002     0.00096088    -0.00044735     0.00000870
     6
  Step:    27            Position(A)                                  Velocity(au)
C        -0.04276177     0.01017104    -0.06927838    -0.00004527     0.00003225    -0.00103989
N        -0.04299913    -0.07162228     1.38440042    -0.00010502    -0.00009602     0.00083421
H         0.92833220     0.11033929    -0.57848317    -0.00067836     0.00085638     0.00020987
H         0.87261084    -0.09871114     1.87588834     0.00028490    -0.00031208     0.00066055
H        -0.91792123     0.08984046     1.83362896     0.00139922     0.00089144    -0.00015662
H        -0.98887744     0.10284591    -0.65157603     0.00099310    -0.00048566     0.00008511
     6
  Step:    28            Position(A)                                  Velocity(au)
C        -0.04300947     0.01035863    -0.07510131    -0.00004330     0.00003470    -0.00104372
N        -0.04354276    -0.07216803     1.38904071    -0.00008847    -0.00009976     0.00082647
H         0.92452582     0.11514336    -0.57724892    -0.00067725     0.00086555     0.00022699
H         0.87388962    -0.10048261     1.87946560     0.00017316    -0.00032200     0.00062082
H        -0.91048658     0.09496718     1.83305510     0.00124743     0.00094915    -0.00004070
H        -0.98327840     0.10003534    -0.65091043     0.00100203    -0.00051979     0.00014503
     6
  Step:    29            Position(A)                                  Velocity(au)
C        -0.04324501     0.01055828    -0.08092733    -0.00004085     0.00003655    -0.00104063
N        -0.04398657    -0.07273573     1.39362464    -0.00006955    -0.00010381     0.00081383
H         0.92077342     0.11999970    -0.57594976    -0.00065872     0.00087490     0.00023311
H         0.87454349    -0.10230501     1.88281726     0.00006231    -0.00033032     0.00058012
H        -0.90399863     0.10043393     1.83317470     0.00106272     0.00101257     0.00009005
H        -0.97769382     0.09704460    -0.64995737     0.00098697    -0.00055006     0.00018778
     6
  Step:    30            Position(A)                                  Velocity(au)
C        -0.04346558     0.01076670    -0.08671905    -0.00003788     0.00003783    -0.00103127
N        -0.04431920    -0.07332701     1.39812636    -0.00004902    -0.00010814     0.00079701
H         0.91717184     0.12491079    -0.57464646    -0.00062326     0.00088503     0.00022860
H         0.87458524    -0.10417033     1.88594214    -0.00004479    -0.00033740     0.00054005
H        -0.89862221     0.10627158     1.83406037     0.00085305     0.00108116     0.00023148
H        -0.97225979     0.09389436    -0.64881408     0.00094759    -0.00057686     0.00021304
     6
  Step:    31            Position(A)                                  Velocity(au)
C        -0.04366803     0.01098074    -0.09244277    -0.00003433     0.00003857    -0.00101627
N        -0.04453390    -0.07394325     1.40252426    -0.00002773    -0.00011267     0.00077675
H         0.91381394     0.12988214    -0.57339712    -0.00057177     0.00089640     0.00021405
H         0.87404331    -0.10607251     1.88884762    -0.00014550    -0.00034357     0.00050204
H        -0.89447328     0.11250649     1.83575950     0.00062761     0.00115387     0.00037887
H        -0.96711280     0.09060321    -0.64757853     0.00088410    -0.00060056     0.00022092
     6
  Step:    32            Position(A)                                  Velocity(au)
C        -0.04384899     0.01119745    -0.09806835    -0.00003016     0.00003880    -0.00099622
N        -0.04462886    -0.07458531     1.40680086    -0.00000657    -0.00011730     0.00075375
H         0.91078648     0.13492147    -0.57225600    -0.00050554     0.00090933     0.00019026
H         0.87296040    -0.10800722     1.89154870    -0.00023740    -0.00034908     0.00046732
H        -0.89161331     0.11915760     1.83829150     0.00039635     0.00122910     0.00052712
H        -0.96238653     0.08718751    -0.64634696     0.00079724    -0.00062153     0.00021193
     6
  Step:    33            Position(A)                                  Velocity(au)
C        -0.04400489     0.01141404    -0.10356909    -0.00002535     0.00003856    -0.00097172
N        -0.04460724    -0.07525338     1.41094258     0.00001359    -0.00012190     0.00072867
H         0.90816780     0.14003801    -0.57127221    -0.00042626     0.00092398     0.00015823
H         0.87139187    -0.10997121     1.89406689    -0.00031838    -0.00035417     0.00043697
H        -0.89004668     0.12623375     1.84164668     0.00016938     0.00130488     0.00067104
H        -0.95820876     0.08366165    -0.64521162     0.00068844    -0.00064018     0.00018702
     6
  Step:    34            Position(A)                                  Velocity(au)
C        -0.04413209     0.01162808    -0.10892164    -0.00001989     0.00003791    -0.00094333
N        -0.04447708    -0.07594681     1.41493947     0.00003191    -0.00012629     0.00070209
H         0.90602551     0.14524160    -0.57048872    -0.00033604     0.00094040     0.00011915
H         0.86940435    -0.11196302     1.89642936    -0.00038659    -0.00035910     0.00041191
H        -0.88972148     0.13373202     1.84578644    -0.00004363     0.00137899     0.00080566
H        -0.95469720     0.08003727    -0.64425811     0.00055988    -0.00065696     0.00014763
     6
  Step:    35            Position(A)                                  Velocity(au)
C        -0.04422709     0.01183746    -0.11410590    -0.00001384     0.00003691    -0.00091165
N        -0.04425081    -0.07666405     1.41878475     0.00004767    -0.00013033     0.00067455
H         0.90441432     0.15054200    -0.56994130    -0.00023736     0.00095848     0.00007439
H         0.86707373    -0.11398227     1.89866783    -0.00044057    -0.00036405     0.00039283
H        -0.89053407     0.14163677     1.85064566    -0.00023413     0.00144917     0.00092658
H        -0.95195504     0.07632356    -0.64356259     0.00041453    -0.00067233     0.00009567
     6
  Step:    36            Position(A)                                  Velocity(au)
C        -0.04428671     0.01204043    -0.11910509    -0.00000727     0.00003565    -0.00087726
N        -0.04394457    -0.07740266     1.42247445     0.00006029    -0.00013386     0.00064651
H         0.90337412     0.15594811    -0.56965772    -0.00013299     0.00097803     0.00002543
H         0.86448309    -0.11602954     1.90081745    -0.00047922    -0.00036917     0.00038026
H        -0.89233674     0.14991970     1.85613662    -0.00039510     0.00151323     0.00103020
H        -0.95006682     0.07252717    -0.64318940     0.00025605    -0.00068672     0.00003345
     6
  Step:    37            Position(A)                                  Velocity(au)
C        -0.04430827     0.01223567    -0.12390571    -0.00000028     0.00003418    -0.00084075
N        -0.04357728    -0.07815937     1.42600689     0.00006936    -0.00013674     0.00061834
H         0.90292868     0.16146747    -0.56965726    -0.00002589     0.00099875    -0.00002621
H         0.86172036    -0.11810622     1.90291567    -0.00050193    -0.00037460     0.00037448
H        -0.89494772     0.15854099     1.86215399    -0.00052146     0.00156930     0.00111389
H        -0.94909466     0.06865226    -0.64318896     0.00008877    -0.00070058    -0.00003641
     6
  Step:    38            Position(A)                                  Velocity(au)
C        -0.04428983     0.01242228    -0.12849758     0.00000697     0.00003259    -0.00080272
N        -0.04316972    -0.07893024     1.42938229     0.00007464    -0.00013887     0.00059035
H         0.90308486     0.16710575    -0.56995052     0.00008090     0.00102030    -0.00007897
H         0.85887572    -0.12021439     1.90500103    -0.00050856    -0.00038045     0.00037558
H        -0.89816228     0.16745130     1.86858049    -0.00061012     0.00161591     0.00117602
H        -0.94907507     0.06470061    -0.64359615    -0.00008255    -0.00071432    -0.00011102
     6
  Step:    39            Position(A)                                  Velocity(au)
C        -0.04423034     0.01259980    -0.13287385     0.00001433     0.00003096    -0.00076377
N        -0.04274341    -0.07971086     1.43260236     0.00007608    -0.00014019     0.00056278
H         0.90383250     0.17286641    -0.57053950     0.00018440     0.00104226    -0.00013136
H         0.85603870    -0.12235668     1.90711175    -0.00049948    -0.00038682     0.00038338
H        -0.90176407     0.17659424     1.87529268    -0.00065998     0.00165208     0.00121601
H        -0.95001688     0.06067178    -0.64442933    -0.00025291    -0.00072831    -0.00018744
     6
  Step:    40            Position(A)                                  Velocity(au)
C        -0.04412974     0.01276819    -0.13703087     0.00002160     0.00002936    -0.00072445
N        -0.04231972    -0.08049652     1.43566996     0.00007379    -0.00014066     0.00053580
H         0.90514506     0.17875053    -0.57141812     0.00028180     0.00106423    -0.00018200
H         0.85329524    -0.12453619     1.90928442    -0.00047562    -0.00039378     0.00039747
H        -0.90553594     0.18590930     1.88216648    -0.00067173     0.00167734     0.00123420
H        -0.95190068     0.05656347    -0.64569036    -0.00041735    -0.00074287    -0.00026278
     6
  Step:    41            Position(A)                                  Velocity(au)
C        -0.04398897     0.01292779    -0.14096797     0.00002862     0.00002785    -0.00068528
N        -0.04191894    -0.08128246     1.43858877     0.00006804    -0.00014030     0.00050956
H         0.90698092     0.18475674    -0.57257291     0.00037057     0.00108577    -0.00022966
H         0.85072476    -0.12675628     1.91155259    -0.00043838    -0.00040137     0.00041719
H        -0.90926916     0.19533473     1.88908203    -0.00064753     0.00169172     0.00123167
H        -0.95467979     0.05237188    -0.64736534    -0.00057121    -0.00075823    -0.00033438
     6
  Step:    42            Position(A)                                  Velocity(au)
C        -0.04380997     0.01307930    -0.14468722     0.00003522     0.00002649    -0.00064673
N        -0.04155955    -0.08206406     1.44136308     0.00005918    -0.00013915     0.00048415
H         0.90928523     0.19088134    -0.57398401     0.00044857     0.00110651    -0.00027331
H         0.84839742    -0.12902052     1.91394545    -0.00038964    -0.00040962     0.00044165
H        -0.91277050     0.20481009     1.89592738    -0.00059062     0.00169567     0.00121012
H        -0.95828257     0.04809216    -0.64942620    -0.00071037    -0.00077454    -0.00039989
     6
  Step:    43            Position(A)                                  Velocity(au)
C        -0.04359554     0.01322369    -0.14819312     0.00004125     0.00002532    -0.00060917
N        -0.04125776    -0.08283698     1.44399761     0.00004767    -0.00013726     0.00045962
H         0.91199225     0.19711847    -0.57562633     0.00051408     0.00112608    -0.00031213
H         0.84637174    -0.13133251     1.91648668    -0.00033165    -0.00041853     0.00046980
H        -0.91586742     0.21427845     1.90260128    -0.00050498     0.00168997     0.00117161
H        -0.96261599     0.04371887    -0.65183284    -0.00083142    -0.00079187    -0.00045741
     6
  Step:    44            Position(A)                                  Velocity(au)
C        -0.04334921     0.01336217    -0.15149205     0.00004661     0.00002439    -0.00057291
N        -0.04102704    -0.08359732     1.44649734     0.00003400    -0.00013472     0.00043601
H         0.91502786     0.20346036    -0.57747072     0.00056585     0.00114417    -0.00034550
H         0.84469269    -0.13369574     1.91919346    -0.00026693    -0.00042806     0.00050041
H        -0.91841144     0.22368819     1.90901502    -0.00039504     0.00167569     0.00111846
H        -0.96757008     0.03924644    -0.65453578    -0.00093176    -0.00081022    -0.00050551
     6