 Fermi distribution function

Calculation with static geometry


********************************************************************************
 iSCC Total electronic   Diff electronic      SCC error    
   13   -0.52747247E+01   -0.30621194E-09    0.33125455E-06
********************************************************************************

 Total charge:     1.00000000

 Atomic gross charges (e)
 Atom           Charge
    1       0.30288100
    2      -0.19193662
    3       0.16924056
    4       0.26068574
    5       0.26728657
    6       0.19184275

Nr. of electrons (up):     12.00000000
Atom populations (up)
 Atom       Population
    1       3.69711900
    2       5.19193662
    3       0.83075944
    4       0.73931426
    5       0.73271343
    6       0.80815725

l-shell populations (up)
 Atom Sh.   l       Population
    1   1   0       1.39955787
    1   2   1       2.29756113
    2   1   0       1.52130324
    2   2   1       3.67063338
    3   1   0       0.83075944
    4   1   0       0.73931426
    5   1   0       0.73271343
    6   1   0       0.80815725

Orbital populations (up)
 Atom Sh.   l   m       Population  Label
    1   1   0   0       1.39955787  s
    1   2   1  -1       0.43342381  p_y
    1   2   1   0       0.86775589  p_z
    1   2   1   1       0.99638142  p_x
    2   1   0   0       1.52130324  s
    2   2   1  -1       1.35644127  p_y
    2   2   1   0       1.08863997  p_z
    2   2   1   1       1.22555214  p_x
    3   1   0   0       0.83075944  s
    4   1   0   0       0.73931426  s
    5   1   0   0       0.73271343  s
    6   1   0   0       0.80815725  s

Fermi level:                        -0.5158735599 H          -14.0376 eV
Band energy:                        -8.6916211409 H         -236.5110 eV
TS:                                  0.0000000000 H            0.0000 eV
Band free energy (E-TS):            -8.6916211409 H         -236.5110 eV
Extrapolated E(0K):                 -8.6916211409 H         -236.5110 eV
Input / Output electrons (q):     12.0000000000     12.0000000000

Energy H0:                          -5.4118317731 H         -147.2634 eV
Energy SCC:                          0.1371070744 H            3.7309 eV
Total Electronic energy:            -5.2747246987 H         -143.5326 eV
Repulsive energy:                    0.1389933876 H            3.7822 eV
Total energy:                       -5.1357313111 H         -139.7504 eV
Extrapolated to 0:                  -5.1357313111 H         -139.7504 eV
Total Mermin free energy:           -5.1357313111 H         -139.7504 eV
Force related energy:               -5.1357313111 H         -139.7504 eV

SCC converged

Excitation Energy:                   0.0986790030 H            2.6852 eV

Total Forces
    1      0.012221909308     -0.003074375347      0.051554925332
    2     -0.028953337982      0.019773737024     -0.056080935794
    3     -0.006660541991      0.006940800013     -0.002080438767
    4      0.008852193198     -0.008529505832      0.007928565362
    5      0.017484701312     -0.005996551813      0.001945621716
    6     -0.002944923846     -0.009114104045     -0.003267737849

Maximal derivative component:        0.560809E-01 au


