     6
  Step:   300            Position(A)                                  Velocity(au)
C        -0.05352454    -0.00360171     0.02808455     0.00004377    -0.00003855     0.00003646
N        -0.05058961    -0.04867971     1.28768488    -0.00017002     0.00006336    -0.00003240
H         0.11165860     0.98586759    -0.39598033    -0.00170521     0.00008166    -0.00034474
H         0.08084813    -0.88444375     1.85824085    -0.00071726     0.00025947     0.00042413
H         0.20362807     0.79267234     1.83534155     0.00265801    -0.00086293     0.00034463
H        -0.26826039    -0.84449122    -0.63435105     0.00160566     0.00010073    -0.00040824
