 Fermi distribution function

Calculation with static geometry


********************************************************************************
 iSCC Total electronic   Diff electronic      SCC error    
   13   -0.53135242E+01   -0.16332713E-10    0.20882710E-06
********************************************************************************

 Total charge:     1.00000000

 Atomic gross charges (e)
 Atom           Charge
    1       0.32743921
    2      -0.22348675
    3       0.17329206
    4       0.28802288
    5       0.26558461
    6       0.16914800

Nr. of electrons (up):     12.00000000
Atom populations (up)
 Atom       Population
    1       3.67256079
    2       5.22348675
    3       0.82670794
    4       0.71197712
    5       0.73441539
    6       0.83085200

l-shell populations (up)
 Atom Sh.   l       Population
    1   1   0       1.37186283
    1   2   1       2.30069797
    2   1   0       1.48098385
    2   2   1       3.74250290
    3   1   0       0.82670794
    4   1   0       0.71197712
    5   1   0       0.73441539
    6   1   0       0.83085200

Orbital populations (up)
 Atom Sh.   l   m       Population  Label
    1   1   0   0       1.37186283  s
    1   2   1  -1       0.48352774  p_y
    1   2   1   0       0.87301619  p_z
    1   2   1   1       0.94415404  p_x
    2   1   0   0       1.48098385  s
    2   2   1  -1       1.38323386  p_y
    2   2   1   0       1.05452485  p_z
    2   2   1   1       1.30474419  p_x
    3   1   0   0       0.82670794  s
    4   1   0   0       0.71197712  s
    5   1   0   0       0.73441539  s
    6   1   0   0       0.83085200  s

Fermi level:                        -0.5008366115 H          -13.6285 eV
Band energy:                        -8.6991126533 H         -236.7149 eV
TS:                                  0.0000000000 H            0.0000 eV
Band free energy (E-TS):            -8.6991126533 H         -236.7149 eV
Extrapolated E(0K):                 -8.6991126533 H         -236.7149 eV
Input / Output electrons (q):     12.0000000000     12.0000000000

Energy H0:                          -5.4475425233 H         -148.2352 eV
Energy SCC:                          0.1340183179 H            3.6468 eV
Total Electronic energy:            -5.3135242055 H         -144.5884 eV
Repulsive energy:                    0.1492063586 H            4.0601 eV
Total energy:                       -5.1643178468 H         -140.5282 eV
Extrapolated to 0:                  -5.1643178468 H         -140.5282 eV
Total Mermin free energy:           -5.1643178468 H         -140.5282 eV
Force related energy:               -5.1643178468 H         -140.5282 eV

SCC converged

Excitation Energy:                   0.0956103198 H            2.6017 eV

Total Forces
    1     -0.007608496584     -0.004329579033      0.080460712416
    2      0.004644653872      0.009671087530     -0.079280112960
    3     -0.001322817542     -0.015330038884     -0.001618101806
    4     -0.015710491811      0.009667167124     -0.001098032471
    5      0.010943601987     -0.012296431547     -0.002235571332
    6      0.009053550077      0.012617794810      0.003771106153

Maximal derivative component:        0.804607E-01 au


