     6
  Step:     0            Position(A)                                  Velocity(au)
C        -0.03024679     0.00226510     0.01086460     0.00002420     0.00012578    -0.00024172
N        -0.04082086    -0.04745363     1.30705372     0.00013701    -0.00013230     0.00015805
H         0.90416450     0.07971080    -0.52923425    -0.00025869    -0.00045757     0.00040085
H         0.82889969    -0.11132644     1.83407934    -0.00137872     0.00068994    -0.00074224
H        -0.97781863    -0.06729405     1.82081577    -0.00070642     0.00037780     0.00089637
H        -1.04049993     0.06157290    -0.52636151     0.00015151    -0.00027056     0.00012901
     6
  Step:     1            Position(A)                                  Velocity(au)
C        -0.03014741     0.00295246     0.00944440     0.00001170     0.00012558    -0.00027613
N        -0.04011010    -0.04817777     1.30802044     0.00012089    -0.00013246     0.00019393
H         0.90296225     0.07726500    -0.52735271    -0.00017542    -0.00043680     0.00028389
H         0.82146622    -0.10759630     1.83022609    -0.00131824     0.00067311    -0.00065318
H        -0.98127442    -0.06522584     1.82563147    -0.00054929     0.00037875     0.00085903
H        -1.03946960     0.06009224    -0.52571636     0.00022360    -0.00027085     0.00010560
     6
  Step:     2            Position(A)                                  Velocity(au)
C        -0.03011882     0.00363871     0.00784416    -0.00000155     0.00012537    -0.00030745
N        -0.03949850    -0.04890250     1.30917507     0.00010092    -0.00013252     0.00022659
H         0.90224561     0.07493289    -0.52612890    -0.00008222    -0.00041614     0.00016116
H         0.81448011    -0.10396357     1.82693456    -0.00121554     0.00065457    -0.00053720
H        -0.98382700    -0.06315109     1.83021228    -0.00037809     0.00038012     0.00081155
H        -1.03805410     0.05861019    -0.52520636     0.00029190    -0.00027106     0.00007937
     6
  Step:     3            Position(A)                                  Velocity(au)
C        -0.03016437     0.00432386     0.00608134    -0.00001526     0.00012519    -0.00033555
N        -0.03900620    -0.04962732     1.31049893     0.00007750    -0.00013251     0.00025572
H         0.90206286     0.07271314    -0.52558988     0.00001850    -0.00039589     0.00003441
H         0.80817015    -0.10043641     1.82435000    -0.00107241     0.00063486    -0.00039564
H        -0.98541009    -0.06106792     1.83450858    -0.00019669     0.00038181     0.00075614
H        -1.03627673     0.05712731    -0.52484820     0.00035550    -0.00027118     0.00004987
     6
  Step:     4            Position(A)                                  Velocity(au)
C        -0.03028577     0.00500799     0.00417402    -0.00002913     0.00012503    -0.00036033
N        -0.03865082    -0.05035189     1.31197207     0.00005115    -0.00013246     0.00028118
H         0.90244801     0.07060276    -0.52575251     0.00012403    -0.00037634    -0.00009446
H         0.80275040    -0.09701962     1.82260717    -0.00089247     0.00061464    -0.00023101
H        -0.98597835    -0.05897499     1.83848277    -0.00000883     0.00038372     0.00069495
H        -1.03416571     0.05564414    -0.52466086     0.00041355    -0.00027120     0.00001670
     6
  Step:     5            Position(A)                                  Velocity(au)
C        -0.03048296     0.00569126     0.00214060    -0.00004282     0.00012490    -0.00038175
N        -0.03844676    -0.05107602     1.31357413     0.00002252    -0.00013240     0.00030295
H         0.90341936     0.06859726    -0.52662300     0.00023142    -0.00035773    -0.00022350
H         0.79840953    -0.09371430     1.82182356    -0.00068127     0.00059457    -0.00004704
H        -0.98550671    -0.05687133     1.84210894     0.00018185     0.00038579     0.00063004
H        -1.03175391     0.05416128    -0.52466554     0.00046518    -0.00027112    -0.00002054
     6
  Step:     6            Position(A)                                  Velocity(au)
C        -0.03075398     0.00637384    -0.00000052    -0.00005597     0.00012480    -0.00039981
N        -0.03840451    -0.05179976     1.31528495    -0.00000762    -0.00013236     0.00032110
H         0.90497869     0.06669082    -0.52819657     0.00033761    -0.00034027    -0.00035069
H         0.79530045    -0.09051783     1.82209278    -0.00044613     0.00057527     0.00015138
H        -0.98398978    -0.05475622     1.84537253     0.00037177     0.00038797     0.00056348
H        -1.02907879     0.05267932    -0.52488548     0.00050956    -0.00027092    -0.00006221
     6
  Step:     7            Position(A)                                  Velocity(au)
C        -0.03109498     0.00705591    -0.00223098    -0.00006825     0.00012473    -0.00041450
N        -0.03853004    -0.05252327     1.31708512    -0.00003839    -0.00013235     0.00033578
H         0.90711090     0.06487665    -0.53045749     0.00043951    -0.00032409    -0.00047401
H         0.79353137    -0.08742417     1.82347875    -0.00019587     0.00055730     0.00035837
H        -0.98144168    -0.05262916     1.84827013     0.00055731     0.00039020     0.00049725
H        -1.02618226     0.05119895    -0.52534578     0.00054586    -0.00027057    -0.00010861
     6
  Step:     8            Position(A)                                  Velocity(au)
C        -0.03150025     0.00773758    -0.00453259    -0.00007932     0.00012465    -0.00042583
N        -0.03882428    -0.05324684     1.31895635    -0.00006884    -0.00013238     0.00034721
H         0.90978424     0.06314726    -0.53337930     0.00053411    -0.00030928    -0.00059149
H         0.79315888    -0.08442442     1.82601109     0.00005966     0.00054109     0.00056733
H        -0.97789626    -0.05048985     1.85080935     0.00073473     0.00039243     0.00043339
H        -1.02311044     0.04972099    -0.52607295     0.00057332    -0.00027002    -0.00015992
     6
  Step:     9            Position(A)                                  Velocity(au)
C        -0.03196226     0.00841884    -0.00688721    -0.00008884     0.00012453    -0.00043378
N        -0.03928280    -0.05397076     1.32088161    -0.00009796    -0.00013244     0.00035557
H         0.91295104     0.06149484    -0.53692511     0.00061855    -0.00029586    -0.00070122
H         0.79418369    -0.08150768     1.82968214     0.00031005     0.00052689     0.00077125
H        -0.97340782    -0.04833816     1.85300894     0.00090012     0.00039462     0.00037395
H        -1.01991332     0.04824646    -0.52709438     0.00059125    -0.00026923    -0.00021621
     6
  Step:    10            Position(A)                                  Velocity(au)
C        -0.03247187     0.00909951    -0.00927665    -0.00009654     0.00012434    -0.00043832
N        -0.03989564    -0.05469525     1.32284506    -0.00012474    -0.00013250     0.00036107
H         0.91654900     0.05991162    -0.54104823     0.00069026    -0.00028378    -0.00080140
H         0.79654974    -0.07866204     1.83444590     0.00054506     0.00051479     0.00096314
H        -0.96805207    -0.04617412     1.85489902     0.00104939     0.00039672     0.00032104
H        -1.01664427     0.04677658    -0.52843750     0.00059907    -0.00026814    -0.00027736
     6
  Step:    11            Position(A)                                  Velocity(au)
C        -0.03301847     0.00977917    -0.01168265    -0.00010217     0.00012403    -0.00043942
N        -0.04064748    -0.05542039     1.32483190    -0.00014821    -0.00013253     0.00036386
H         0.92050279     0.05839011    -0.54569280     0.00074701    -0.00027298    -0.00089038
H         0.80014686    -0.07587562     1.84021939     0.00075521     0.00050468     0.00113645
H        -0.96192698    -0.04399787     1.85652128     0.00117837     0.00039872     0.00027681
H        -1.01335916     0.04531284    -0.53012880     0.00059645    -0.00026672    -0.00034305
     6
  Step:    12            Position(A)                                  Velocity(au)
C        -0.03359029     0.01045716    -0.01408680    -0.00010594     0.00012587    -0.00048526
N        -0.04151800    -0.05614599     1.32682805    -0.00016772    -0.00013429     0.00040166
H         0.92472618     0.05692342    -0.55079474     0.00075734    -0.00019555    -0.00092365
H         0.80481667    -0.07313754     1.84688599     0.00091617     0.00042034     0.00126989
H        -0.95515305    -0.04180951     1.85792913     0.00130218     0.00047782     0.00023490
H        -1.01011524     0.04385692    -0.53219269     0.00061735    -0.00033647    -0.00038040
     6
  Step:    13            Position(A)                                  Velocity(au)
C        -0.03417903     0.01115815    -0.01699874    -0.00010736     0.00013026    -0.00058393
N        -0.04248488    -0.05689156     1.32923215    -0.00018278    -0.00013822     0.00048207
H         0.92879957     0.05624782    -0.55581162     0.00071688    -0.00008826    -0.00089875
H         0.81018373    -0.07127069     1.85413127     0.00101734     0.00030294     0.00135192
H        -0.94766130    -0.03876327     1.85909465     0.00142131     0.00059389     0.00018852
H        -1.00659598     0.04162670    -0.53429621     0.00066376    -0.00044009    -0.00038266
     6
  Step:    14            Position(A)                                  Velocity(au)
C        -0.03476788     0.01188584    -0.02049146    -0.00010585     0.00013466    -0.00068597
N        -0.04352274    -0.05766198     1.33211553    -0.00019252    -0.00014237     0.00056656
H         0.93258913     0.05595531    -0.56065241     0.00065599    -0.00002627    -0.00085953
H         0.81597504    -0.06981482     1.86171412     0.00107152     0.00023656     0.00139488
H        -0.93956381    -0.03529557     1.85999689     0.00151024     0.00066085     0.00014712
H        -1.00283498     0.03902992    -0.53638982     0.00069878    -0.00049737    -0.00038157
     6
  Step:    15            Position(A)                                  Velocity(au)
C        -0.03534192     0.01263759    -0.02453535    -0.00010158     0.00013833    -0.00077994
N        -0.04460001    -0.05845574     1.33545682    -0.00019614    -0.00014601     0.00064480
H         0.93600678     0.05595925    -0.56525505     0.00058039     0.00002324    -0.00080944
H         0.82195630    -0.06867166     1.86945651     0.00108296     0.00018408     0.00140507
H        -0.93106866    -0.03150268     1.86071099     0.00155670     0.00071320     0.00012162
H        -0.99891866     0.03616218    -0.53848840     0.00071610    -0.00053989    -0.00038385
     6
  Step:    16            Position(A)                                  Velocity(au)
C        -0.03588641     0.01340895    -0.02907947    -0.00009467     0.00014099    -0.00086248
N        -0.04568250    -0.05926969     1.33921550    -0.00019336    -0.00014887     0.00071377
H         0.93897987     0.05621123    -0.56956523     0.00049314     0.00006515    -0.00075009
H         0.82789955    -0.06778790     1.87718538     0.00105367     0.00013966     0.00138380
H        -0.92242286    -0.02744251     1.86133610     0.00155494     0.00075579     0.00011555
H        -0.99494994     0.03308513    -0.54061645     0.00071337    -0.00057192    -0.00039076
     6
  Step:    17            Position(A)                                  Velocity(au)
C        -0.03638718     0.01419420    -0.03405791    -0.00008530     0.00014244    -0.00093124
N        -0.04673488    -0.06009941     1.34333749    -0.00018418    -0.00015078     0.00077132
H         0.94145146     0.05667856    -0.57353674     0.00039750     0.00010159    -0.00068332
H         0.83358983    -0.06712968     1.88473491     0.00098726     0.00010067     0.00133332
H        -0.91390071    -0.02315803     1.86198679     0.00150181     0.00079074     0.00013086
H        -0.99104239     0.02984769    -0.54280269     0.00068940    -0.00059521    -0.00040275
     6
  Step:    18            Position(A)                                  Velocity(au)
C        -0.03683119     0.01498660    -0.03939342    -0.00007379     0.00014260    -0.00098473
N        -0.04772240    -0.06093961     1.34775827    -0.00016898    -0.00015164     0.00081606
H         0.94338236     0.05733639    -0.57713337     0.00029705     0.00013364    -0.00061134
H         0.83883390    -0.06667292     1.89195249     0.00088887     0.00006575     0.00125708
H        -0.90578965    -0.01868475     1.86278545     0.00139734     0.00081929     0.00016798
H        -0.98731452     0.02649290    -0.54507704     0.00064423    -0.00061078    -0.00041985
     6
  Step:    19            Position(A)                                  Velocity(au)
C        -0.03720719     0.01577894    -0.04500143    -0.00006054     0.00014146    -0.00102245
N        -0.04861280    -0.06178457     1.35240648    -0.00014849    -0.00015146     0.00084744
H         0.94475260     0.05816374    -0.58033072     0.00019549     0.00016195    -0.00053666
H         0.84346801    -0.06639902     1.89870510     0.00076501     0.00003412     0.00115977
H        -0.89837188    -0.01405314     1.86385363     0.00124514     0.00084258     0.00022576
H        -0.98388297     0.02305996    -0.54746853     0.00057924    -0.00061956    -0.00044176
     6
  Step:    20            Position(A)                                  Velocity(au)
C        -0.03750635     0.01656409    -0.05079531    -0.00004609     0.00013914    -0.00104504
N        -0.04937828    -0.06262867     1.35720860    -0.00012376    -0.00015038     0.00086599
H         0.94556243     0.05914235    -0.58311796     0.00009646     0.00018705    -0.00046195
H         0.84736501    -0.06629240     1.90488578     0.00062308     0.00000535     0.00104704
H        -0.89190434    -0.00928864     1.86530301     0.00105235     0.00086191     0.00030151
H        -0.98085509     0.01958388    -0.55000341     0.00049709    -0.00062266    -0.00046798
     6
  Step:    21            Position(A)                                  Velocity(au)
C        -0.03772283     0.01733560    -0.05669265    -0.00003099     0.00013590    -0.00105434
N        -0.04999730    -0.06346695     1.36209460    -0.00009606    -0.00014863     0.00087324
H         0.94583170     0.06025631    -0.58549875     0.00000311     0.00020952    -0.00038986
H         0.85043863    -0.06633917     1.91041871     0.00047065    -0.00002088     0.00092504
H        -0.88659887    -0.00441060     1.86722675     0.00082889     0.00087886     0.00039140
H        -0.97832180     0.01609398    -0.55270400     0.00040145    -0.00062155    -0.00049792
     6
  Step:    22            Position(A)                                  Velocity(au)
C        -0.03785394     0.01808840    -0.06262149    -0.00001577     0.00013204    -0.00105314
N        -0.05045571    -0.06429576     1.36700346    -0.00006673    -0.00014651     0.00087161
H         0.94559733     0.06149245    -0.58749084    -0.00008210     0.00023006    -0.00032268
H         0.85264415    -0.06652658     1.91526157     0.00031472    -0.00004485     0.00079975
H        -0.88260701     0.00056917     1.86969325     0.00058615     0.00089521     0.00049101
H        -0.97635222     0.01261215    -0.55558842     0.00029641    -0.00061792    -0.00053110
     6
  Step:    23            Position(A)                                  Velocity(au)
C        -0.03790003     0.01881917    -0.06852539    -0.00000090     0.00012792    -0.00104464
N        -0.05074700    -0.06511309     1.37188777    -0.00003700    -0.00014436     0.00086390
H         0.94490920     0.06284115    -0.58912432    -0.00015760     0.00024946    -0.00026220
H         0.85397477    -0.06684315     1.91940448     0.00016105    -0.00006693     0.00067635
H        -0.88001312     0.00564770     1.87274354     0.00033540     0.00091278     0.00059585
H        -0.97499142     0.00915128    -0.55867123     0.00018597    -0.00061350    -0.00056713
     6
  Step:    24            Position(A)                                  Velocity(au)
C        -0.03786401     0.01952648    -0.07436568     0.00001329     0.00012382    -0.00103187
N        -0.05087165    -0.06591872     1.37671573    -0.00000791    -0.00014246     0.00085278
H         0.94382549     0.06429693    -0.59043860    -0.00022255     0.00026854    -0.00020955
H         0.85445471    -0.06727906     1.92286535     0.00001390    -0.00008752     0.00055874
H        -0.87883638     0.01083088     1.87639197     0.00008666     0.00093301     0.00070174
H        -0.97426147     0.00571497    -0.56196429     0.00007356    -0.00060983    -0.00060568
     6
  Step:    25            Position(A)                                  Velocity(au)
C        -0.03775071     0.02021048    -0.08012033     0.00002652     0.00011994    -0.00101713
N        -0.05083588    -0.06671388     1.38147030     0.00001972    -0.00014097     0.00084032
H         0.94240850     0.06585872    -0.59147897    -0.00027652     0.00028803    -0.00016530
H         0.85413095    -0.06782654     1.92568295    -0.00012371    -0.00010701     0.00044952
H        -0.87903937     0.01613174     1.88062884    -0.00015172     0.00095670     0.00080477
H        -0.97416489     0.00229873    -0.56547712    -0.00003806    -0.00060796    -0.00064623
     6
  Step:    26            Position(A)                                  Velocity(au)
C        -0.03756642     0.02087242    -0.08577986     0.00003858     0.00011635    -0.00100173
N        -0.05065038    -0.06750071     1.38614576     0.00004522    -0.00013994     0.00082776
H         0.94072242     0.06752923    -0.59229358    -0.00031920     0.00030843    -0.00012965
H         0.85306639    -0.06847990     1.92790982    -0.00024951    -0.00012575     0.00035027
H        -0.88053900     0.02156692     1.88542299    -0.00037284     0.00098377     0.00090113
H        -0.97468860    -0.00110746    -0.56921625    -0.00014657    -0.00060834    -0.00068794
     6
  Step:    27            Position(A)                                  Velocity(au)
C        -0.03731858     0.02151391    -0.09134191     0.00004925     0.00011304    -0.00098607
N        -0.05032928    -0.06828152     1.39074302     0.00006803    -0.00013928     0.00081554
H         0.93883271     0.06931387    -0.59293133    -0.00035019     0.00033002    -0.00010258
H         0.85133585    -0.06923519     1.92960673    -0.00036144    -0.00014396     0.00026198
H        -0.88321599     0.02715211     1.89072348    -0.00057077     0.00101331     0.00098706
H        -0.97580678    -0.00451599    -0.57318353    -0.00024983    -0.00061091    -0.00072955
     6
  Step:    28            Position(A)                                  Velocity(au)
C        -0.03701572     0.02213643    -0.09680628     0.00005831     0.00010989    -0.00096993
N        -0.04988963    -0.06905815     1.39526534     0.00008761    -0.00013883     0.00080358
H         0.93680654     0.07121953    -0.59344065    -0.00036895     0.00035282    -0.00008398
H         0.84902473    -0.07008970     1.93083939    -0.00045734    -0.00016173     0.00018545
H        -0.88692150     0.03289793     1.89646054    -0.00074034     0.00104383     0.00105896
H        -0.97748228    -0.00793877    -0.57737420    -0.00034571    -0.00061522    -0.00076951
     6
  Step:    29            Position(A)                                  Velocity(au)
C        -0.03666752     0.02274090    -0.10217143     0.00006554     0.00010680    -0.00095280
N        -0.04935106    -0.06983160     1.39971516     0.00010349    -0.00013841     0.00079146
H         0.93471333     0.07325322    -0.59386895    -0.00037494     0.00037675    -0.00007369
H         0.84622947    -0.07104090     1.93167731    -0.00053494    -0.00017905     0.00012145
H        -0.89148213     0.03880674     1.90254706    -0.00087722     0.00107356     0.00111365
H        -0.97966674    -0.01138512    -0.58177531    -0.00043203    -0.00062064    -0.00080614
     6
  Step:    30            Position(A)                                  Velocity(au)
C        -0.03628471     0.02332763    -0.10743299     0.00007074     0.00010366    -0.00093417
N        -0.04873543    -0.07060181     1.40409253     0.00011526    -0.00013782     0.00077873
H         0.93262483     0.07542141    -0.59426251    -0.00036780     0.00040160    -0.00007150
H         0.84305850    -0.07208665     1.93219397    -0.00059196    -0.00019590     0.00007081
H        -0.89670517     0.04487143     1.90888114    -0.00097819     0.00110075     0.00114871
H        -0.98230072    -0.01486079    -0.58636511    -0.00050670    -0.00062647    -0.00083782
     6
  Step:    31            Position(A)                                  Velocity(au)
C        -0.03587901     0.02389630    -0.11258368     0.00007376     0.00010037    -0.00091365
N        -0.04806641    -0.07136778     1.40839479     0.00012265    -0.00013693     0.00076498
H         0.93061389     0.07772947    -0.59466592    -0.00034750     0.00042717    -0.00007708
H         0.83963147    -0.07322441     1.93246655    -0.00062651    -0.00021220     0.00003421
H        -0.90238495     0.05107567     1.91535049    -0.00104149     0.00112391     0.00116276
H        -0.98531440    -0.01836773    -0.59111361    -0.00056793    -0.00063211    -0.00086321
     6
  Step:    32            Position(A)                                  Velocity(au)
C        -0.03546274     0.02444610    -0.11761396     0.00007453     0.00009688    -0.00089104
N        -0.04736867    -0.07212767     1.41261681     0.00012557    -0.00013563     0.00074992
H         0.92875259     0.08018148    -0.59512142    -0.00031444     0.00045324    -0.00008993
H         0.83607713    -0.07445125     1.93257519    -0.00063727    -0.00022787     0.00001212
H        -0.90831073     0.05739539     1.92183800    -0.00106698     0.00114192     0.00115554
H        -0.98862930    -0.02190449    -0.59598402    -0.00061437    -0.00063705    -0.00088131
     6
  Step:    33            Position(A)                                  Velocity(au)
C        -0.03504848     0.02497591    -0.12251324     0.00007305     0.00009315    -0.00086635
N        -0.04666708    -0.07287916     1.41675180     0.00012406    -0.00013385     0.00073343
H         0.92710979     0.08278032    -0.59566804    -0.00026952     0.00047963    -0.00010938
H         0.83252988    -0.07576379     1.93260166    -0.00062368    -0.00024287     0.00000467
H        -0.91427516     0.06380098     1.92822763    -0.00105603     0.00115410     0.00112784
H        -0.99216081    -0.02546689    -0.60093482    -0.00064522    -0.00064094    -0.00089157
     6
  Step:    34            Position(A)                                  Velocity(au)
C        -0.03464853     0.02548445    -0.12727092     0.00006942     0.00008919    -0.00083979
N        -0.04598578    -0.07361961     1.42079206     0.00011836    -0.00013158     0.00071548
H         0.92574838     0.08552781    -0.59634063    -0.00021408     0.00050622    -0.00013460
H         0.82912514    -0.07715841     1.93262720    -0.00058616    -0.00025718     0.00001149
H        -0.92008195     0.07025975     1.93440962    -0.00101138     0.00116024     0.00108132
H        -0.99582135    -0.02904886    -0.60592205    -0.00066030    -0.00064359    -0.00089383
     6
  Step:    35            Position(A)                                  Velocity(au)
C        -0.03427445     0.02597041    -0.13187736     0.00006382     0.00008500    -0.00081165
N        -0.04534732    -0.07434636     1.42472980     0.00010883    -0.00012885     0.00069619
H         0.92472266     0.08842495    -0.59716888    -0.00014992     0.00053290    -0.00016458
H         0.82599389    -0.07863144     1.93272979    -0.00052606    -0.00027083     0.00003175
H        -0.92555265     0.07673831     1.94028501    -0.00093681     0.00116051     0.00101835
H        -0.99952358    -0.03264327    -0.61090156    -0.00066001    -0.00064492    -0.00088833
     6
  Step:    36            Position(A)                                  Velocity(au)
C        -0.03393662     0.02643260    -0.13632465     0.00005651     0.00008062    -0.00078236
N        -0.04477186    -0.07505690     1.42855784     0.00009596    -0.00012571     0.00067577
H         0.92407603     0.09147217    -0.59817652    -0.00007915     0.00055965    -0.00019823
H         0.82325713    -0.08017943     1.93298132    -0.00044571    -0.00028390     0.00006408
H        -0.93053174     0.08320480     1.94576892    -0.00083678     0.00115541     0.00094167
H        -1.00318353    -0.03624272    -0.61583109    -0.00064523    -0.00064499    -0.00087562
     6
  Step:    37            Position(A)                                  Velocity(au)
C        -0.03364388     0.02687002    -0.14060701     0.00004778     0.00007610    -0.00075232
N        -0.04427661    -0.07574906     1.43227009     0.00008032    -0.00012223     0.00065445
H         0.92383946     0.09466955    -0.59938076    -0.00000408     0.00058642    -0.00023436
H         0.82102063    -0.08179926     1.93344478    -0.00034823    -0.00029649     0.00010668
H        -0.93488958     0.08963058     1.95079228    -0.00071607     0.00114570     0.00085422
H        -1.00672309    -0.03984011    -0.62067181    -0.00061721    -0.00064392    -0.00085644
     6
  Step:    38            Position(A)                                  Velocity(au)
C        -0.03340335     0.02728189    -0.14472089     0.00003795     0.00007147    -0.00072194
N        -0.04387539    -0.07642103     1.43586188     0.00006255    -0.00011848     0.00063253
H         0.92403045     0.09801693    -0.60079209     0.00007287     0.00061322    -0.00027178
H         0.81937067    -0.08348836     1.93417195    -0.00023742    -0.00030869     0.00015739
H        -0.93852343     0.09599140     1.95530245    -0.00057946     0.00113224     0.00075891
H        -1.01007195    -0.04342920    -0.62538945    -0.00057748    -0.00064191    -0.00083170
     6
  Step:    39            Position(A)                                  Velocity(au)
C        -0.03322025     0.02766769    -0.14866497     0.00002736     0.00006677    -0.00069159
N        -0.04357845    -0.07707151     1.43933008     0.00004328    -0.00011456     0.00061026
H         0.92465281     0.10151401    -0.60241429     0.00014931     0.00064002    -0.00030933
H         0.81837063    -0.08524471     1.93520154    -0.00011754    -0.00032062     0.00021377
H        -0.94135728     0.10226815     1.95926284    -0.00043159     0.00111599     0.00065848
H        -1.01316862    -0.04700480    -0.62995484    -0.00052764    -0.00063915    -0.00080230
     6
  Step:    40            Position(A)                                  Velocity(au)
C        -0.03309795     0.02802716    -0.15243986     0.00001634     0.00006206    -0.00066156
N        -0.04339236    -0.07769963     1.44267310     0.00002315    -0.00011053     0.00058789
H         0.92569692     0.10516028    -0.60424463     0.00022293     0.00066678    -0.00034590
H         0.81805876    -0.08706684     1.93655792     0.00000687    -0.00033236     0.00027323
H        -0.94334054     0.10844714     1.96265192    -0.00027680     0.00109789     0.00055549
H        -1.01596103    -0.05056292    -0.63434412    -0.00046938    -0.00063587    -0.00076919
     6
  Step:    41            Position(A)                                  Velocity(au)
C        -0.03303795     0.02836026    -0.15604770     0.00000519     0.00005736    -0.00063206
N        -0.04332009    -0.07830499     1.44589068     0.00000279    -0.00010648     0.00056562
H         0.92714057     0.10895500    -0.60627442     0.00029159     0.00069344    -0.00038047
H         0.81844725    -0.08895370     1.93825067     0.00013119    -0.00034398     0.00033313
H        -0.94444620     0.11452009     1.96546189    -0.00011904     0.00107886     0.00045221
H        -1.01840668    -0.05410082    -0.63853863    -0.00040436    -0.00063225    -0.00073322
     6
  Step:    42            Position(A)                                  Velocity(au)
C        -0.03304009     0.02866716    -0.15949175    -0.00000580     0.00005272    -0.00060325
N        -0.04336119    -0.07888760     1.44898367    -0.00001721    -0.00010247     0.00054360
H         0.92895015     0.11289698    -0.60848951     0.00035338     0.00071990    -0.00041212
H         0.81952247    -0.09090456     1.94027466     0.00025097    -0.00035550     0.00039094
H        -0.94466871     0.12048392     1.96769715     0.00003804     0.00105978     0.00035066
H        -1.02047242    -0.05761685    -0.64252461    -0.00033419    -0.00062846    -0.00069522
     6
  Step:    43            Position(A)                                  Velocity(au)
C        -0.03310261     0.02894823    -0.16277606    -0.00001635     0.00004814    -0.00057520
N        -0.04351202    -0.07944786     1.45195376    -0.00003631    -0.00009856     0.00052194
H         0.93108205     0.11698447    -0.61087105     0.00040667     0.00074603    -0.00044007
H         0.82124644    -0.09291878     1.94261099     0.00036204    -0.00036692     0.00044428
H        -0.94402196     0.12634046     1.96937299     0.00019114     0.00104148     0.00025266
H        -1.02213405    -0.06111040    -0.64629277    -0.00026040    -0.00062466    -0.00065591
     6
  Step:    44            Position(A)                                  Velocity(au)
C        -0.03322240     0.02920397    -0.16590507    -0.00002624     0.00004368    -0.00054795
N        -0.04376607    -0.07998653     1.45480322    -0.00005404    -0.00009482     0.00050071
H         0.93348437     0.12121503    -0.61339622     0.00045009     0.00077168    -0.00046368
H         0.82355913    -0.09499567     1.94522830     0.00046074    -0.00037822     0.00049110
H        -0.94253751     0.13209614     1.97051429     0.00033726     0.00102472     0.00015984
H        -1.02337581    -0.06458172    -0.64983788    -0.00018445    -0.00062099    -0.00061598
     6