 Fermi distribution function

Calculation with static geometry


********************************************************************************
 iSCC Total electronic   Diff electronic      SCC error    
    9   -0.54278110E+01   -0.69828587E-11    0.82408081E-06
********************************************************************************

 Total charge:     1.00000000

 Atomic gross charges (e)
 Atom           Charge
    1       0.19060759
    2      -0.06402987
    3       0.16253956
    4       0.26841005
    5       0.27387813
    6       0.16859453

Nr. of electrons (up):     12.00000000
Atom populations (up)
 Atom       Population
    1       3.80939241
    2       5.06402987
    3       0.83746044
    4       0.73158995
    5       0.72612187
    6       0.83140547

l-shell populations (up)
 Atom Sh.   l       Population
    1   1   0       1.31914968
    1   2   1       2.49024273
    2   1   0       1.43565303
    2   2   1       3.62837684
    3   1   0       0.83746044
    4   1   0       0.73158995
    5   1   0       0.72612187
    6   1   0       0.83140547

Orbital populations (up)
 Atom Sh.   l   m       Population  Label
    1   1   0   0       1.31914968  s
    1   2   1  -1       0.58439425  p_y
    1   2   1   0       0.87227659  p_z
    1   2   1   1       1.03357188  p_x
    2   1   0   0       1.43565303  s
    2   2   1  -1       1.37980146  p_y
    2   2   1   0       1.08893714  p_z
    2   2   1   1       1.15963824  p_x
    3   1   0   0       0.83746044  s
    4   1   0   0       0.73158995  s
    5   1   0   0       0.72612187  s
    6   1   0   0       0.83140547  s

Fermi level:                        -0.4990583877 H          -13.5801 eV
Band energy:                        -8.9331481212 H         -243.0833 eV
TS:                                  0.0000000000 H            0.0000 eV
Band free energy (E-TS):            -8.9331481212 H         -243.0833 eV
Extrapolated E(0K):                 -8.9331481212 H         -243.0833 eV
Input / Output electrons (q):     12.0000000000     12.0000000000

Energy H0:                          -5.5608188884 H         -151.3176 eV
Energy SCC:                          0.1330079378 H            3.6193 eV
Total Electronic energy:            -5.4278109506 H         -147.6983 eV
Repulsive energy:                    0.1805042123 H            4.9118 eV
Total energy:                       -5.2473067383 H         -142.7865 eV
Extrapolated to 0:                  -5.2473067383 H         -142.7865 eV
Total Mermin free energy:           -5.2473067383 H         -142.7865 eV
Force related energy:               -5.2473067383 H         -142.7865 eV

SCC converged

Excitation Energy:                   0.1798380712 H            4.8936 eV

Total Forces
    1     -0.002381748472      0.006492806833      0.064174808659
    2     -0.022244448308      0.005323952186     -0.060285906918
    3     -0.000934788696     -0.000909108659     -0.003581138325
    4      0.006623036844     -0.002633781121      0.007335632875
    5      0.015862361164      0.000310708006     -0.003848857148
    6      0.003075587469     -0.008584577246     -0.003794539142

Maximal derivative component:        0.641748E-01 au


