|===============================================================================
|
|  DFTB+ release 20.1
|
|  Copyright (C) 2006 - 2020  DFTB+ developers group
|
|===============================================================================
|
|  When publishing results obtained with DFTB+, please cite the following
|  reference:
|
|  * DFTB+, a software package for efficient approximate density functional
|    theory based atomistic simulations, J. Chem. Phys. 152, 124101 (2020).
|    [doi: 10.1063/1.5143190]
|
|  You should also cite additional publications crediting the parametrization
|  data you use. Please consult the documentation of the SK-files for the
|  references.
|
|===============================================================================

Reading input file 'dftb_in.hsd'
Parser version: 8

--------------------------------------------------------------------------------
Reading SK-files:
Done.


Processed input in HSD format written to 'dftb_pin.hsd'

Starting initialization...
--------------------------------------------------------------------------------
OpenMP threads:              1
Chosen random seed:          507637094
Mode:                        Static calculation
Self consistent charges:     Yes
SCC-tolerance:                 0.100000E-05
Max. scc iterations:                   1000
Shell resolved Hubbard:      No
Spin polarisation:           No
Nr. of up electrons:             6.000000
Nr. of down electrons:           6.000000
Periodic boundaries:         No
Electronic solver:           Relatively robust
Maximal SCC-cycles:                    1000
Initial charges:             Set automatically (system chrg:   0.100E+01)
Included shells:             C:  s, p
                             N:  s, p
                             H:  s
Spin coupling constants:     C   1(s)-1(s):  -0.455900E-01
                             C   1(s)-2(p):  -0.293000E-01
                             C   2(p)-1(s):  -0.293000E-01
                             C   2(p)-2(p):  -0.275500E-01
                             N   1(s)-1(s):  -0.468700E-01
                             N   1(s)-2(p):  -0.317000E-01
                             N   2(p)-1(s):  -0.317000E-01
                             N   2(p)-2(p):  -0.307200E-01
                             H   1(s)-1(s):  -0.792500E-01
Range separated hybrid:      Yes
  Screening parameter omega:   0.300000E+00
  Range separated algorithm:   MatrixBased
Extra options:
                             Mulliken analysis
                             Force calculation
Force type                   original
                             Eigenvector printing


REKS Calcuation:             Yes
SSR(2,2) Calcuation:         Yes
Energy Functional:           (PPS+OSS)/2
Number of Core Orbitals:                  5
Number of Active Orbitals:                2
Number of Basis:                         12
Number of States:                         2
State-Averaging Weight:          0.500000
                                 0.500000
State of Interest:                        1
Initial Guess:               Diagonalize H0 matrix
Newton-Raphson for FON opt:  Yes
NR max. Iterations:                      50
Level Shifting:              Yes
Shift Value:                     0.300000
W Scale Factor:              C  =    3.000000
                             N  =    3.000000
                             H  =    3.000000
Transition Dipole:           No
Gradient of Microstate:      No
CP-REKS Solver:              Preconditioned Conjugate-Gradient
CG max. Iterations:                     100
CG Tolerance:                  0.100000E-07
Memory for A and Hxc:        Direct Updating Without Saving
Non-Adiabatic Coupling:      Yes

--------------------------------------------------------------------------------

***  Geometry step: 0

  iSCC       reks energy        Diff energy         x_a       SCC error   
    1       -6.2622536185       0.0000000000     0.998990    1.18067055
    2       -6.2756249278      -0.0133713093     0.999607    0.10567582
    3       -6.2794581802      -0.0038332524     0.999787    0.04816884
    4       -6.2811765123      -0.0017183322     0.999859    0.02410142
    5       -6.2821086805      -0.0009321681     0.999894    0.01270413
    6       -6.2826894399      -0.0005807594     0.999912    0.00665136
    7       -6.2830829243      -0.0003934844     0.999923    0.00582548
    8       -6.2833604145      -0.0002774902     0.999929    0.00508086
    9       -6.2835590984      -0.0001986838     0.999934    0.00436729
   10       -6.2837018297      -0.0001427313     0.999937    0.00391533
   11       -6.2838041846      -0.0001023549     0.999939    0.00354082
   12       -6.2838773195      -0.0000731349     0.999940    0.00315702
   13       -6.2839293673      -0.0000520478     0.999941    0.00278333
   14       -6.2839662697      -0.0000369025     0.999942    0.00243184
   15       -6.2839923491      -0.0000260793     0.999943    0.00210923
   16       -6.2840107296      -0.0000183805     0.999943    0.00181849
   17       -6.2840236552      -0.0000129256     0.999943    0.00156007
   18       -6.2840327284      -0.0000090732     0.999944    0.00133286
   19       -6.2840390880      -0.0000063596     0.999944    0.00113479
   20       -6.2840435401      -0.0000044522     0.999944    0.00096333
   21       -6.2840466539      -0.0000031138     0.999944    0.00081574
   22       -6.2840488299      -0.0000021760     0.999944    0.00068930
   23       -6.2840503494      -0.0000015195     0.999944    0.00058140
   24       -6.2840514099      -0.0000010605     0.999944    0.00048962
   25       -6.2840521497      -0.0000007398     0.999944    0.00041179
   26       -6.2840526656      -0.0000005158     0.999944    0.00034592
   27       -6.2840530251      -0.0000003595     0.999944    0.00029031
   28       -6.2840532756      -0.0000002505     0.999944    0.00024342
   29       -6.2840534502      -0.0000001745     0.999944    0.00020396
   30       -6.2840535717      -0.0000001215     0.999944    0.00017078
   31       -6.2840536563      -0.0000000846     0.999944    0.00014292
   32       -6.2840537153      -0.0000000589     0.999944    0.00011955
   33       -6.2840537563      -0.0000000410     0.999944    0.00009996
   34       -6.2840537848      -0.0000000285     0.999944    0.00008355
   35       -6.2840538047      -0.0000000199     0.999944    0.00006981
   36       -6.2840538185      -0.0000000138     0.999944    0.00005832
   37       -6.2840538281      -0.0000000096     0.999944    0.00004871
   38       -6.2840538348      -0.0000000067     0.999944    0.00004067
   39       -6.2840538394      -0.0000000047     0.999944    0.00003395
   40       -6.2840538427      -0.0000000032     0.999944    0.00002834
   41       -6.2840538449      -0.0000000023     0.999944    0.00002365
   42       -6.2840538465      -0.0000000016     0.999944    0.00001974
   43       -6.2840538476      -0.0000000011     0.999944    0.00001647
   44       -6.2840538483      -0.0000000008     0.999944    0.00001374
   45       -6.2840538489      -0.0000000005     0.999944    0.00001147
   46       -6.2840538492      -0.0000000004     0.999944    0.00000956
   47       -6.2840538495      -0.0000000003     0.999944    0.00000798
   48       -6.2840538497      -0.0000000002     0.999944    0.00000666
   49       -6.2840538498      -0.0000000001     0.999944    0.00000555
   50       -6.2840538499      -0.0000000001     0.999944    0.00000463
   51       -6.2840538499      -0.0000000001     0.999944    0.00000386
   52       -6.2840538500      -0.0000000000     0.999944    0.00000322
   53       -6.2840538500      -0.0000000000     0.999944    0.00000269
   54       -6.2840538500      -0.0000000000     0.999944    0.00000224
   55       -6.2840538500      -0.0000000000     0.999944    0.00000187
   56       -6.2840538501      -0.0000000000     0.999944    0.00000156
   57       -6.2840538501      -0.0000000000     0.999944    0.00000130
   58       -6.2840538501      -0.0000000000     0.999944    0.00000108
   59       -6.2840538501      -0.0000000000     0.999944    0.00000090
  
--------------------------------------------------
 Final SA-REKS(2,2) energy:      -6.28405385
  
 State     Energy      FON(1)    FON(2)   Spin
  PPS   -6.40911349   1.999888  0.000112  0.00
  OSS   -6.15899421   1.000000  1.000000  0.00
 Trip   -6.24041578   1.000000  1.000000  1.00
--------------------------------------------------

 Lagrangian Wab:   0.00700335  0.00700311

--------------------------------------------------
 SSR: 2SI-2SA-REKS(2,2) Hamiltonian matrix
               PPS           OSS
   PPS    -6.40911349    0.00982986
   OSS     0.00982986   -6.15899421
--------------------------------------------------

----------------------------------------------------------------
 SSR: 2SI-2SA-REKS(2,2) states
                    E_n       C_{PPS}    C_{OSS}
 SSR state  1   -6.40949921  -0.999231   0.039210
 SSR state  2   -6.15860849  -0.039210  -0.999231
----------------------------------------------------------------

 unrelaxed SSR FONs for S0:  1.998351  0.001649

Total Energy:                       -6.4094992124 H         -174.4113 eV
Extrapolated to 0:                  -6.4094992124 H         -174.4113 eV

----------------------------------------------------------------------------------
 Solving CP-REKS equation for  1 state vector...
----------------------------------------------------------------------------------
  CG solver: Constructing Y initial guess
  CG solver: Iteration    1    eps =    0.000125249329
  CG solver: Iteration    2    eps =    0.000083643483
  CG solver: Iteration    3    eps =    0.000007170850
  CG solver: Iteration    4    eps =    0.000000942394
  CG solver: Iteration    5    eps =    0.000000012970
  CG solver: Iteration    6    eps =    0.000000005641
  Convergence reached in CG solver after    6 iterations
  CG solver: Calculating converged R, Z, Q2 matrix
----------------------------------------------------------------------------------

----------------------------------------------------------------------------------
 Solving CP-REKS equation for SI between  1 and  2 state vectors...
----------------------------------------------------------------------------------
  CG solver: Constructing Y initial guess
  CG solver: Iteration    1    eps =    0.002938257803
  CG solver: Iteration    2    eps =    0.004189322696
  CG solver: Iteration    3    eps =    0.000562634567
  CG solver: Iteration    4    eps =    0.000006806218
  CG solver: Iteration    5    eps =    0.000000936061
  CG solver: Iteration    6    eps =    0.000000021773
  CG solver: Iteration    7    eps =    0.000000001572
  Convergence reached in CG solver after    7 iterations
  CG solver: Calculating converged R, Z, Q2 matrix
----------------------------------------------------------------------------------

--------------------------------------------------
 Gradient Information
--------------------------------------------------
           1 st state (SSR)
     0.00356072    -0.00756344     0.00946717
    -0.00931851     0.00027550    -0.00336406
     0.01362808    -0.00211104    -0.00080574
     0.01796070     0.00702449    -0.00502248
    -0.01131748    -0.00213648    -0.00616123
    -0.01451351     0.00451097     0.00588633

           2 st state (SSR)
    -0.00633954    -0.00513131     0.11708810
     0.01019484     0.00140055    -0.12743346
    -0.01159478     0.00380012     0.01551493
    -0.01263405     0.00327516    -0.01232446
     0.00892777     0.00486541    -0.01365735
     0.01144576    -0.00820992     0.02081224
--------------------------------------------------
 Coupling Information
--------------------------------------------------
 between  1 and  2 states
--------------------------------------------------
 g vector - difference gradient
     0.00510418    -0.00104003    -0.05560106
    -0.01003266    -0.00054082     0.06354270
     0.01367983    -0.00279238    -0.00800992
     0.01659205     0.00162358     0.00369477
    -0.01122143    -0.00339763     0.00382387
    -0.01412197     0.00614728    -0.00745036

 h vector - derivative coupling
     0.00176560     0.00228730    -0.02066919
    -0.00312834     0.00029825     0.01675107
     0.01309773     0.00219228     0.00223391
     0.01587120    -0.00326800     0.00041375
    -0.01358227     0.00145181     0.00081735
    -0.01402393    -0.00296163     0.00045313

 G vector - GDV
     0.00495013    -0.00121607    -0.05381047
    -0.00975668    -0.00056252     0.06203470
     0.01261143    -0.00295558    -0.00816034
     0.01529737     0.00187467     0.00365099
    -0.01012263    -0.00350094     0.00374806
    -0.01297963     0.00636045    -0.00746295

 H vector - DCV - non-adiabatic coupling
     0.00860986     0.00876384    -0.09949560
    -0.01556406     0.00101621     0.08640714
     0.05631697     0.00783897     0.00637482
     0.06824705    -0.01247846     0.00279801
    -0.05747448     0.00470767     0.00444205
    -0.06013534    -0.00984823    -0.00052642
--------------------------------------------------


--------------------------------------------------------------------------------
DFTB+ running times                          cpu [s]             wall clock [s]
--------------------------------------------------------------------------------
SCC                                    +     0.03  ( 70.9%)      0.03  ( 63.8%)
Post-SCC processing                    +     0.01  ( 25.1%)      0.01  ( 23.4%)
--------------------------------------------------------------------------------
Missing                                +     0.00  (  3.9%)      0.01  ( 12.8%)
Total                                  =     0.04  (100.0%)      0.05  (100.0%)
--------------------------------------------------------------------------------
