     6
  Step:   300            Position(A)                                  Velocity(au)
C        -0.03388835     0.00534677     0.01165470     0.00000955    -0.00003964     0.00011860
N        -0.04429924    -0.04241253     1.30330772     0.00000585     0.00004561    -0.00008399
H         0.90281269    -0.04648842    -0.54504939    -0.00022144     0.00086366    -0.00027942
H         0.79216337    -0.07563214     1.88861333    -0.00023295    -0.00100111     0.00007094
H        -0.91720697    -0.11727511     1.83625245     0.00008645     0.00065372     0.00017456
H        -0.97131601     0.09528375    -0.53786716     0.00017285    -0.00067773    -0.00021207
