 Fermi distribution function

Calculation with static geometry


********************************************************************************
 iSCC Total electronic   Diff electronic      SCC error    
   10   -0.54360595E+01   -0.63060668E-13    0.95154391E-08
********************************************************************************

 Total charge:     1.00000000

 Atomic gross charges (e)
 Atom           Charge
    1       0.13604781
    2      -0.01431506
    3       0.16764219
    4       0.27119541
    5       0.27216668
    6       0.16726297

Nr. of electrons (up):     12.00000000
Atom populations (up)
 Atom       Population
    1       3.86395219
    2       5.01431506
    3       0.83235781
    4       0.72880459
    5       0.72783332
    6       0.83273703

l-shell populations (up)
 Atom Sh.   l       Population
    1   1   0       1.30119751
    1   2   1       2.56275468
    2   1   0       1.41547272
    2   2   1       3.59884234
    3   1   0       0.83235781
    4   1   0       0.72880459
    5   1   0       0.72783332
    6   1   0       0.83273703

Orbital populations (up)
 Atom Sh.   l   m       Population  Label
    1   1   0   0       1.30119751  s
    1   2   1  -1       0.62594567  p_y
    1   2   1   0       0.88144058  p_z
    1   2   1   1       1.05536843  p_x
    2   1   0   0       1.41547272  s
    2   2   1  -1       1.32239340  p_y
    2   2   1   0       1.13072352  p_z
    2   2   1   1       1.14572542  p_x
    3   1   0   0       0.83235781  s
    4   1   0   0       0.72880459  s
    5   1   0   0       0.72783332  s
    6   1   0   0       0.83273703  s

Fermi level:                        -0.4950067762 H          -13.4698 eV
Band energy:                        -8.9898507974 H         -244.6263 eV
TS:                                  0.0000000000 H            0.0000 eV
Band free energy (E-TS):            -8.9898507974 H         -244.6263 eV
Extrapolated E(0K):                 -8.9898507974 H         -244.6263 eV
Input / Output electrons (q):     12.0000000000     12.0000000000

Energy H0:                          -5.5710765901 H         -151.5967 eV
Energy SCC:                          0.1350171366 H            3.6740 eV
Total Electronic energy:            -5.4360594535 H         -147.9227 eV
Repulsive energy:                    0.2006687497 H            5.4605 eV
Total energy:                       -5.2353907038 H         -142.4622 eV
Extrapolated to 0:                  -5.2353907038 H         -142.4622 eV
Total Mermin free energy:           -5.2353907038 H         -142.4622 eV
Force related energy:               -5.2353907038 H         -142.4622 eV

SCC converged

Excitation Energy:                   0.1636347622 H            4.4527 eV

Total Forces
    1      0.002513437452      0.007175185891     -0.013791791157
    2      0.015667613301     -0.011166516145     -0.004563278634
    3     -0.004202433036     -0.000489584774      0.003404457590
    4     -0.012151359758      0.004771047973      0.002162274501
    5     -0.003870952280      0.000016606104      0.009924348477
    6      0.002043694321     -0.000306739049      0.002863989224

Maximal derivative component:        0.156676E-01 au


