     6
  Step:     0            Position(A)                                  Velocity(au)
C        -0.04238395     0.00426555     0.00225514     0.00002250     0.00000122     0.00022497
N        -0.04290503    -0.06228477     1.31020625    -0.00016145    -0.00006734    -0.00022287
H         0.94361432     0.06657606    -0.53071116     0.00051467    -0.00001396    -0.00073060
H         0.85193469    -0.07188808     1.92631153     0.00004148     0.00058934     0.00078362
H        -0.89015621     0.02536498     1.79655776     0.00151115     0.00017574     0.00002941
H        -1.01705730     0.12487223    -0.53407645    -0.00009183     0.00017015     0.00033390
     6
  Step:     1            Position(A)                                  Velocity(au)
C        -0.04224791     0.00426578     0.00317707     0.00002762    -0.00000112     0.00011140
N        -0.04371715    -0.06268936     1.30923493    -0.00013400    -0.00008087    -0.00013225
H         0.94630277     0.06661785    -0.53462468     0.00046400     0.00002918    -0.00069682
H         0.85177737    -0.06852504     1.93022017    -0.00010213     0.00064058     0.00064145
H        -0.88260919     0.02652018     1.79715591     0.00123116     0.00024939     0.00019788
H        -1.01747094     0.12593200    -0.53215768    -0.00005999     0.00021795     0.00036783
     6
  Step:     2            Position(A)                                  Velocity(au)
C        -0.04208189     0.00425335     0.00347350     0.00003345    -0.00000340    -0.00000332
N        -0.04437058    -0.06316922     1.30875987    -0.00010397    -0.00009487    -0.00004167
H         0.94868901     0.06689519    -0.53833218     0.00040500     0.00007213    -0.00065636
H         0.85081769    -0.06488214     1.93332692    -0.00025026     0.00069200     0.00049230
H        -0.87669122     0.02809255     1.79872193     0.00092094     0.00032796     0.00038113
H        -1.01771343     0.12725587    -0.53005359    -0.00002948     0.00026681     0.00040151
     6
  Step:     3            Position(A)                                  Velocity(au)
C        -0.04188224     0.00422855     0.00314078     0.00003992    -0.00000565    -0.00011842
N        -0.04485379    -0.06372652     1.30877940    -0.00007232    -0.00010923     0.00004853
H         0.95073057     0.06740638    -0.54180055     0.00033875     0.00011475    -0.00061053
H         0.84904135    -0.06095957     1.93560232    -0.00039943     0.00074340     0.00033918
H        -0.87254076     0.03010572     1.80132270     0.00059063     0.00041036     0.00057392
H        -1.01779322     0.12884901    -0.52776811    -0.00000067     0.00031663     0.00043411
     6
  Step:     4            Position(A)                                  Velocity(au)
C        -0.04164567     0.00419165     0.00217947     0.00004696    -0.00000784    -0.00023312
N        -0.04516085    -0.06436281     1.30929019    -0.00004008    -0.00012380     0.00013806
H         0.95239082     0.06814919    -0.54500394     0.00026621     0.00015696    -0.00056046
H         0.84645282    -0.05675842     1.93703341    -0.00054614     0.00079446     0.00018499
H        -0.87023692     0.03257689     1.80499364     0.00025122     0.00049525     0.00077006
H        -1.01772071     0.13071594    -0.52530971     0.00002608     0.00036722     0.00046471
     6
  Step:     5            Position(A)                                  Velocity(au)
C        -0.04136930     0.00414286     0.00059435     0.00005447    -0.00001001    -0.00034652
N        -0.04529156    -0.06507884     1.31028749    -0.00000831    -0.00013840     0.00022659
H         0.95363849     0.06912097    -0.54792270     0.00018837     0.00019864    -0.00050715
H         0.84307568    -0.05228135     1.93762306    -0.00068662     0.00084469     0.00003268
H        -0.86979653     0.03551552     1.80973434    -0.00008572     0.00058097     0.00096254
H        -1.01750836     0.13286026    -0.52269189     0.00005033     0.00041828     0.00049226
     6
  Step:     6            Position(A)                                  Velocity(au)
C        -0.04105079     0.00408236    -0.00160484     0.00006233    -0.00001214    -0.00045747
N        -0.04525155    -0.06587432     1.31176479     0.00002191    -0.00015278     0.00031359
H         0.95444799     0.07031853    -0.55054256     0.00010639     0.00023958    -0.00045153
H         0.83895419    -0.04753350     1.93739027    -0.00081668     0.00089339    -0.00011458
H        -0.87117311     0.03892169     1.81550560    -0.00040848     0.00066552     0.00114388
H        -1.01717107     0.13528401    -0.51993376     0.00007156     0.00046938     0.00051559
     6
  Step:     7            Position(A)                                  Velocity(au)
C        -0.04068851     0.00401023    -0.00440214     0.00007038    -0.00001426    -0.00056449
N        -0.04505226    -0.06674757     1.31371261     0.00004948    -0.00016663     0.00039826
H         0.95480053     0.07173771    -0.55285433     0.00002178     0.00027949    -0.00039453
H         0.83415582    -0.04252366     1.93637162    -0.00093155     0.00093962    -0.00025321
H        -0.87425804     0.04278440     1.82222795    -0.00070560     0.00074654     0.00130644
H        -1.01672679     0.13798683    -0.51706059     0.00008911     0.00051985     0.00053345
     6
  Step:     8            Position(A)                                  Velocity(au)
C        -0.04028172     0.00392654    -0.00777356     0.00007840    -0.00001636    -0.00066576
N        -0.04471080    -0.06769526     1.31611693     0.00007336    -0.00017958     0.00047942
H         0.95468601     0.07337283    -0.55485399    -0.00006356     0.00031796    -0.00033721
H         0.82877429    -0.03726536     1.93462323    -0.00102589     0.00098231    -0.00037918
H        -0.87888391     0.04707990     1.82978229    -0.00096642     0.00082144     0.00144290
H        -1.01619724     0.14096493    -0.51410425     0.00010224     0.00056887     0.00054457
     6
  Step:     9            Position(A)                                  Velocity(au)
C        -0.03983084     0.00383125    -0.01168525     0.00008615    -0.00001846    -0.00075915
N        -0.04424976    -0.06871214     1.31895721     0.00009255    -0.00019125     0.00055556
H         0.95410524     0.07521602    -0.55654321    -0.00014727     0.00035445    -0.00028072
H         0.82293304    -0.03177768     1.93222359    -0.00109397     0.00102027    -0.00048805
H        -0.88483025     0.05177057     1.83801266    -0.00118169     0.00088748     0.00154683
H        -1.01560831     0.14421001    -0.51110326     0.00011016     0.00061541     0.00054773
     6
  Step:    10            Position(A)                                  Velocity(au)
C        -0.03933770     0.00372431    -0.01609196     0.00009334    -0.00002054    -0.00084236
N        -0.04369663    -0.06979088     1.32220451     0.00010625    -0.00020123     0.00062492
H         0.95307231     0.07725672    -0.55793001    -0.00022660     0.00038837    -0.00022640
H         0.81678706    -0.02608566     1.92927542    -0.00113013     0.00105240    -0.00057529
H        -0.89183228     0.05680447     1.84673179    -0.00134421     0.00094203     0.00161322
H        -1.01499013     0.14770834    -0.50810244     0.00011216     0.00065835     0.00054192
     6
  Step:    11            Position(A)                                  Velocity(au)
C        -0.03880572     0.00360567    -0.02093623     0.00009967    -0.00002261    -0.00091315
N        -0.04308290    -0.07092209     1.32582024     0.00011386    -0.00020917     0.00068565
H         0.95161667     0.07948125    -0.55902956    -0.00029856     0.00041914    -0.00017567
H         0.81052169    -0.02022000     1.92590567    -0.00112953     0.00107775    -0.00063677
H        -0.89959268     0.06211616     1.85572937    -0.00144950     0.00098284     0.00163900
H        -1.01437652     0.15144016    -0.50515179     0.00010772     0.00069654     0.00052643
     6
  Step:    12            Position(A)                                  Velocity(au)
C        -0.03824001     0.00347526    -0.02614874     0.00010483    -0.00002467    -0.00096959
N        -0.04244268    -0.07209459     1.32975584     0.00011510    -0.00021482     0.00073606
H         0.94978420     0.08187280    -0.55986470    -0.00036015     0.00044621    -0.00012999
H         0.80434714    -0.01421609     1.92226248    -0.00108893     0.00109573    -0.00066936
H        -0.90779610     0.06762878     1.86478269    -0.00149613     0.00100827     0.00162346
H        -1.01380380     0.15537955    -0.50230465     0.00009661     0.00072894     0.00050105
     6
  Step:    13            Position(A)                                  Velocity(au)
C        -0.03764735     0.00333309    -0.03165023     0.00010856    -0.00002669    -0.00101040
N        -0.04181107    -0.07329583     1.33395371     0.00011004    -0.00021803     0.00077485
H         0.94763706     0.08441186    -0.56046596    -0.00040867     0.00046925    -0.00009073
H         0.79848902    -0.00811222     1.91850927    -0.00100728     0.00110625    -0.00067141
H        -0.91612493     0.07325756     1.87366864    -0.00148592     0.00101760     0.00156833
H        -1.01330897     0.15949498    -0.49961517     0.00007902     0.00075480     0.00046612
     6
  Step:    14            Position(A)                                  Velocity(au)
C        -0.03703597     0.00317921    -0.03735471     0.00011069    -0.00002869    -0.00103518
N        -0.04122223    -0.07451264     1.33834948     0.00009913    -0.00021885     0.00080144
H         0.94525179     0.08707713    -0.56087099    -0.00044207     0.00048823    -0.00005904
H         0.79317575    -0.00194706     1.91481612    -0.00088625     0.00110987    -0.00064321
H        -0.92427586     0.07891461     1.88217644    -0.00142382     0.00101119     0.00147775
H        -1.01292741     0.16375072    -0.49713510     0.00005557     0.00077378     0.00042261
     6
  Step:    15            Position(A)                                  Velocity(au)
C        -0.03641511     0.00301369    -0.04317457     0.00011113    -0.00003066    -0.00104471
N        -0.04070743    -0.07573217     1.34287595     0.00008316    -0.00021752     0.00081616
H         0.94271564     0.08984719    -0.56112327    -0.00045919     0.00050350    -0.00003572
H         0.78862266     0.00424363     1.91134855    -0.00073034     0.00110784    -0.00058722
H        -0.93197591     0.08451489     1.89012000    -0.00131752     0.00099062     0.00135796
H        -1.01269030     0.16810924    -0.49491042     0.00002729     0.00078617     0.00037206
     6
  Step:    16            Position(A)                                  Velocity(au)
C        -0.03579437     0.00283661    -0.04902696     0.00010994    -0.00003263    -0.00104097
N        -0.04029315    -0.07694293     1.34746828     0.00006315    -0.00021449     0.00082037
H         0.94012132     0.09270263    -0.56127008    -0.00045997     0.00051589    -0.00002113
H         0.78501580     0.01043054     1.90825523    -0.00054645     0.00110209    -0.00050785
H        -0.93899625     0.08998262     1.89734858    -0.00117666     0.00095859     0.00121662
H        -1.01262249     0.17253444    -0.49297819    -0.00000453     0.00079293     0.00031643
     6
  Step:    17            Position(A)                                  Velocity(au)
C        -0.03518306     0.00264797    -0.05484028     0.00010729    -0.00003465    -0.00102694
N        -0.03999973    -0.07813584     1.35206950     0.00004029    -0.00021034     0.00081629
H         0.93756093     0.09562854    -0.56136003    -0.00044531     0.00052664    -0.00001519
H         0.78249879     0.01659429     1.90565733    -0.00034290     0.00109503    -0.00041086
H        -0.94516223     0.09525734     1.90375412    -0.00101160     0.00091857     0.00106185
H        -1.01274102     0.17699526    -0.49136439    -0.00003851     0.00079561     0.00025774
     6
  Step:    18            Position(A)                                  Velocity(au)
C        -0.03458951     0.00244753    -0.06055938     0.00010341    -0.00003676    -0.00100603
N        -0.03984072    -0.07930503     1.35663518     0.00001570    -0.00020571     0.00080662
H         0.93512049     0.09861678    -0.56144061    -0.00041678     0.00053726    -0.00001747
H         0.78116506     0.02272767     1.90364126    -0.00012823     0.00108912    -0.00030255
H        -0.95035643     0.10029810     1.90927306    -0.00083199     0.00087430     0.00090104
H        -1.01305499     0.18146902    -0.49008383    -0.00007344     0.00079607     0.00019776
     6
  Step:    19            Position(A)                                  Velocity(au)
C        -0.03402074     0.00223476    -0.06614800     0.00009852    -0.00003905    -0.00098146
N        -0.03982323    -0.08044805     1.36113590    -0.00000963    -0.00020117     0.00079400
H         0.93287633     0.10166734    -0.56155635    -0.00037613     0.00054924    -0.00002733
H         0.78105753     0.02883593     1.90225666     0.00008980     0.00108633    -0.00018885
H        -0.95451379     0.10508447     1.91388182    -0.00064561     0.00082911     0.00073994
H        -1.01356646     0.18594312    -0.48914162    -0.00010829     0.00079612     0.00013775
     6
  Step:    20            Position(A)                                  Velocity(au)
C        -0.03348244     0.00200880    -0.07158758     0.00009280    -0.00004155    -0.00095572
N        -0.03994890    -0.08156546     1.36555690    -0.00003491    -0.00019710     0.00078053
H         0.93089413     0.10478833    -0.56174766    -0.00032494     0.00056382    -0.00004402
H         0.78217407     0.03493423     1.90151921     0.00030453     0.00108776    -0.00007490
H        -0.95761077     0.10961434     1.91758743    -0.00045798     0.00078550     0.00058235
H        -1.01427180     0.19041463    -0.48853596    -0.00014226     0.00079705     0.00007846
     6
  Step:    21            Position(A)                                  Velocity(au)
C        -0.03297935     0.00176849    -0.07687308     0.00008631    -0.00004430    -0.00093025
N        -0.04021501    -0.08265992     1.36989500    -0.00005949    -0.00019370     0.00076754
H         0.92922980     0.10799448    -0.56205032    -0.00026453     0.00058177    -0.00006674
H         0.78447500     0.04104280     1.90141609     0.00051024     0.00109335     0.00003502
H        -0.95965322     0.11389938     1.92041696    -0.00027281     0.00074508     0.00043043
H        -1.01516288     0.19488761    -0.48826117    -0.00017463     0.00079944     0.00002017
     6
  Step:    22            Position(A)                                  Velocity(au)
C        -0.03251568     0.00151255    -0.08200734     0.00007906    -0.00004730    -0.00090557
N        -0.04061530    -0.08373507     1.37415416    -0.00008278    -0.00019095     0.00075558
H         0.92793115     0.11130469    -0.56249526    -0.00019597     0.00060338    -0.00009464
H         0.78788932     0.04718092     1.90191150     0.00070165     0.00110198     0.00013732
H        -0.96066648     0.11796000     1.92240873    -0.00009271     0.00070867     0.00028537
H        -1.01622780     0.19936920    -0.48831009    -0.00020468     0.00080315    -0.00003706
     6
  Step:    23            Position(A)                                  Velocity(au)
C        -0.03209555     0.00123974    -0.08699595     0.00007103    -0.00005050    -0.00088153
N        -0.04114040    -0.08479446     1.37834122    -0.00010420    -0.00018873     0.00074461
H         0.92703913     0.11473936    -0.56310827    -0.00012039     0.00062855    -0.00012675
H         0.79231833     0.05336123     1.90295116     0.00087365     0.00111173     0.00022890
H        -0.96068962     0.12182121     1.92360700     0.00008001     0.00067665     0.00014800
H        -1.01745088     0.20386565    -0.48867542    -0.00023164     0.00080750    -0.00009320
     6
  Step:    24            Position(A)                                  Velocity(au)
C        -0.03172316     0.00094905    -0.09184359     0.00006218    -0.00005384    -0.00085767
N        -0.04177795    -0.08584093     1.38246266    -0.00012316    -0.00018684     0.00073429
H         0.92658781     0.11831820    -0.56390952    -0.00003911     0.00065690    -0.00016197
H         0.79763765     0.05958577     1.90446556     0.00102143     0.00112032     0.00030710
H        -0.95977372     0.12551016     1.92406012     0.00024295     0.00064926     0.00001920
H        -1.01881252     0.20837938    -0.48935002    -0.00025472     0.00081148    -0.00014819
     6
  Step:    25            Position(A)                                  Velocity(au)
C        -0.03140277     0.00063981    -0.09655235     0.00005253    -0.00005725    -0.00083348
N        -0.04251266    -0.08687624     1.38652284    -0.00013911    -0.00018508     0.00072414
H         0.92660336     0.12205873    -0.56491295     0.00004622     0.00068791    -0.00019908
H         0.80369941     0.06584408     1.90637295     0.00114077     0.00112541     0.00036987
H        -0.95798258     0.12905544     1.92382090     0.00039346     0.00062681    -0.00009993
H        -1.02028907     0.21290733    -0.49032663    -0.00027315     0.00081401    -0.00020191
     6
  Step:    26            Position(A)                                  Velocity(au)
C        -0.03113848     0.00031177    -0.10112138     0.00004213    -0.00006065    -0.00080853
N        -0.04332648    -0.08790111     1.39052330    -0.00015158    -0.00018329     0.00071369
H         0.92710233     0.12597561    -0.56612555     0.00013364     0.00072105    -0.00023677
H         0.81033594     0.07211315     1.90858266     0.00122840     0.00112490     0.00041583
H        -0.95539403     0.13248738     1.92294778     0.00052868     0.00060974    -0.00020809
H        -1.02185309     0.21744045    -0.49159756    -0.00028628     0.00081407    -0.00025419
     6
  Step:    27            Position(A)                                  Velocity(au)
C        -0.03093405    -0.00003488    -0.10554739     0.00003110    -0.00006395    -0.00078253
N        -0.04419905    -0.08891537     1.39446277    -0.00016018    -0.00018135     0.00070253
H         0.92809015     0.13008047    -0.56754700     0.00022097     0.00075578    -0.00027367
H         0.81736553     0.07835878     1.91099910     0.00128237     0.00111703     0.00044443
H        -0.95210092     0.13583885     1.92150591     0.00064574     0.00059867    -0.00030389
H        -1.02347402     0.22196401    -0.49315449    -0.00029364     0.00081075    -0.00030487
     6
  Step:    28            Position(A)                                  Velocity(au)
C        -0.03079259    -0.00039955    -0.10982537     0.00001956    -0.00006710    -0.00075533
N        -0.04510819    -0.08991827     1.39833749    -0.00016465    -0.00017920     0.00069033
H         0.92956017     0.13438207    -0.56916958     0.00030597     0.00079169    -0.00030850
H         0.82459952     0.08453767     1.91352605     0.00130211     0.00110045     0.00045593
H        -0.94821160     0.13914629     1.91956768     0.00074183     0.00059438    -0.00038598
H        -1.02511923     0.22645832    -0.49498861    -0.00029498     0.00080331    -0.00035389
     6
  Step:    29            Position(A)                                  Velocity(au)
C        -0.03071644    -0.00078128    -0.11394935     0.00000769    -0.00007004    -0.00072690
N        -0.04603054    -0.09090872     1.40214163    -0.00016484    -0.00017681     0.00067680
H         0.93149357     0.13888684    -0.57097860     0.00038647     0.00082845    -0.00034006
H         0.83184960     0.09059973     1.91607063     0.00128843     0.00107429     0.00045128
H        -0.94384917     0.14245048     1.91721246     0.00081452     0.00059776    -0.00045319
H        -1.02675522     0.23089964    -0.49709105    -0.00029029     0.00079117    -0.00040130
     6
  Step:    30            Position(A)                                  Velocity(au)
C        -0.03070705    -0.00117880    -0.11791298    -0.00000436    -0.00007273    -0.00069726
N        -0.04694228    -0.09188555     1.40586767    -0.00016076    -0.00017422     0.00066174
H         0.93386010     0.14359954    -0.57295314     0.00046057     0.00086589    -0.00036736
H         0.83893488     0.09649047     1.91854713     0.00124338     0.00103805     0.00043213
H        -0.93914913     0.14579705     1.91452534     0.00086194     0.00060971    -0.00050471
H        -1.02834905     0.23526108    -0.49945351    -0.00027984     0.00077393    -0.00044728
     6
  Step:    31            Position(A)                                  Velocity(au)
C        -0.03076500    -0.00159071    -0.12170984    -0.00001644    -0.00007515    -0.00066647
N        -0.04781985    -0.09284774     1.40950680    -0.00015254    -0.00017145     0.00064500
H         0.93661974     0.14852418    -0.57506730     0.00052676     0.00090403    -0.00038968
H         0.84568838     0.10215316     1.92088018     0.00116999     0.00099155     0.00040055
H        -0.93425585     0.14923656     1.91159504     0.00088300     0.00063114    -0.00054017
H        -1.02986979     0.23951350    -0.50206924    -0.00026414     0.00075132    -0.00049225
     6
  Step:    32            Position(A)                                  Velocity(au)
C        -0.03089007    -0.00201551    -0.12533347    -0.00002840    -0.00007732    -0.00063453
N        -0.04864065    -0.09379450     1.41304918    -0.00014040    -0.00016858     0.00062644
H         0.93972508     0.15366508    -0.57729180     0.00058401     0.00094309    -0.00040660
H         0.85196155     0.10753044     1.92300685     0.00107199     0.00093487     0.00035897
H        -0.92931775     0.15282417     1.90851111     0.00087752     0.00066284    -0.00055973
H        -1.03128997     0.24362630    -0.50493419    -0.00024397     0.00072318    -0.00053684
     6
  Step:    33            Position(A)                                  Velocity(au)
C        -0.03108135    -0.00245184    -0.12877701    -0.00004016    -0.00007927    -0.00060129
N        -0.04938361    -0.09472533     1.41648391    -0.00012469    -0.00016565     0.00060586
H         0.94312424     0.15902807    -0.57959586     0.00063185     0.00098350    -0.00041810
H         0.85762796     0.11256544     1.92487826     0.00095364     0.00086817     0.00031001
H        -0.92448227     0.15661908     1.90536094     0.00084619     0.00070547    -0.00056409
H        -1.03258711     0.24756805    -0.50804840    -0.00022041     0.00068944    -0.00058199
     6
  Step:    34            Position(A)                                  Velocity(au)
C        -0.03133746    -0.00289861    -0.13203219    -0.00005163    -0.00008109    -0.00056637
N        -0.05002975    -0.09563997     1.41979873    -0.00010581    -0.00016270     0.00058292
H         0.94676418     0.16462179    -0.58194962     0.00067044     0.00102592    -0.00042463
H         0.86258565     0.11720233     1.92646051     0.00081946     0.00079168     0.00025639
H        -0.91989072     0.16068347     1.90222689     0.00079057     0.00075945    -0.00055439
H        -1.03374547     0.25130708    -0.51141782    -0.00019486     0.00065018    -0.00062897
     6
  Step:    35            Position(A)                                  Velocity(au)
C        -0.03165662    -0.00335533    -0.13508752    -0.00006275    -0.00008291    -0.00052892
N        -0.05056256    -0.09653817     1.42297885    -0.00008425    -0.00015970     0.00055704
H         0.95059440     0.17045894    -0.58432711     0.00070064     0.00107116    -0.00042730
H         0.86675846     0.12138642     1.92773502     0.00067407     0.00070561     0.00020082
H        -0.91567363     0.16508099     1.89918386     0.00071302     0.00082480    -0.00053215
H        -1.03475827     0.25481241    -0.51505646    -0.00016923     0.00060568    -0.00067951
     6
  Step:    36            Position(A)                                  Velocity(au)
C        -0.03203666    -0.00382241    -0.13792558    -0.00007342    -0.00008495    -0.00048755
N        -0.05096846    -0.09741941     1.42600539    -0.00006057    -0.00015655     0.00052724
H         0.95457089     0.17655688    -0.58671067     0.00072393     0.00111996    -0.00042818
H         0.87009634     0.12506443     1.92869813     0.00052213     0.00061038     0.00014582
H        -0.91194608     0.16987358     1.89629754     0.00061663     0.00090064    -0.00049902
H        -1.03563108     0.25805574    -0.51898908    -0.00014619     0.00055686    -0.00073576
     6
  Step:    37            Position(A)                                  Velocity(au)
C        -0.03247454    -0.00430177    -0.14051928    -0.00008334    -0.00008753    -0.00044017
N        -0.05123735    -0.09828234     1.42885287    -0.00003549    -0.00015307     0.00049213
H         0.95865972     0.18293639    -0.58909746     0.00074221     0.00117236    -0.00043073
H         0.87257548     0.12818666     1.92935960     0.00036830     0.00050733     0.00009342
H        -0.90880372     0.17511504     1.89362431     0.00050513     0.00098439    -0.00045641
H        -1.03638693     0.26101633    -0.52325356    -0.00012943     0.00050603    -0.00080005
     6
  Step:    38            Position(A)                                  Velocity(au)
C        -0.03296490    -0.00479736    -0.14282832    -0.00010463    -0.00010367    -0.00043780
N        -0.05136373    -0.09912432     1.43148690    -0.00001135    -0.00016966     0.00051258
H         0.96283792     0.18961506    -0.59150826     0.00086184     0.00139662    -0.00050074
H         0.87419854     0.13071522     1.92973872     0.00024735     0.00045570     0.00005076
H        -0.90631978     0.18083806     1.89121387     0.00043582     0.00121899    -0.00046126
H        -1.03707273     0.26369212    -0.52790026    -0.00014052     0.00052169    -0.00099496
     6
  Step:    39            Position(A)                                  Velocity(au)
C        -0.03350834    -0.00538509    -0.14512131    -0.00009139    -0.00010623    -0.00039436
N        -0.05139153    -0.10005657     1.43422384     0.00000206    -0.00016607     0.00047619
H         0.96748272     0.19718105    -0.59443445     0.00079401     0.00132234    -0.00053380
H         0.87519245     0.13334946     1.92974811     0.00010823     0.00048679    -0.00004599
H        -0.90424230     0.18746377     1.88893416     0.00030958     0.00117125    -0.00036082
H        -1.03792683     0.26682463    -0.53341391    -0.00015144     0.00059321    -0.00097752
     6
  Step:    40            Position(A)                                  Velocity(au)
C        -0.03398266    -0.00598036    -0.14721996    -0.00008031    -0.00010666    -0.00036566
N        -0.05134076    -0.10097368     1.43678984     0.00001687    -0.00016403     0.00044968
H         0.97168021     0.20434091    -0.59745276     0.00070618     0.00125476    -0.00053660
H         0.87540382     0.13613624     1.92922656    -0.00003193     0.00050697    -0.00013738
H        -0.90287220     0.19388137     1.88719575     0.00018376     0.00114648    -0.00026865
H        -1.03875924     0.27029821    -0.53878613    -0.00013542     0.00064223    -0.00094904
     6
  Step:    41            Position(A)                                  Velocity(au)
C        -0.03440255    -0.00657262    -0.14919252    -0.00007168    -0.00010557    -0.00034644
N        -0.05120369    -0.10188288     1.43923048     0.00003268    -0.00016302     0.00042945
H         0.97534518     0.21115132    -0.60040881     0.00060657     0.00119763    -0.00051641
H         0.87483695     0.13899392     1.92821855    -0.00016910     0.00051308    -0.00021980
H        -0.90219638     0.20022848     1.88594304     0.00006198     0.00114380    -0.00018642
H        -1.03943454     0.27397507    -0.54398029    -0.00009951     0.00066889    -0.00091698
     6
  Step:    42            Position(A)                                  Velocity(au)
C        -0.03478043    -0.00715541    -0.15107596    -0.00006490    -0.00010357    -0.00033228
N        -0.05097701    -0.10278813     1.44156978     0.00004862    -0.00016254     0.00041246
H         0.97843149     0.21767084    -0.60320056     0.00050033     0.00114971    -0.00048137
H         0.87352166     0.14184696     1.92678012    -0.00029906     0.00050789    -0.00029207
H        -0.90218230     0.20661223     1.88512080    -0.00005229     0.00115672    -0.00011382
H        -1.03986684     0.27774311    -0.54899242    -0.00005129     0.00067852    -0.00088506
     6
  Step:    43            Position(A)                                  Velocity(au)
C        -0.03512468    -0.00772493    -0.15288952    -0.00005937    -0.00010100    -0.00032084
N        -0.05066269    -0.10369133     1.44381966     0.00006383    -0.00016231     0.00039715
H         0.98091200     0.22394324    -0.60576463     0.00039009     0.00110841    -0.00043700
H         0.87150949     0.14464488     1.92496889    -0.00041831     0.00049568    -0.00035402
H        -0.90277812     0.21309843     1.88467660    -0.00015570     0.00117856    -0.00005062
H        -1.04000515     0.28152441    -0.55382772     0.00000431     0.00067640    -0.00085409
     6
  Step:    44            Position(A)                                  Velocity(au)
C        -0.03544069    -0.00827877    -0.15464435    -0.00005463    -0.00009807    -0.00031106
N        -0.05026708    -0.10459329     1.44598683     0.00007761    -0.00016216     0.00038281
H         0.98277002     0.22999853    -0.60806083     0.00027747     0.00107163    -0.00038664
H         0.86886920     0.14735991     1.92284273    -0.00052401     0.00047998    -0.00040552
H        -0.90391403     0.21972022     1.88455781    -0.00024527     0.00120427     0.00000298
H        -1.03981889     0.28526597    -0.55849161     0.00006431     0.00066619    -0.00082393
     6