     6
  Step:   300            Position(A)                                  Velocity(au)
C        -0.04671993     0.01114314     0.02764423    -0.00000153    -0.00001859     0.00003355
N        -0.03262666    -0.05184381     1.29220894    -0.00002779     0.00001281    -0.00003724
H         0.16976683    -0.86992042    -0.58670885     0.00099978     0.00015044     0.00037041
H         0.03689006     0.77551350     1.88917899     0.00118921     0.00003983    -0.00028728
H        -0.14181418    -0.94748227     1.77827826    -0.00089316    -0.00003385    -0.00035905
H        -0.26768779     0.95976040    -0.47510522    -0.00089140    -0.00011293     0.00039359
