|===============================================================================
|
|  DFTB+ release 20.1
|
|  Copyright (C) 2006 - 2020  DFTB+ developers group
|
|===============================================================================
|
|  When publishing results obtained with DFTB+, please cite the following
|  reference:
|
|  * DFTB+, a software package for efficient approximate density functional
|    theory based atomistic simulations, J. Chem. Phys. 152, 124101 (2020).
|    [doi: 10.1063/1.5143190]
|
|  You should also cite additional publications crediting the parametrization
|  data you use. Please consult the documentation of the SK-files for the
|  references.
|
|===============================================================================

Reading input file 'dftb_in.hsd'
Parser version: 8

--------------------------------------------------------------------------------
Reading SK-files:
Done.


Processed input in HSD format written to 'dftb_pin.hsd'

Starting initialization...
--------------------------------------------------------------------------------
WARNING!
-> Excited state forces are not implemented yet for fractional occupations, kT=  0.3158E-02K
OpenMP threads:              1
Chosen random seed:          435690764
Mode:                        Static calculation
Self consistent charges:     Yes
SCC-tolerance:                 0.100000E-05
Max. scc iterations:                    100
Shell resolved Hubbard:      No
Spin polarisation:           No
Nr. of up electrons:             6.000000
Nr. of down electrons:           6.000000
Periodic boundaries:         No
Electronic solver:           Relatively robust
Mixer:                       Broyden mixer
Mixing parameter:                  0.200000
Maximal SCC-cycles:                     100
Nr. of chrg. vec. in memory:              0
Electronic temperature:        0.100000E-07 H      0.272114E-06 eV
Initial charges:             Set automatically (system chrg:   0.100E+01)
Included shells:             C:  s, p
                             N:  s, p
                             H:  s
Extra options:
                             Mulliken analysis
                             Force calculation
Force type                   original
                             Eigenvector printing

--------------------------------------------------------------------------------

***  Geometry step: 0

 iSCC Total electronic   Diff electronic      SCC error    
    1   -0.53874486E+01    0.00000000E+00    0.64366239E+00
    2   -0.53911346E+01   -0.36859749E-02    0.43657359E+00
    3   -0.53936182E+01   -0.24836502E-02    0.74720047E-01
    4   -0.53939134E+01   -0.29518043E-03    0.20292717E-01
    5   -0.53939179E+01   -0.45264932E-05    0.47006040E-02
    6   -0.53939203E+01   -0.24029467E-05    0.45405323E-03
    7   -0.53939203E+01   -0.42906985E-08    0.45128871E-04
    8   -0.53939203E+01   -0.78261841E-10    0.91669822E-05
    9   -0.53939203E+01   -0.29691805E-11    0.16154403E-05
   10   -0.53939203E+01   -0.25757174E-12    0.59335740E-07
>> Charges saved for restart in charges.bin

Total Energy:                       -5.0842469161 H         -138.3494 eV
Extrapolated to 0:                  -5.2080199839 H         -141.7174 eV
Total Mermin free energy:           -5.0842469161 H         -138.3494 eV
Force related energy:               -5.2080199839 H         -141.7174 eV

--------------------------------------------------------------------------------
DFTB+ running times                          cpu [s]             wall clock [s]
--------------------------------------------------------------------------------
SCC                                    +     0.01  ( 48.2%)      0.03  ( 58.9%)
Post-SCC processing                    +     0.01  ( 45.3%)      0.02  ( 32.1%)
--------------------------------------------------------------------------------
Missing                                +     0.00  (  6.4%)      0.01  (  8.9%)
Total                                  =     0.02  (100.0%)      0.06  (100.0%)
--------------------------------------------------------------------------------
