     6
  Step:   300            Position(A)                                  Velocity(au)
C        -0.06786453     0.01642970     0.01855535     0.00006731     0.00012887     0.00010895
N         0.00019484    -0.05801874     1.30242518    -0.00023901    -0.00001456    -0.00011952
H         0.17779117    -0.87197413    -0.55994500     0.00004719    -0.00054811     0.00097587
H        -0.01373985     0.80433727     1.85937597     0.00131947    -0.00024158     0.00013592
H        -0.25483553    -0.95797913     1.71926714     0.00125037    -0.00044583    -0.00012882
H        -0.31619714     0.96631081    -0.44672286    -0.00009778    -0.00009772    -0.00062035
