 Fermi distribution function

Calculation with static geometry


********************************************************************************
 iSCC Total electronic   Diff electronic      SCC error    
   13   -0.53282023E+01   -0.27684521E-11    0.16751243E-06
********************************************************************************

 Total charge:     1.00000000

 Atomic gross charges (e)
 Atom           Charge
    1       0.30278736
    2      -0.20737582
    3       0.16731936
    4       0.28883104
    5       0.27563244
    6       0.17280562

Nr. of electrons (up):     12.00000000
Atom populations (up)
 Atom       Population
    1       3.69721264
    2       5.20737582
    3       0.83268064
    4       0.71116896
    5       0.72436756
    6       0.82719438

l-shell populations (up)
 Atom Sh.   l       Population
    1   1   0       1.35858715
    1   2   1       2.33862549
    2   1   0       1.46095097
    2   2   1       3.74642485
    3   1   0       0.83268064
    4   1   0       0.71116896
    5   1   0       0.72436756
    6   1   0       0.82719438

Orbital populations (up)
 Atom Sh.   l   m       Population  Label
    1   1   0   0       1.35858715  s
    1   2   1  -1       0.49992517  p_y
    1   2   1   0       0.86274807  p_z
    1   2   1   1       0.97595225  p_x
    2   1   0   0       1.46095097  s
    2   2   1  -1       1.35343520  p_y
    2   2   1   0       1.07005351  p_z
    2   2   1   1       1.32293615  p_x
    3   1   0   0       0.83268064  s
    4   1   0   0       0.71116896  s
    5   1   0   0       0.72436756  s
    6   1   0   0       0.82719438  s

Fermi level:                        -0.4955357603 H          -13.4842 eV
Band energy:                        -8.7125952871 H         -237.0818 eV
TS:                                  0.0000000000 H            0.0000 eV
Band free energy (E-TS):            -8.7125952871 H         -237.0818 eV
Extrapolated E(0K):                 -8.7125952871 H         -237.0818 eV
Input / Output electrons (q):     12.0000000000     12.0000000000

Energy H0:                          -5.4600457551 H         -148.5754 eV
Energy SCC:                          0.1318434522 H            3.5876 eV
Total Electronic energy:            -5.3282023029 H         -144.9878 eV
Repulsive energy:                    0.1528200545 H            4.1584 eV
Total energy:                       -5.1753822483 H         -140.8293 eV
Extrapolated to 0:                  -5.1753822483 H         -140.8293 eV
Total Mermin free energy:           -5.1753822483 H         -140.8293 eV
Force related energy:               -5.1753822483 H         -140.8293 eV

SCC converged

Excitation Energy:                   0.1030784382 H            2.8049 eV

Total Forces
    1     -0.009745391613     -0.007210188340      0.092341016452
    2      0.022811104256     -0.007935742992     -0.087261896769
    3     -0.000216960042      0.015166328042     -0.000463353363
    4     -0.023727984250     -0.000278959918     -0.007774016153
    5      0.003017508445      0.012540571605      0.001024667735
    6      0.007861723203     -0.012282008398      0.002133582098

Maximal derivative component:        0.923410E-01 au


