    14
  Step:   600            Position(A)                                  Velocity(au)
C        -5.43190412    -0.89019747    -0.55745626     0.00002478     0.00018814    -0.00040507
C        -4.43040899    -0.69102059     0.32667798    -0.00006163    -0.00017214     0.00031152
H        -5.38027591    -0.35298397    -1.49479653     0.00097106     0.00042150    -0.00061125
H        -6.05430356    -1.75148723    -0.69384615    -0.00014822     0.00051035    -0.00053881
H        -4.14019516    -1.02754883     1.25197826    -0.00086238    -0.00115756    -0.00009579
C        -3.65768996     0.40465285    -0.06955057     0.00004031    -0.00027626     0.00098720
C        -3.18530187     1.38166987     0.79650609    -0.00061362     0.00038795    -0.00008864
H        -3.19546195     0.19497550    -1.02868912     0.00042000     0.00085897    -0.00198313
H        -3.46969602     1.45686848     1.91200937     0.00175452    -0.00181609    -0.00029713
C        -1.77693399     1.43574397     0.56748170    -0.00008190     0.00007192    -0.00062121
H        -1.33315594     1.24154123     1.50816045     0.00272299    -0.00000225    -0.00190667
N        -1.08297596     1.43096728    -0.55149451     0.00036747    -0.00020547     0.00020314
H        -0.12675269     1.10507289    -0.33182818     0.00023486     0.00187369     0.00050258
H        -0.98889263     2.33772401    -1.12054810    -0.00195271    -0.00021161    -0.00008309
