 Fermi distribution function

Calculation with static geometry


********************************************************************************
 iSCC Total electronic   Diff electronic      SCC error    
   10   -0.54322008E+01   -0.22915003E-12    0.10462333E-06
********************************************************************************

 Total charge:     1.00000000

 Atomic gross charges (e)
 Atom           Charge
    1       0.18559434
    2      -0.07204941
    3       0.17878455
    4       0.26809357
    5       0.29364659
    6       0.14593037

Nr. of electrons (up):     12.00000000
Atom populations (up)
 Atom       Population
    1       3.81440566
    2       5.07204941
    3       0.82121545
    4       0.73190643
    5       0.70635341
    6       0.85406963

l-shell populations (up)
 Atom Sh.   l       Population
    1   1   0       1.28163041
    1   2   1       2.53277525
    2   1   0       1.40545774
    2   2   1       3.66659167
    3   1   0       0.82121545
    4   1   0       0.73190643
    5   1   0       0.70635341
    6   1   0       0.85406963

Orbital populations (up)
 Atom Sh.   l   m       Population  Label
    1   1   0   0       1.28163041  s
    1   2   1  -1       0.60305633  p_y
    1   2   1   0       0.90116738  p_z
    1   2   1   1       1.02855153  p_x
    2   1   0   0       1.40545774  s
    2   2   1  -1       1.31084330  p_y
    2   2   1   0       1.12857029  p_z
    2   2   1   1       1.22717809  p_x
    3   1   0   0       0.82121545  s
    4   1   0   0       0.73190643  s
    5   1   0   0       0.70635341  s
    6   1   0   0       0.85406963  s

Fermi level:                        -0.4855250917 H          -13.2118 eV
Band energy:                        -8.9774842359 H         -244.2898 eV
TS:                                  0.0000000000 H            0.0000 eV
Band free energy (E-TS):            -8.9774842359 H         -244.2898 eV
Extrapolated E(0K):                 -8.9774842359 H         -244.2898 eV
Input / Output electrons (q):     12.0000000000     12.0000000000

Energy H0:                          -5.5670480697 H         -151.4871 eV
Energy SCC:                          0.1348472937 H            3.6694 eV
Total Electronic energy:            -5.4322007760 H         -147.8177 eV
Repulsive energy:                    0.2214702121 H            6.0265 eV
Total energy:                       -5.2107305639 H         -141.7912 eV
Extrapolated to 0:                  -5.2107305639 H         -141.7912 eV
Total Mermin free energy:           -5.2107305639 H         -141.7912 eV
Force related energy:               -5.2107305639 H         -141.7912 eV

SCC converged

Excitation Energy:                   0.1222959587 H            3.3278 eV

Total Forces
    1      0.016717259067     -0.002369030380     -0.045287477003
    2      0.000844669775     -0.006948034057      0.036347153491
    3     -0.005672874631     -0.006240741678     -0.000967098593
    4     -0.012103145612      0.011165751080      0.002163964183
    5      0.005033492495     -0.008157802655      0.006253185225
    6     -0.004819401093      0.012549857690      0.001490272697

Maximal derivative component:        0.452875E-01 au


