|===============================================================================
|
|  DFTB+ release 20.1
|
|  Copyright (C) 2006 - 2020  DFTB+ developers group
|
|===============================================================================
|
|  When publishing results obtained with DFTB+, please cite the following
|  reference:
|
|  * DFTB+, a software package for efficient approximate density functional
|    theory based atomistic simulations, J. Chem. Phys. 152, 124101 (2020).
|    [doi: 10.1063/1.5143190]
|
|  You should also cite additional publications crediting the parametrization
|  data you use. Please consult the documentation of the SK-files for the
|  references.
|
|===============================================================================

Reading input file 'dftb_in.hsd'
Parser version: 8

--------------------------------------------------------------------------------
Reading SK-files:
Done.


Processed input in HSD format written to 'dftb_pin.hsd'

Starting initialization...
--------------------------------------------------------------------------------
WARNING!
-> Excited state forces are not implemented yet for fractional occupations, kT=  0.3158E-02K
OpenMP threads:              1
Chosen random seed:          506120401
Mode:                        Static calculation
Self consistent charges:     Yes
SCC-tolerance:                 0.100000E-05
Max. scc iterations:                    100
Shell resolved Hubbard:      No
Spin polarisation:           No
Nr. of up electrons:             6.000000
Nr. of down electrons:           6.000000
Periodic boundaries:         No
Electronic solver:           Relatively robust
Mixer:                       Broyden mixer
Mixing parameter:                  0.200000
Maximal SCC-cycles:                     100
Nr. of chrg. vec. in memory:              0
Electronic temperature:        0.100000E-07 H      0.272114E-06 eV
Initial charges:             Set automatically (system chrg:   0.100E+01)
Included shells:             C:  s, p
                             N:  s, p
                             H:  s
Extra options:
                             Mulliken analysis
                             Force calculation
Force type                   original
                             Eigenvector printing

--------------------------------------------------------------------------------

***  Geometry step: 0

 iSCC Total electronic   Diff electronic      SCC error    
    1   -0.54255311E+01    0.00000000E+00    0.66607496E+00
    2   -0.54291258E+01   -0.35947349E-02    0.46204953E+00
    3   -0.54319933E+01   -0.28674211E-02    0.53849998E-01
    4   -0.54321922E+01   -0.19896265E-03    0.21880775E-01
    5   -0.54322000E+01   -0.77504913E-05    0.64981732E-02
    6   -0.54322008E+01   -0.80204526E-06    0.52525128E-03
    7   -0.54322008E+01   -0.34059546E-08    0.12753638E-03
    8   -0.54322008E+01   -0.50729465E-09    0.10273094E-04
    9   -0.54322008E+01   -0.35145220E-11    0.29448006E-05
   10   -0.54322008E+01   -0.22915003E-12    0.10462333E-06
>> Charges saved for restart in charges.bin

Total Energy:                       -5.0884346052 H         -138.4634 eV
Extrapolated to 0:                  -5.2107305639 H         -141.7912 eV
Total Mermin free energy:           -5.0884346052 H         -138.4634 eV
Force related energy:               -5.2107305639 H         -141.7912 eV

--------------------------------------------------------------------------------
DFTB+ running times                          cpu [s]             wall clock [s]
--------------------------------------------------------------------------------
SCC                                    +     0.01  ( 39.0%)      0.03  ( 49.2%)
Post-SCC processing                    +     0.01  ( 54.7%)      0.03  ( 39.7%)
--------------------------------------------------------------------------------
Missing                                +     0.00  (  6.3%)      0.01  ( 11.1%)
Total                                  =     0.02  (100.0%)      0.06  (100.0%)
--------------------------------------------------------------------------------
