     6
  Step:   300            Position(A)                                  Velocity(au)
C        -0.04394181     0.00278514     0.01376175    -0.00003168    -0.00005152     0.00007083
N        -0.04058837    -0.03784377     1.30092167     0.00000559     0.00007719    -0.00003595
H         0.90264859     0.01956515    -0.52277839    -0.00017643    -0.00049672    -0.00012867
H         0.82216325    -0.21751730     1.82356241     0.00002268     0.00033227     0.00016083
H        -0.87310197     0.00212208     1.89578270     0.00015999    -0.00099802     0.00004993
H        -0.97698632     0.01874314    -0.54655483     0.00029361     0.00070379    -0.00042653
