|===============================================================================
|
|  DFTB+ release 20.1
|
|  Copyright (C) 2006 - 2020  DFTB+ developers group
|
|===============================================================================
|
|  When publishing results obtained with DFTB+, please cite the following
|  reference:
|
|  * DFTB+, a software package for efficient approximate density functional
|    theory based atomistic simulations, J. Chem. Phys. 152, 124101 (2020).
|    [doi: 10.1063/1.5143190]
|
|  You should also cite additional publications crediting the parametrization
|  data you use. Please consult the documentation of the SK-files for the
|  references.
|
|===============================================================================

Reading input file 'dftb_in.hsd'
Parser version: 8

--------------------------------------------------------------------------------
Reading SK-files:
Done.


Processed input in HSD format written to 'dftb_pin.hsd'

Starting initialization...
--------------------------------------------------------------------------------
OpenMP threads:              1
Chosen random seed:          510962810
Mode:                        Static calculation
Self consistent charges:     Yes
SCC-tolerance:                 0.100000E-05
Max. scc iterations:                   1000
Shell resolved Hubbard:      No
Spin polarisation:           No
Nr. of up electrons:             6.000000
Nr. of down electrons:           6.000000
Periodic boundaries:         No
Electronic solver:           Relatively robust
Maximal SCC-cycles:                    1000
Initial charges:             Set automatically (system chrg:   0.100E+01)
Included shells:             C:  s, p
                             N:  s, p
                             H:  s
Spin coupling constants:     C   1(s)-1(s):  -0.455900E-01
                             C   1(s)-2(p):  -0.293000E-01
                             C   2(p)-1(s):  -0.293000E-01
                             C   2(p)-2(p):  -0.275500E-01
                             N   1(s)-1(s):  -0.468700E-01
                             N   1(s)-2(p):  -0.317000E-01
                             N   2(p)-1(s):  -0.317000E-01
                             N   2(p)-2(p):  -0.307200E-01
                             H   1(s)-1(s):  -0.792500E-01
Range separated hybrid:      Yes
  Screening parameter omega:   0.300000E+00
  Range separated algorithm:   MatrixBased
Extra options:
                             Mulliken analysis
                             Force calculation
Force type                   original
                             Eigenvector printing


REKS Calcuation:             Yes
SSR(2,2) Calcuation:         Yes
Energy Functional:           (PPS+OSS)/2
Number of Core Orbitals:                  5
Number of Active Orbitals:                2
Number of Basis:                         12
Number of States:                         2
State-Averaging Weight:          0.500000
                                 0.500000
State of Interest:                        1
Initial Guess:               Diagonalize H0 matrix
Newton-Raphson for FON opt:  Yes
NR max. Iterations:                      50
Level Shifting:              Yes
Shift Value:                     0.300000
W Scale Factor:              C  =    3.000000
                             N  =    3.000000
                             H  =    3.000000
Transition Dipole:           No
Gradient of Microstate:      No
CP-REKS Solver:              Preconditioned Conjugate-Gradient
CG max. Iterations:                     100
CG Tolerance:                  0.100000E-07
Memory for A and Hxc:        Direct Updating Without Saving
Non-Adiabatic Coupling:      Yes

--------------------------------------------------------------------------------

***  Geometry step: 0

  iSCC       reks energy        Diff energy         x_a       SCC error   
    1       -6.2630599254       0.0000000000     0.998527    1.17790640
    2       -6.2768854748      -0.0138255494     0.999463    0.11093847
    3       -6.2807687054      -0.0038832306     0.999720    0.05274447
    4       -6.2824213656      -0.0016526602     0.999819    0.02700773
    5       -6.2832758223      -0.0008544567     0.999865    0.01469467
    6       -6.2838020874      -0.0005262652     0.999888    0.00816976
    7       -6.2841703903      -0.0003683029     0.999901    0.00606300
    8       -6.2844471529      -0.0002767626     0.999909    0.00563803
    9       -6.2846620361      -0.0002148832     0.999914    0.00512851
   10       -6.2848308565      -0.0001688204     0.999918    0.00460067
   11       -6.2849636654      -0.0001328089     0.999920    0.00408716
   12       -6.2850677569      -0.0001040915     0.999922    0.00367364
   13       -6.2851488546      -0.0000810977     0.999923    0.00337632
   14       -6.2852116119      -0.0000627573     0.999924    0.00307028
   15       -6.2852598485      -0.0000482366     0.999925    0.00276748
   16       -6.2852966879      -0.0000368394     0.999926    0.00247617
   17       -6.2853246596      -0.0000279716     0.999926    0.00220173
   18       -6.2853457880      -0.0000211284     0.999926    0.00194736
   19       -6.2853616745      -0.0000158865     0.999927    0.00171459
   20       -6.2853735722      -0.0000118977     0.999927    0.00150379
   21       -6.2853824520      -0.0000088798     0.999927    0.00131450
   22       -6.2853890597      -0.0000066077     0.999927    0.00114573
   23       -6.2853939641      -0.0000049044     0.999927    0.00099613
   24       -6.2853975963      -0.0000036322     0.999927    0.00086418
   25       -6.2854002813      -0.0000026850     0.999927    0.00074831
   26       -6.2854022628      -0.0000019815     0.999927    0.00064690
   27       -6.2854037232      -0.0000014604     0.999927    0.00055844
   28       -6.2854047981      -0.0000010750     0.999927    0.00048148
   29       -6.2854055886      -0.0000007905     0.999927    0.00041467
   30       -6.2854061694      -0.0000005808     0.999927    0.00035679
   31       -6.2854065958      -0.0000004264     0.999927    0.00030673
   32       -6.2854069086      -0.0000003128     0.999927    0.00026351
   33       -6.2854071380      -0.0000002294     0.999927    0.00022623
   34       -6.2854073061      -0.0000001681     0.999927    0.00019412
   35       -6.2854074293      -0.0000001232     0.999927    0.00016649
   36       -6.2854075195      -0.0000000902     0.999927    0.00014273
   37       -6.2854075855      -0.0000000660     0.999927    0.00012232
   38       -6.2854076338      -0.0000000483     0.999927    0.00010479
   39       -6.2854076692      -0.0000000354     0.999927    0.00008975
   40       -6.2854076951      -0.0000000259     0.999927    0.00007685
   41       -6.2854077140      -0.0000000189     0.999927    0.00006578
   42       -6.2854077278      -0.0000000138     0.999927    0.00005631
   43       -6.2854077380      -0.0000000101     0.999927    0.00004818
   44       -6.2854077454      -0.0000000074     0.999927    0.00004123
   45       -6.2854077508      -0.0000000054     0.999927    0.00003527
   46       -6.2854077547      -0.0000000040     0.999927    0.00003017
   47       -6.2854077576      -0.0000000029     0.999927    0.00002581
   48       -6.2854077598      -0.0000000021     0.999927    0.00002208
   49       -6.2854077613      -0.0000000015     0.999927    0.00001888
   50       -6.2854077624      -0.0000000011     0.999927    0.00001615
   51       -6.2854077633      -0.0000000008     0.999927    0.00001381
   52       -6.2854077639      -0.0000000006     0.999927    0.00001181
   53       -6.2854077643      -0.0000000004     0.999927    0.00001009
   54       -6.2854077646      -0.0000000003     0.999927    0.00000863
   55       -6.2854077649      -0.0000000002     0.999927    0.00000738
   56       -6.2854077650      -0.0000000002     0.999927    0.00000631
   57       -6.2854077652      -0.0000000001     0.999927    0.00000539
   58       -6.2854077652      -0.0000000001     0.999927    0.00000461
   59       -6.2854077653      -0.0000000001     0.999927    0.00000394
   60       -6.2854077654      -0.0000000000     0.999927    0.00000337
   61       -6.2854077654      -0.0000000000     0.999927    0.00000288
   62       -6.2854077654      -0.0000000000     0.999927    0.00000246
   63       -6.2854077654      -0.0000000000     0.999927    0.00000211
   64       -6.2854077655      -0.0000000000     0.999927    0.00000180
   65       -6.2854077655      -0.0000000000     0.999927    0.00000154
   66       -6.2854077655      -0.0000000000     0.999927    0.00000132
   67       -6.2854077655      -0.0000000000     0.999927    0.00000112
   68       -6.2854077655      -0.0000000000     0.999927    0.00000096
  
--------------------------------------------------
 Final SA-REKS(2,2) energy:      -6.28540777
  
 State     Energy      FON(1)    FON(2)   Spin
  PPS   -6.40825929   1.999855  0.000145  0.00
  OSS   -6.16255624   1.000000  1.000000  0.00
 Trip   -6.24510008   1.000000  1.000000  1.00
--------------------------------------------------

 Lagrangian Wab:  -0.00812398 -0.00812369

--------------------------------------------------
 SSR: 2SI-2SA-REKS(2,2) Hamiltonian matrix
               PPS           OSS
   PPS    -6.40825929   -0.01139067
   OSS    -0.01139067   -6.16255624
--------------------------------------------------

----------------------------------------------------------------
 SSR: 2SI-2SA-REKS(2,2) states
                    E_n       C_{PPS}    C_{OSS}
 SSR state  1   -6.40878623  -0.998932  -0.046211
 SSR state  2   -6.16202930   0.046211  -0.998932
----------------------------------------------------------------

 unrelaxed SSR FONs for S0:  1.997719  0.002281

Total Energy:                       -6.4087862292 H         -174.3919 eV
Extrapolated to 0:                  -6.4087862292 H         -174.3919 eV

----------------------------------------------------------------------------------
 Solving CP-REKS equation for  1 state vector...
----------------------------------------------------------------------------------
  CG solver: Constructing Y initial guess
  CG solver: Iteration    1    eps =    0.000175343765
  CG solver: Iteration    2    eps =    0.000059652861
  CG solver: Iteration    3    eps =    0.000028224835
  CG solver: Iteration    4    eps =    0.000001182423
  CG solver: Iteration    5    eps =    0.000000019584
  CG solver: Iteration    6    eps =    0.000000008136
  Convergence reached in CG solver after    6 iterations
  CG solver: Calculating converged R, Z, Q2 matrix
----------------------------------------------------------------------------------

----------------------------------------------------------------------------------
 Solving CP-REKS equation for SI between  1 and  2 state vectors...
----------------------------------------------------------------------------------
  CG solver: Constructing Y initial guess
  CG solver: Iteration    1    eps =    0.004359144894
  CG solver: Iteration    2    eps =    0.007212592366
  CG solver: Iteration    3    eps =    0.000799922869
  CG solver: Iteration    4    eps =    0.000009294507
  CG solver: Iteration    5    eps =    0.000001317134
  CG solver: Iteration    6    eps =    0.000000025238
  CG solver: Iteration    7    eps =    0.000000000728
  Convergence reached in CG solver after    7 iterations
  CG solver: Calculating converged R, Z, Q2 matrix
----------------------------------------------------------------------------------

--------------------------------------------------
 Gradient Information
--------------------------------------------------
           1 st state (SSR)
    -0.00005708    -0.00244694    -0.02293215
     0.00072839    -0.00466812     0.02268844
     0.01372367     0.00243208     0.00306307
     0.01517340     0.00527700    -0.00786229
    -0.01548939    -0.00059002    -0.00345472
    -0.01407898    -0.00000400     0.00849764

           2 st state (SSR)
     0.00044463    -0.00166054     0.08546179
    -0.00122168     0.00628219    -0.09889093
    -0.01449343     0.00693004     0.01788803
    -0.01154796    -0.00218831    -0.01591637
     0.01358873     0.00232013    -0.01088824
     0.01322971    -0.01168351     0.02234572
--------------------------------------------------
 Coupling Information
--------------------------------------------------
 between  1 and  2 states
--------------------------------------------------
 g vector - difference gradient
    -0.00016995     0.00005844    -0.05774261
     0.00106487    -0.00581082     0.06373029
     0.01562148    -0.00191196    -0.00708003
     0.01513401     0.00350211     0.00416353
    -0.01631371    -0.00115841     0.00374980
    -0.01533669     0.00532064    -0.00682099

 h vector - derivative coupling
    -0.00088415    -0.00488920     0.03573352
    -0.00092384     0.00336687    -0.02890305
    -0.01566469    -0.00373885    -0.00392849
    -0.01850773     0.00265921    -0.00128583
     0.01846752    -0.00326694    -0.00018440
     0.01751289     0.00586892    -0.00143175

 G vector - GDV
    -0.00025086    -0.00039320    -0.05419697
     0.00097503    -0.00547516     0.06078969
     0.01410855    -0.00224898    -0.00741248
     0.01336068     0.00373266     0.00402704
    -0.01453906    -0.00145507     0.00371676
    -0.01365435     0.00583975    -0.00692404

 H vector - DCV - non-adiabatic coupling
    -0.00350418    -0.01975109     0.16579827
    -0.00412637     0.01576031    -0.14047579
    -0.06905585    -0.01437190    -0.01320351
    -0.08034589     0.00942030    -0.00674642
     0.08062502    -0.01274956    -0.00214709
     0.07640727     0.02169194    -0.00322546
--------------------------------------------------


--------------------------------------------------------------------------------
DFTB+ running times                          cpu [s]             wall clock [s]
--------------------------------------------------------------------------------
SCC                                    +     0.03  ( 72.2%)      0.03  ( 66.7%)
Post-SCC processing                    +     0.01  ( 24.6%)      0.01  ( 22.9%)
  Force calculation                          0.01  ( 24.2%)      0.01  ( 20.8%)
--------------------------------------------------------------------------------
Missing                                +     0.00  (  3.1%)      0.00  ( 10.4%)
Total                                  =     0.04  (100.0%)      0.05  (100.0%)
--------------------------------------------------------------------------------
