     6
  Step:   120            Position(A)                                  Velocity(au)
C        -0.03447019     0.04144235    -0.22257368    -0.00004131    -0.00011515     0.00005035
N        -0.04576493    -0.04998850     1.51353895    -0.00007523     0.00027757     0.00006386
H         0.95136868     0.00415924    -0.68956852     0.00099900     0.00067768    -0.00021835
H         0.88962629    -0.32569147     1.96115710    -0.00008232    -0.00197913    -0.00043261
H        -0.97305111    -0.13217683     1.92797175     0.00110579    -0.00089607    -0.00112654
H        -1.03416943    -0.01523847    -0.68800737    -0.00048470    -0.00028748     0.00029008
