    14
  Step:   600            Position(A)                                  Velocity(au)
C        -5.96655988    -0.78410427     0.19208132     0.00021285     0.00027282    -0.00048968
C        -4.62488946    -0.69264756     0.21995236     0.00018948    -0.00050862     0.00053150
H        -6.73073233     0.01574073     0.10566194     0.00041826     0.00118452    -0.00142356
H        -6.44643447    -1.68601743     0.54672052    -0.00083815     0.00112501     0.00072146
H        -3.77201753    -1.50635123     0.38395936     0.00145268     0.00049046     0.00142254
C        -3.94666294     0.43496255    -0.44171710    -0.00003836    -0.00055460    -0.00055434
C        -2.54451748     0.60830542    -0.44253609     0.00005748     0.00096090     0.00075243
H        -4.41623625     1.32331342    -0.72376242    -0.00067725    -0.00126431     0.00038128
H        -2.11995164    -0.42540626    -0.40081954    -0.00067204     0.00273973    -0.00050227
C        -1.87254577     1.68903316     0.19585028     0.00020387     0.00018819     0.00036473
H        -2.40075523     2.48245954     0.61175164    -0.00324162    -0.00021541     0.00126185
N        -0.57286794     1.73514265     0.46293242    -0.00030684    -0.00028727    -0.00064429
H        -0.37419502     2.19108147     1.35737083     0.00273196    -0.00160098    -0.00070553
H         0.11836103     1.17295926    -0.00693674    -0.00236123    -0.00274119     0.00059267
