 Fermi distribution function

Calculation with static geometry


********************************************************************************
 iSCC Total electronic   Diff electronic      SCC error    
   10   -0.54283149E+01   -0.17408297E-12    0.29400525E-06
********************************************************************************

 Total charge:     1.00000000

 Atomic gross charges (e)
 Atom           Charge
    1       0.21125681
    2      -0.10200679
    3       0.13950416
    4       0.29478288
    5       0.27889660
    6       0.17756635

Nr. of electrons (up):     12.00000000
Atom populations (up)
 Atom       Population
    1       3.78874319
    2       5.10200679
    3       0.86049584
    4       0.70521712
    5       0.72110340
    6       0.82243365

l-shell populations (up)
 Atom Sh.   l       Population
    1   1   0       1.28267319
    1   2   1       2.50607000
    2   1   0       1.39921869
    2   2   1       3.70278810
    3   1   0       0.86049584
    4   1   0       0.70521712
    5   1   0       0.72110340
    6   1   0       0.82243365

Orbital populations (up)
 Atom Sh.   l   m       Population  Label
    1   1   0   0       1.28267319  s
    1   2   1  -1       0.57984685  p_y
    1   2   1   0       0.89873473  p_z
    1   2   1   1       1.02748843  p_x
    2   1   0   0       1.39921869  s
    2   2   1  -1       1.30451195  p_y
    2   2   1   0       1.10477021  p_z
    2   2   1   1       1.29350594  p_x
    3   1   0   0       0.86049584  s
    4   1   0   0       0.70521712  s
    5   1   0   0       0.72110340  s
    6   1   0   0       0.82243365  s

Fermi level:                        -0.4812684140 H          -13.0960 eV
Band energy:                        -8.9454940280 H         -243.4193 eV
TS:                                  0.0000000000 H            0.0000 eV
Band free energy (E-TS):            -8.9454940280 H         -243.4193 eV
Extrapolated E(0K):                 -8.9454940280 H         -243.4193 eV
Input / Output electrons (q):     12.0000000000     12.0000000000

Energy H0:                          -5.5616941456 H         -151.3414 eV
Energy SCC:                          0.1333792628 H            3.6294 eV
Total Electronic energy:            -5.4283148828 H         -147.7120 eV
Repulsive energy:                    0.2214199554 H            6.0251 eV
Total energy:                       -5.2068949274 H         -141.6868 eV
Extrapolated to 0:                  -5.2068949274 H         -141.6868 eV
Total Mermin free energy:           -5.2068949274 H         -141.6868 eV
Force related energy:               -5.2068949274 H         -141.6868 eV

SCC converged

Excitation Energy:                   0.1102440097 H            2.9999 eV

Total Forces
    1     -0.013728598066     -0.006389937657     -0.043704598808
    2      0.007537149980     -0.005802258088      0.029946372552
    3      0.002273763490      0.013075013272      0.003425917781
    4     -0.011357983182     -0.005481514876      0.000502511068
    5      0.007171923690      0.010174339014      0.006717932835
    6      0.008103744088     -0.005575641665      0.003111864573

Maximal derivative component:        0.437046E-01 au


