 Fermi distribution function

Calculation with static geometry


********************************************************************************
 iSCC Total electronic   Diff electronic      SCC error    
   13   -0.53059740E+01   -0.43298698E-11    0.87324094E-07
********************************************************************************

 Total charge:     1.00000000

 Atomic gross charges (e)
 Atom           Charge
    1       0.28797072
    2      -0.21085114
    3       0.17205185
    4       0.28655942
    5       0.28314998
    6       0.18111918

Nr. of electrons (up):     12.00000000
Atom populations (up)
 Atom       Population
    1       3.71202928
    2       5.21085114
    3       0.82794815
    4       0.71344058
    5       0.71685002
    6       0.81888082

l-shell populations (up)
 Atom Sh.   l       Population
    1   1   0       1.38575131
    1   2   1       2.32627797
    2   1   0       1.46863345
    2   2   1       3.74221769
    3   1   0       0.82794815
    4   1   0       0.71344058
    5   1   0       0.71685002
    6   1   0       0.81888082

Orbital populations (up)
 Atom Sh.   l   m       Population  Label
    1   1   0   0       1.38575131  s
    1   2   1  -1       0.53948761  p_y
    1   2   1   0       0.84653513  p_z
    1   2   1   1       0.94025523  p_x
    2   1   0   0       1.46863345  s
    2   2   1  -1       1.43551520  p_y
    2   2   1   0       1.04552031  p_z
    2   2   1   1       1.26118218  p_x
    3   1   0   0       0.82794815  s
    4   1   0   0       0.71344058  s
    5   1   0   0       0.71685002  s
    6   1   0   0       0.81888082  s

Fermi level:                        -0.4926325864 H          -13.4052 eV
Band energy:                        -8.6486137034 H         -235.3408 eV
TS:                                  0.0000000000 H            0.0000 eV
Band free energy (E-TS):            -8.6486137034 H         -235.3408 eV
Extrapolated E(0K):                 -8.6486137034 H         -235.3408 eV
Input / Output electrons (q):     12.0000000000     12.0000000000

Energy H0:                          -5.4359761869 H         -147.9204 eV
Energy SCC:                          0.1300021668 H            3.5375 eV
Total Electronic energy:            -5.3059740201 H         -144.3829 eV
Repulsive energy:                    0.1424297064 H            3.8757 eV
Total energy:                       -5.1635443137 H         -140.5072 eV
Extrapolated to 0:                  -5.1635443137 H         -140.5072 eV
Total Mermin free energy:           -5.1635443137 H         -140.5072 eV
Force related energy:               -5.1635443137 H         -140.5072 eV

SCC converged

Excitation Energy:                   0.1064860674 H            2.8976 eV

Total Forces
    1      0.005961727468     -0.006939176334      0.083084391635
    2      0.024873365442      0.015206424322     -0.087801191349
    3     -0.014144134494     -0.009472814883      0.003462345299
    4     -0.028058987951      0.003420841151     -0.006863805739
    5      0.003012973354     -0.013618554735      0.005154161680
    6      0.008355056182      0.011403280479      0.002964098474

Maximal derivative component:        0.878012E-01 au


