 Fermi distribution function

Calculation with static geometry


********************************************************************************
 iSCC Total electronic   Diff electronic      SCC error    
   13   -0.52691032E+01   -0.51925308E-09    0.63742354E-08
********************************************************************************

 Total charge:     1.00000000

 Atomic gross charges (e)
 Atom           Charge
    1       0.30577676
    2      -0.19333444
    3       0.17805418
    4       0.25571379
    5       0.26783214
    6       0.18595758

Nr. of electrons (up):     12.00000000
Atom populations (up)
 Atom       Population
    1       3.69422324
    2       5.19333444
    3       0.82194582
    4       0.74428621
    5       0.73216786
    6       0.81404242

l-shell populations (up)
 Atom Sh.   l       Population
    1   1   0       1.41113395
    1   2   1       2.28308929
    2   1   0       1.52750494
    2   2   1       3.66582951
    3   1   0       0.82194582
    4   1   0       0.74428621
    5   1   0       0.73216786
    6   1   0       0.81404242

Orbital populations (up)
 Atom Sh.   l   m       Population  Label
    1   1   0   0       1.41113395  s
    1   2   1  -1       0.42954950  p_y
    1   2   1   0       0.86877613  p_z
    1   2   1   1       0.98476366  p_x
    2   1   0   0       1.52750494  s
    2   2   1  -1       1.39063006  p_y
    2   2   1   0       1.09226760  p_z
    2   2   1   1       1.18293185  p_x
    3   1   0   0       0.82194582  s
    4   1   0   0       0.74428621  s
    5   1   0   0       0.73216786  s
    6   1   0   0       0.81404242  s

Fermi level:                        -0.5157572589 H          -14.0345 eV
Band energy:                        -8.6464753581 H         -235.2826 eV
TS:                                  0.0000000000 H            0.0000 eV
Band free energy (E-TS):            -8.6464753581 H         -235.2826 eV
Extrapolated E(0K):                 -8.6464753581 H         -235.2826 eV
Input / Output electrons (q):     12.0000000000     12.0000000000

Energy H0:                          -5.4046698677 H         -147.0685 eV
Energy SCC:                          0.1355666647 H            3.6890 eV
Total Electronic energy:            -5.2691032030 H         -143.3796 eV
Repulsive energy:                    0.1354190536 H            3.6849 eV
Total energy:                       -5.1336841494 H         -139.6947 eV
Extrapolated to 0:                  -5.1336841494 H         -139.6947 eV
Total Mermin free energy:           -5.1336841494 H         -139.6947 eV
Force related energy:               -5.1336841494 H         -139.6947 eV

SCC converged

Excitation Energy:                   0.1025330896 H            2.7901 eV

Total Forces
    1     -0.005606562266      0.000350106629      0.030236827399
    2      0.007605971708     -0.006701594442     -0.027551855082
    3      0.000399872835     -0.009493295674      0.000382938472
    4     -0.004601051093      0.013333160324      0.002017226970
    5      0.001860709971     -0.006085129924     -0.004234570807
    6      0.000341058845      0.008596753088     -0.000850566952

Maximal derivative component:        0.302368E-01 au


