 Fermi distribution function

Calculation with static geometry


********************************************************************************
 iSCC Total electronic   Diff electronic      SCC error    
   10   -0.53964214E+01   -0.33484326E-12    0.23452654E-06
********************************************************************************

 Total charge:     1.00000000

 Atomic gross charges (e)
 Atom           Charge
    1       0.17874874
    2      -0.07433045
    3       0.14546850
    4       0.28559978
    5       0.27074061
    6       0.19377282

Nr. of electrons (up):     12.00000000
Atom populations (up)
 Atom       Population
    1       3.82125126
    2       5.07433045
    3       0.85453150
    4       0.71440022
    5       0.72925939
    6       0.80622718

l-shell populations (up)
 Atom Sh.   l       Population
    1   1   0       1.31482747
    1   2   1       2.50642379
    2   1   0       1.42436134
    2   2   1       3.64996911
    3   1   0       0.85453150
    4   1   0       0.71440022
    5   1   0       0.72925939
    6   1   0       0.80622718

Orbital populations (up)
 Atom Sh.   l   m       Population  Label
    1   1   0   0       1.31482747  s
    1   2   1  -1       0.59942089  p_y
    1   2   1   0       0.87869084  p_z
    1   2   1   1       1.02831206  p_x
    2   1   0   0       1.42436134  s
    2   2   1  -1       1.34576675  p_y
    2   2   1   0       1.09881043  p_z
    2   2   1   1       1.20539194  p_x
    3   1   0   0       0.85453150  s
    4   1   0   0       0.71440022  s
    5   1   0   0       0.72925939  s
    6   1   0   0       0.80622718  s

Fermi level:                        -0.4950597453 H          -13.4713 eV
Band energy:                        -8.9025489864 H         -242.2507 eV
TS:                                  0.0000000000 H            0.0000 eV
Band free energy (E-TS):            -8.9025489864 H         -242.2507 eV
Extrapolated E(0K):                 -8.9025489864 H         -242.2507 eV
Input / Output electrons (q):     12.0000000000     12.0000000000

Energy H0:                          -5.5296421036 H         -150.4692 eV
Energy SCC:                          0.1332206626 H            3.6251 eV
Total Electronic energy:            -5.3964214410 H         -146.8441 eV
Repulsive energy:                    0.1837770191 H            5.0008 eV
Total energy:                       -5.2126444219 H         -141.8433 eV
Extrapolated to 0:                  -5.2126444219 H         -141.8433 eV
Total Mermin free energy:           -5.2126444219 H         -141.8433 eV
Force related energy:               -5.2126444219 H         -141.8433 eV

SCC converged

Excitation Energy:                   0.1270601960 H            3.4575 eV

Total Forces
    1     -0.007176655873      0.008286792415      0.045024582755
    2      0.000924401141      0.004140389316     -0.044670569488
    3      0.000509519525     -0.008966240741     -0.002206772817
    4     -0.011677883082      0.003596700378     -0.002928702282
    5      0.008441908796     -0.009419609533      0.003244564218
    6      0.008978709494      0.002361968164      0.001536897614

Maximal derivative component:        0.450246E-01 au


