|===============================================================================
|
|  DFTB+ release 20.1
|
|  Copyright (C) 2006 - 2020  DFTB+ developers group
|
|===============================================================================
|
|  When publishing results obtained with DFTB+, please cite the following
|  reference:
|
|  * DFTB+, a software package for efficient approximate density functional
|    theory based atomistic simulations, J. Chem. Phys. 152, 124101 (2020).
|    [doi: 10.1063/1.5143190]
|
|  You should also cite additional publications crediting the parametrization
|  data you use. Please consult the documentation of the SK-files for the
|  references.
|
|===============================================================================

Reading input file 'dftb_in.hsd'
Parser version: 8

--------------------------------------------------------------------------------
Reading SK-files:
Done.


Processed input in HSD format written to 'dftb_pin.hsd'

Starting initialization...
--------------------------------------------------------------------------------
WARNING!
-> Excited state forces are not implemented yet for fractional occupations, kT=  0.3158E-02K
OpenMP threads:              1
Chosen random seed:          508437006
Mode:                        Static calculation
Self consistent charges:     Yes
SCC-tolerance:                 0.100000E-05
Max. scc iterations:                    100
Shell resolved Hubbard:      No
Spin polarisation:           No
Nr. of up electrons:             6.000000
Nr. of down electrons:           6.000000
Periodic boundaries:         No
Electronic solver:           Relatively robust
Mixer:                       Broyden mixer
Mixing parameter:                  0.200000
Maximal SCC-cycles:                     100
Nr. of chrg. vec. in memory:              0
Electronic temperature:        0.100000E-07 H      0.272114E-06 eV
Initial charges:             Set automatically (system chrg:   0.100E+01)
Included shells:             C:  s, p
                             N:  s, p
                             H:  s
Extra options:
                             Mulliken analysis
                             Force calculation
Force type                   original
                             Eigenvector printing

--------------------------------------------------------------------------------

***  Geometry step: 0

 iSCC Total electronic   Diff electronic      SCC error    
    1   -0.53885301E+01    0.00000000E+00    0.69705312E+00
    2   -0.53931025E+01   -0.45723665E-02    0.46932319E+00
    3   -0.53960602E+01   -0.29577344E-02    0.85400037E-01
    4   -0.53963883E+01   -0.32805805E-03    0.33213767E-01
    5   -0.53964205E+01   -0.32180188E-04    0.65516422E-02
    6   -0.53964214E+01   -0.95938592E-06    0.11383085E-02
    7   -0.53964214E+01   -0.27240653E-07    0.11448328E-03
    8   -0.53964214E+01   -0.46970428E-09    0.29006320E-04
    9   -0.53964214E+01   -0.35799808E-10    0.33193246E-05
   10   -0.53964214E+01   -0.33484326E-12    0.23452654E-06
>> Charges saved for restart in charges.bin

Total Energy:                       -5.0855842260 H         -138.3858 eV
Extrapolated to 0:                  -5.2126444219 H         -141.8433 eV
Total Mermin free energy:           -5.0855842260 H         -138.3858 eV
Force related energy:               -5.2126444219 H         -141.8433 eV

--------------------------------------------------------------------------------
DFTB+ running times                          cpu [s]             wall clock [s]
--------------------------------------------------------------------------------
SCC                                    +     0.01  ( 48.0%)      0.04  ( 66.7%)
Post-SCC processing                    +     0.01  ( 45.1%)      0.02  ( 28.3%)
--------------------------------------------------------------------------------
Missing                                +     0.00  (  6.9%)      0.00  (  5.0%)
Total                                  =     0.02  (100.0%)      0.06  (100.0%)
--------------------------------------------------------------------------------
