|===============================================================================
|
|  DFTB+ release 20.1
|
|  Copyright (C) 2006 - 2020  DFTB+ developers group
|
|===============================================================================
|
|  When publishing results obtained with DFTB+, please cite the following
|  reference:
|
|  * DFTB+, a software package for efficient approximate density functional
|    theory based atomistic simulations, J. Chem. Phys. 152, 124101 (2020).
|    [doi: 10.1063/1.5143190]
|
|  You should also cite additional publications crediting the parametrization
|  data you use. Please consult the documentation of the SK-files for the
|  references.
|
|===============================================================================

Reading input file 'dftb_in.hsd'
Parser version: 8

--------------------------------------------------------------------------------
Reading SK-files:
Done.


Processed input in HSD format written to 'dftb_pin.hsd'

Starting initialization...
--------------------------------------------------------------------------------
OpenMP threads:              1
Chosen random seed:          509978825
Mode:                        Static calculation
Self consistent charges:     Yes
SCC-tolerance:                 0.100000E-05
Max. scc iterations:                   1000
Shell resolved Hubbard:      No
Spin polarisation:           No
Nr. of up electrons:             6.000000
Nr. of down electrons:           6.000000
Periodic boundaries:         No
Electronic solver:           Relatively robust
Maximal SCC-cycles:                    1000
Initial charges:             Set automatically (system chrg:   0.100E+01)
Included shells:             C:  s, p
                             N:  s, p
                             H:  s
Spin coupling constants:     C   1(s)-1(s):  -0.455900E-01
                             C   1(s)-2(p):  -0.293000E-01
                             C   2(p)-1(s):  -0.293000E-01
                             C   2(p)-2(p):  -0.275500E-01
                             N   1(s)-1(s):  -0.468700E-01
                             N   1(s)-2(p):  -0.317000E-01
                             N   2(p)-1(s):  -0.317000E-01
                             N   2(p)-2(p):  -0.307200E-01
                             H   1(s)-1(s):  -0.792500E-01
Range separated hybrid:      Yes
  Screening parameter omega:   0.300000E+00
  Range separated algorithm:   MatrixBased
Extra options:
                             Mulliken analysis
                             Force calculation
Force type                   original
                             Eigenvector printing


REKS Calcuation:             Yes
SSR(2,2) Calcuation:         Yes
Energy Functional:           (PPS+OSS)/2
Number of Core Orbitals:                  5
Number of Active Orbitals:                2
Number of Basis:                         12
Number of States:                         2
State-Averaging Weight:          0.500000
                                 0.500000
State of Interest:                        1
Initial Guess:               Diagonalize H0 matrix
Newton-Raphson for FON opt:  Yes
NR max. Iterations:                      50
Level Shifting:              Yes
Shift Value:                     0.300000
W Scale Factor:              C  =    3.000000
                             N  =    3.000000
                             H  =    3.000000
Transition Dipole:           No
Gradient of Microstate:      No
CP-REKS Solver:              Preconditioned Conjugate-Gradient
CG max. Iterations:                     100
CG Tolerance:                  0.100000E-07
Memory for A and Hxc:        Direct Updating Without Saving
Non-Adiabatic Coupling:      Yes

--------------------------------------------------------------------------------

***  Geometry step: 0

  iSCC       reks energy        Diff energy         x_a       SCC error   
    1       -6.2650843032       0.0000000000     0.998917    1.18756033
    2       -6.2775858043      -0.0125015011     0.999569    0.09865458
    3       -6.2810488914      -0.0034630871     0.999762    0.04390745
    4       -6.2825341061      -0.0014852147     0.999841    0.02211177
    5       -6.2833008638      -0.0007667577     0.999878    0.01196595
    6       -6.2837602917      -0.0004594279     0.999897    0.00660281
    7       -6.2840652729      -0.0003049812     0.999908    0.00483308
    8       -6.2842798445      -0.0002145716     0.999915    0.00433657
    9       -6.2844353573      -0.0001555129     0.999919    0.00383448
   10       -6.2845496737      -0.0001143164     0.999922    0.00336013
   11       -6.2846342150      -0.0000845412     0.999924    0.00308195
   12       -6.2846968482      -0.0000626332     0.999925    0.00281481
   13       -6.2847432317      -0.0000463835     0.999926    0.00254094
   14       -6.2847775300      -0.0000342983     0.999927    0.00227217
   15       -6.2848028418      -0.0000253118     0.999927    0.00201623
   16       -6.2848214820      -0.0000186402     0.999927    0.00177777
   17       -6.2848351803      -0.0000136984     0.999927    0.00155924
   18       -6.2848452273      -0.0000100469     0.999927    0.00136151
   19       -6.2848525828      -0.0000073556     0.999927    0.00118440
   20       -6.2848579593      -0.0000053765     0.999927    0.00102706
   21       -6.2848618835      -0.0000039242     0.999927    0.00088821
   22       -6.2848647440      -0.0000028605     0.999927    0.00076634
   23       -6.2848668268      -0.0000020828     0.999927    0.00065988
   24       -6.2848683419      -0.0000015150     0.999927    0.00056723
   25       -6.2848694430      -0.0000011011     0.999927    0.00048687
   26       -6.2848702426      -0.0000007996     0.999927    0.00041736
   27       -6.2848708229      -0.0000005803     0.999927    0.00035737
   28       -6.2848712439      -0.0000004209     0.999927    0.00030572
   29       -6.2848715490      -0.0000003052     0.999927    0.00026131
   30       -6.2848717701      -0.0000002211     0.999927    0.00022319
   31       -6.2848719303      -0.0000001602     0.999927    0.00019051
   32       -6.2848720463      -0.0000001160     0.999927    0.00016253
   33       -6.2848721303      -0.0000000840     0.999927    0.00013860
   34       -6.2848721910      -0.0000000608     0.999927    0.00011814
   35       -6.2848722350      -0.0000000440     0.999927    0.00010066
   36       -6.2848722668      -0.0000000318     0.999927    0.00008574
   37       -6.2848722898      -0.0000000230     0.999927    0.00007302
   38       -6.2848723065      -0.0000000166     0.999927    0.00006217
   39       -6.2848723185      -0.0000000120     0.999927    0.00005292
   40       -6.2848723272      -0.0000000087     0.999927    0.00004503
   41       -6.2848723335      -0.0000000063     0.999927    0.00003832
   42       -6.2848723381      -0.0000000045     0.999927    0.00003260
   43       -6.2848723413      -0.0000000033     0.999927    0.00002774
   44       -6.2848723437      -0.0000000024     0.999927    0.00002359
   45       -6.2848723454      -0.0000000017     0.999927    0.00002007
   46       -6.2848723467      -0.0000000012     0.999927    0.00001707
   47       -6.2848723476      -0.0000000009     0.999927    0.00001452
   48       -6.2848723482      -0.0000000006     0.999927    0.00001234
   49       -6.2848723487      -0.0000000005     0.999927    0.00001050
   50       -6.2848723490      -0.0000000003     0.999927    0.00000893
   51       -6.2848723493      -0.0000000002     0.999927    0.00000759
   52       -6.2848723495      -0.0000000002     0.999927    0.00000645
   53       -6.2848723496      -0.0000000001     0.999927    0.00000549
   54       -6.2848723497      -0.0000000001     0.999927    0.00000466
   55       -6.2848723497      -0.0000000001     0.999927    0.00000397
   56       -6.2848723498      -0.0000000000     0.999927    0.00000337
   57       -6.2848723498      -0.0000000000     0.999927    0.00000287
   58       -6.2848723498      -0.0000000000     0.999927    0.00000244
   59       -6.2848723499      -0.0000000000     0.999927    0.00000207
   60       -6.2848723499      -0.0000000000     0.999927    0.00000176
   61       -6.2848723499      -0.0000000000     0.999927    0.00000150
   62       -6.2848723499      -0.0000000000     0.999927    0.00000127
   63       -6.2848723499      -0.0000000000     0.999927    0.00000108
   64       -6.2848723499      -0.0000000000     0.999927    0.00000092
  
--------------------------------------------------
 Final SA-REKS(2,2) energy:      -6.28487235
  
 State     Energy      FON(1)    FON(2)   Spin
  PPS   -6.40566417   1.999854  0.000146  0.00
  OSS   -6.16408053   1.000000  1.000000  0.00
 Trip   -6.24553549   1.000000  1.000000  1.00
--------------------------------------------------

 Lagrangian Wab:  -0.00841855 -0.00841827

--------------------------------------------------
 SSR: 2SI-2SA-REKS(2,2) Hamiltonian matrix
               PPS           OSS
   PPS    -6.40566417   -0.01180340
   OSS    -0.01180340   -6.16408053
--------------------------------------------------

----------------------------------------------------------------
 SSR: 2SI-2SA-REKS(2,2) states
                    E_n       C_{PPS}    C_{OSS}
 SSR state  1   -6.40623949  -0.998814  -0.048685
 SSR state  2   -6.16350520   0.048685  -0.998814
----------------------------------------------------------------

 unrelaxed SSR FONs for S0:  1.997484  0.002516

Total Energy:                       -6.4062394950 H         -174.3226 eV
Extrapolated to 0:                  -6.4062394950 H         -174.3226 eV

----------------------------------------------------------------------------------
 Solving CP-REKS equation for  1 state vector...
----------------------------------------------------------------------------------
  CG solver: Constructing Y initial guess
  CG solver: Iteration    1    eps =    0.000189743334
  CG solver: Iteration    2    eps =    0.000053888653
  CG solver: Iteration    3    eps =    0.000024116643
  CG solver: Iteration    4    eps =    0.000001086912
  CG solver: Iteration    5    eps =    0.000000029261
  CG solver: Iteration    6    eps =    0.000000012609
  CG solver: Iteration    7    eps =    0.000000000310
  Convergence reached in CG solver after    7 iterations
  CG solver: Calculating converged R, Z, Q2 matrix
----------------------------------------------------------------------------------

----------------------------------------------------------------------------------
 Solving CP-REKS equation for SI between  1 and  2 state vectors...
----------------------------------------------------------------------------------
  CG solver: Constructing Y initial guess
  CG solver: Iteration    1    eps =    0.004542356811
  CG solver: Iteration    2    eps =    0.007140482461
  CG solver: Iteration    3    eps =    0.000667827013
  CG solver: Iteration    4    eps =    0.000011968584
  CG solver: Iteration    5    eps =    0.000001766170
  CG solver: Iteration    6    eps =    0.000000040471
  CG solver: Iteration    7    eps =    0.000000003615
  Convergence reached in CG solver after    7 iterations
  CG solver: Calculating converged R, Z, Q2 matrix
----------------------------------------------------------------------------------

--------------------------------------------------
 Gradient Information
--------------------------------------------------
           1 st state (SSR)
    -0.01219748    -0.01054779    -0.00102073
    -0.00447933     0.02482910     0.00537431
    -0.00476171    -0.01192295     0.00618214
     0.00618955     0.00582717     0.00022454
     0.00694124    -0.02150321    -0.01044785
     0.00830773     0.01331769    -0.00031240

           2 st state (SSR)
     0.00019960     0.00758305     0.10343169
     0.00563519    -0.02081639    -0.11724554
    -0.01764101     0.01336852     0.02228719
    -0.00320139    -0.00529595    -0.01071925
     0.00376077     0.02190078    -0.01302522
     0.01124684    -0.01674001     0.01527113
--------------------------------------------------
 Coupling Information
--------------------------------------------------
 between  1 and  2 states
--------------------------------------------------
 g vector - difference gradient
    -0.00578904    -0.00883608    -0.05583494
    -0.00578211     0.02387080     0.06426320
     0.00588938    -0.01460538    -0.00788821
     0.00471126     0.00697143     0.00584039
     0.00221431    -0.02389544     0.00104660
    -0.00124381     0.01649467    -0.00742703

 h vector - derivative coupling
    -0.00449283    -0.00278882     0.03438481
     0.00717138    -0.00961300    -0.02723432
     0.00594515     0.01943793    -0.00207406
     0.00006722    -0.01415706    -0.00350434
    -0.00630909     0.02138915     0.00254028
    -0.00238182    -0.01426820    -0.00411237

 G vector - GDV
    -0.00619854    -0.00906542    -0.05222621
    -0.00505726     0.02282274     0.06130993
     0.00643965    -0.01264574    -0.00805253
     0.00469547     0.00556156     0.00547190
     0.00159023    -0.02170199     0.00128869
    -0.00146955     0.01502885    -0.00779177

 H vector - DCV - non-adiabatic coupling
    -0.01610210    -0.00789446     0.16335543
     0.03172075    -0.04897931    -0.13741384
     0.02201667     0.08555123    -0.00534358
    -0.00161198    -0.06083998    -0.01670849
    -0.02675574     0.09727377     0.00999632
    -0.00926760    -0.06511126    -0.01388583
--------------------------------------------------


--------------------------------------------------------------------------------
DFTB+ running times                          cpu [s]             wall clock [s]
--------------------------------------------------------------------------------
SCC                                    +     0.03  ( 71.4%)      0.03  ( 67.4%)
Post-SCC processing                    +     0.01  ( 25.3%)      0.01  ( 26.1%)
  Force calculation                          0.01  ( 24.8%)      0.01  ( 21.7%)
--------------------------------------------------------------------------------
Missing                                +     0.00  (  3.3%)      0.00  (  6.5%)
Total                                  =     0.04  (100.0%)      0.05  (100.0%)
--------------------------------------------------------------------------------
