 Fermi distribution function

Calculation with static geometry


********************************************************************************
 iSCC Total electronic   Diff electronic      SCC error    
    9   -0.54034394E+01   -0.39612758E-12    0.15690893E-06
********************************************************************************

 Total charge:     1.00000000

 Atomic gross charges (e)
 Atom           Charge
    1       0.14140097
    2      -0.02945663
    3       0.16623685
    4       0.27425065
    5       0.27262222
    6       0.17494594

Nr. of electrons (up):     12.00000000
Atom populations (up)
 Atom       Population
    1       3.85859903
    2       5.02945663
    3       0.83376315
    4       0.72574935
    5       0.72737778
    6       0.82505406

l-shell populations (up)
 Atom Sh.   l       Population
    1   1   0       1.32613804
    1   2   1       2.53246099
    2   1   0       1.43112047
    2   2   1       3.59833616
    3   1   0       0.83376315
    4   1   0       0.72574935
    5   1   0       0.72737778
    6   1   0       0.82505406

Orbital populations (up)
 Atom Sh.   l   m       Population  Label
    1   1   0   0       1.32613804  s
    1   2   1  -1       0.61281568  p_y
    1   2   1   0       0.87028986  p_z
    1   2   1   1       1.04935545  p_x
    2   1   0   0       1.43112047  s
    2   2   1  -1       1.32320358  p_y
    2   2   1   0       1.12586957  p_z
    2   2   1   1       1.14926301  p_x
    3   1   0   0       0.83376315  s
    4   1   0   0       0.72574935  s
    5   1   0   0       0.72737778  s
    6   1   0   0       0.82505406  s

Fermi level:                        -0.5036648876 H          -13.7054 eV
Band energy:                        -8.9316458768 H         -243.0425 eV
TS:                                  0.0000000000 H            0.0000 eV
Band free energy (E-TS):            -8.9316458768 H         -243.0425 eV
Extrapolated E(0K):                 -8.9316458768 H         -243.0425 eV
Input / Output electrons (q):     12.0000000000     12.0000000000

Energy H0:                          -5.5373859427 H         -150.6799 eV
Energy SCC:                          0.1339465133 H            3.6449 eV
Total Electronic energy:            -5.4034394294 H         -147.0351 eV
Repulsive energy:                    0.1784696121 H            4.8564 eV
Total energy:                       -5.2249698173 H         -142.1787 eV
Extrapolated to 0:                  -5.2249698173 H         -142.1787 eV
Total Mermin free energy:           -5.2249698173 H         -142.1787 eV
Force related energy:               -5.2249698173 H         -142.1787 eV

SCC converged

Excitation Energy:                   0.1531965438 H            4.1687 eV

Total Forces
    1      0.001157994235     -0.003765296688      0.047339397069
    2     -0.007324809743     -0.000992883444     -0.053343432077
    3     -0.005540415541      0.002042747441      0.000707278043
    4     -0.005344110080      0.001329438242      0.004380209028
    5      0.012482292592      0.003798213605      0.002570485772
    6      0.004569048536     -0.002412219157     -0.001653937834

Maximal derivative component:        0.533434E-01 au


