     6
  Step:   120            Position(A)                                  Velocity(au)
C        -0.04170057    -0.02023367    -0.03376161    -0.00007470     0.00001989     0.00055789
N        -0.03490565    -0.10518346     1.35005013     0.00008915     0.00007327    -0.00049596
H         0.82891307    -0.18198206    -0.71629279    -0.00056720    -0.00151666     0.00043441
H         0.55914416     0.66437095     1.77510249    -0.00113585     0.00097066    -0.00034178
H        -0.90462250    -0.24028577     1.91332513     0.00024814    -0.00160183    -0.00030606
H        -0.71439958     0.79089558    -0.43856013     0.00110616     0.00089259     0.00045764
