 Fermi distribution function

Calculation with static geometry


********************************************************************************
 iSCC Total electronic   Diff electronic      SCC error    
   13   -0.52776245E+01   -0.13279067E-09    0.31751964E-06
********************************************************************************

 Total charge:     1.00000000

 Atomic gross charges (e)
 Atom           Charge
    1       0.30536816
    2      -0.19972251
    3       0.17988171
    4       0.26169830
    5       0.27233142
    6       0.18044292

Nr. of electrons (up):     12.00000000
Atom populations (up)
 Atom       Population
    1       3.69463184
    2       5.19972251
    3       0.82011829
    4       0.73830170
    5       0.72766858
    6       0.81955708

l-shell populations (up)
 Atom Sh.   l       Population
    1   1   0       1.40371250
    1   2   1       2.29091934
    2   1   0       1.51611399
    2   2   1       3.68360852
    3   1   0       0.82011829
    4   1   0       0.73830170
    5   1   0       0.72766858
    6   1   0       0.81955708

Orbital populations (up)
 Atom Sh.   l   m       Population  Label
    1   1   0   0       1.40371250  s
    1   2   1  -1       0.45472078  p_y
    1   2   1   0       0.86468236  p_z
    1   2   1   1       0.97151620  p_x
    2   1   0   0       1.51611399  s
    2   2   1  -1       1.39193038  p_y
    2   2   1   0       1.08331609  p_z
    2   2   1   1       1.20836205  p_x
    3   1   0   0       0.82011829  s
    4   1   0   0       0.73830170  s
    5   1   0   0       0.72766858  s
    6   1   0   0       0.81955708  s

Fermi level:                        -0.5103172095 H          -13.8864 eV
Band energy:                        -8.6473317042 H         -235.3059 eV
TS:                                  0.0000000000 H            0.0000 eV
Band free energy (E-TS):            -8.6473317042 H         -235.3059 eV
Extrapolated E(0K):                 -8.6473317042 H         -235.3059 eV
Input / Output electrons (q):     12.0000000000     12.0000000000

Energy H0:                          -5.4120773567 H         -147.2701 eV
Energy SCC:                          0.1344528424 H            3.6586 eV
Total Electronic energy:            -5.2776245143 H         -143.6115 eV
Repulsive energy:                    0.1356468876 H            3.6911 eV
Total energy:                       -5.1419776267 H         -139.9203 eV
Extrapolated to 0:                  -5.1419776267 H         -139.9203 eV
Total Mermin free energy:           -5.1419776267 H         -139.9203 eV
Force related energy:               -5.1419776267 H         -139.9203 eV

SCC converged

Excitation Energy:                   0.1027756016 H            2.7967 eV

Total Forces
    1      0.001007637153     -0.001387118367      0.045277533860
    2      0.009235921676     -0.002450454866     -0.039442672689
    3     -0.004314920933     -0.009801266131      0.002814657828
    4     -0.012891845760      0.012772453633     -0.003874555387
    5      0.007266826489     -0.009755713604     -0.002389100711
    6     -0.000303618625      0.010622099335     -0.002385862902

Maximal derivative component:        0.452775E-01 au


