|===============================================================================
|
|  DFTB+ release 20.1
|
|  Copyright (C) 2006 - 2020  DFTB+ developers group
|
|===============================================================================
|
|  When publishing results obtained with DFTB+, please cite the following
|  reference:
|
|  * DFTB+, a software package for efficient approximate density functional
|    theory based atomistic simulations, J. Chem. Phys. 152, 124101 (2020).
|    [doi: 10.1063/1.5143190]
|
|  You should also cite additional publications crediting the parametrization
|  data you use. Please consult the documentation of the SK-files for the
|  references.
|
|===============================================================================

Reading input file 'dftb_in.hsd'
Parser version: 8

--------------------------------------------------------------------------------
Reading SK-files:
Done.


Processed input in HSD format written to 'dftb_pin.hsd'

Starting initialization...
--------------------------------------------------------------------------------
WARNING!
-> Excited state forces are not implemented yet for fractional occupations, kT=  0.3158E-02K
OpenMP threads:              1
Chosen random seed:          506590882
Mode:                        Static calculation
Self consistent charges:     Yes
SCC-tolerance:                 0.100000E-05
Max. scc iterations:                    100
Shell resolved Hubbard:      No
Spin polarisation:           No
Nr. of up electrons:             6.000000
Nr. of down electrons:           6.000000
Periodic boundaries:         No
Electronic solver:           Relatively robust
Mixer:                       Broyden mixer
Mixing parameter:                  0.200000
Maximal SCC-cycles:                     100
Nr. of chrg. vec. in memory:              0
Electronic temperature:        0.100000E-07 H      0.272114E-06 eV
Initial charges:             Set automatically (system chrg:   0.100E+01)
Included shells:             C:  s, p
                             N:  s, p
                             H:  s
Extra options:
                             Mulliken analysis
                             Force calculation
Force type                   original
                             Eigenvector printing

--------------------------------------------------------------------------------

***  Geometry step: 0

 iSCC Total electronic   Diff electronic      SCC error    
    1   -0.52377387E+01    0.00000000E+00    0.11071411E+01
    2   -0.52640098E+01   -0.26271035E-01    0.67944650E+00
    3   -0.52723899E+01   -0.83801178E-02    0.30648867E+00
    4   -0.48411541E+01    0.43123574E+00    0.21123689E+01
    5   -0.52743800E+01   -0.43322587E+00    0.17879827E+00
    6   -0.52776228E+01   -0.32427953E-02    0.84286635E-02
    7   -0.52776196E+01    0.31971106E-05    0.10465243E-01
    8   -0.52776245E+01   -0.48673277E-05    0.84939000E-03
    9   -0.52776240E+01    0.48248954E-06    0.24614801E-02
   10   -0.52776244E+01   -0.39455405E-06    0.11744318E-02
   11   -0.52776245E+01   -0.11772240E-06    0.32762853E-03
   12   -0.52776245E+01   -0.95579704E-08    0.38002587E-04
   13   -0.52776245E+01   -0.13279067E-09    0.31751964E-06
>> Charges saved for restart in charges.bin

Total Energy:                       -5.0392020252 H         -137.1237 eV
Extrapolated to 0:                  -5.1419776267 H         -139.9203 eV
Total Mermin free energy:           -5.0392020252 H         -137.1237 eV
Force related energy:               -5.1419776267 H         -139.9203 eV

--------------------------------------------------------------------------------
DFTB+ running times                          cpu [s]             wall clock [s]
--------------------------------------------------------------------------------
SCC                                    +     0.01  ( 68.8%)      0.08  ( 81.8%)
Post-SCC processing                    +     0.00  ( 25.2%)      0.01  ( 14.1%)
--------------------------------------------------------------------------------
Missing                                +     0.00  (  6.0%)      0.00  (  4.0%)
Total                                  =     0.02  (100.0%)      0.10  (100.0%)
--------------------------------------------------------------------------------
