    14
  Step:     0            Position(A)                                  Velocity(au)
C        -5.95896504    -0.79199843    -0.11149502     0.00020729    -0.00014727     0.00016260
C        -4.59771942    -0.74760538     0.14521033    -0.00013597     0.00009686    -0.00000939
H        -6.58255583     0.02486602    -0.51443316    -0.00035530    -0.00007061    -0.00028068
H        -6.47564851    -1.77631129    -0.18666978    -0.00117686    -0.00072932    -0.00107889
H        -4.04890469    -1.67427854     0.47174345     0.00057473     0.00067861    -0.00038198
C        -4.00120297     0.50405278     0.00375516     0.00008553    -0.00000089    -0.00003468
C        -2.62513967     0.59394602     0.13269871     0.00010386     0.00013970     0.00017619
H        -4.68712980     1.38963776    -0.18206672    -0.00014949     0.00013873     0.00025633
H        -2.10567650    -0.32927203     0.45331240    -0.00168316     0.00112966    -0.00054223
C        -1.80011424     1.75099936    -0.03733059    -0.00034442    -0.00017737    -0.00037738
H        -2.25940847     2.72650380    -0.40587438     0.00118693     0.00079897     0.00078456
N        -0.55611485     1.68755752     0.23816472     0.00009653    -0.00003506     0.00024220
H         0.14661825     2.39268396     0.05123682     0.00079585     0.00032901    -0.00049116
H        -0.02849808     0.83334198     0.43399194     0.00046333    -0.00072752    -0.00064664
    14
  Step:     1            Position(A)                                  Velocity(au)
C        -5.95691210    -0.79380572    -0.10982569     0.00016369    -0.00018444     0.00014091
C        -4.59924271    -0.74656963     0.14515329    -0.00014073     0.00009281    -0.00000102
H        -6.58564713     0.02414524    -0.51693448    -0.00019861    -0.00007042    -0.00016868
H        -6.48820865    -1.78357359    -0.19797301    -0.00109417    -0.00056982    -0.00097992
H        -4.04303469    -1.66564894     0.46696506     0.00049952     0.00088584    -0.00048720
C        -4.00071333     0.50409193     0.00333282     0.00000370     0.00000908    -0.00004256
C        -2.62341127     0.59562836     0.13467826     0.00020645     0.00017107     0.00018360
H        -4.68749206     1.39009004    -0.17914062     0.00008382    -0.00005597     0.00027803
H        -2.12427310    -0.31638734     0.44726584    -0.00167335     0.00116843    -0.00054054
C        -1.80459873     1.74904538    -0.04161112    -0.00046692    -0.00017846    -0.00040330
H        -2.24550490     2.73386338    -0.39658166     0.00133815     0.00054596     0.00090666
N        -0.55443726     1.68715176     0.24090946     0.00020868    -0.00003873     0.00025843
H         0.15477452     2.39710374     0.04568669     0.00066341     0.00044505    -0.00051410
H        -0.02443480     0.82518342     0.42705021     0.00026749    -0.00073884    -0.00062736
    14
  Step:     2            Position(A)                                  Velocity(au)
C        -5.95538405    -0.79603344    -0.10841233     0.00011213    -0.00022361     0.00011612
C        -4.60079825    -0.74557507     0.14518811    -0.00014208     0.00009013     0.00000714
H        -6.58690079     0.02332554    -0.51812332    -0.00002335    -0.00008532    -0.00004310
H        -6.49958553    -1.78877724    -0.20810737    -0.00096585    -0.00036229    -0.00086612
H        -4.03797669    -1.65489902     0.46108507     0.00043021     0.00105999    -0.00058118
C        -4.00112209     0.50425133     0.00282408    -0.00007784     0.00002018    -0.00005028
C        -2.62062314     0.59768844     0.13671524     0.00029660     0.00020919     0.00018646
H        -4.68529615     1.38841335    -0.17598436     0.00031120    -0.00024270     0.00029688
H        -2.14228426    -0.30371043     0.44148716    -0.00157260     0.00108403    -0.00049072
C        -1.81032902     1.74709529    -0.04615348    -0.00056995    -0.00017726    -0.00042454
H        -2.23013378     2.73844775    -0.38603945     0.00145064     0.00030030     0.00100984
N        -0.55154960     1.68671015     0.24381837     0.00031540    -0.00004145     0.00027173
H         0.16113154     2.40242025     0.03998989     0.00047434     0.00049724    -0.00051864
H        -0.02264616     0.81717845     0.42026721     0.00005411    -0.00070553    -0.00061572
    14
  Step:     3            Position(A)                                  Velocity(au)
C        -5.95445900    -0.79869754    -0.10728536     0.00005440    -0.00026373     0.00008893
C        -4.60235106    -0.74459789     0.14530945    -0.00014058     0.00009031     0.00001455
H        -6.58615806     0.02227876    -0.51787745     0.00016203    -0.00010828     0.00009103
H        -6.50933855    -1.79149943    -0.21692103    -0.00080292    -0.00012538    -0.00073975
H        -4.03362292    -1.64245967     0.45425063     0.00037463     0.00118909    -0.00065974
C        -4.00241626     0.50453339     0.00223286    -0.00015722     0.00003063    -0.00005744
C        -2.61692254     0.60020474     0.13875753     0.00037266     0.00025424     0.00018458
H        -4.68068401     1.38478060    -0.17264581     0.00051848    -0.00040565     0.00030985
H        -2.15867684    -0.29267206     0.43653046    -0.00137875     0.00086877    -0.00039049
C        -1.81706741     1.74516747    -0.05089872    -0.00064976    -0.00017494    -0.00043986
H        -2.21376927     2.74043291    -0.37448950     0.00151598     0.00007966     0.00108808
N        -0.54753726     1.68624506     0.24685412     0.00041238    -0.00004295     0.00028131
H         0.16515160     2.40798187     0.03434053     0.00024541     0.00049616    -0.00050680
H        -0.02325094     0.80974851     0.41358007    -0.00016312    -0.00064093    -0.00060801
    14
  Step:     4            Position(A)                                  Velocity(au)
C        -5.95419403    -0.80180311    -0.10646684    -0.00000746    -0.00030387     0.00006016
C        -4.60387371    -0.74359933     0.14550642    -0.00013707     0.00009451     0.00002074
H        -6.58335613     0.02095670    -0.51613184     0.00034862    -0.00013189     0.00022839
H        -6.51715102    -1.79152009    -0.22429087    -0.00061686     0.00012271    -0.00060374
H        -4.02978085    -1.62888541     0.44665205     0.00034020     0.00126284    -0.00071929
C        -4.00456150     0.50492153     0.00156745    -0.00023230     0.00003883    -0.00006364
C        -2.61247056     0.60325047     0.14075326     0.00043374     0.00030472     0.00017829
H        -4.67395335     1.37953890    -0.16920590     0.00069155    -0.00052890     0.00031391
H        -2.17244702    -0.28470450     0.43294436    -0.00110067     0.00053363    -0.00024428
C        -1.82454386     1.74326825    -0.05577628    -0.00070418    -0.00017242    -0.00044843
H        -2.19696873     2.74019048    -0.36223569     0.00152765    -0.00009841     0.00113626
N        -0.54252797     1.68577052     0.24997263     0.00049630    -0.00004317     0.00028675
H         0.16650045     2.41327470     0.02890269    -0.00000406     0.00045550    -0.00048188
H        -0.02621469     0.80315697     0.40696592    -0.00037042    -0.00055994    -0.00060079
    14
  Step:     5            Position(A)                                  Velocity(au)
C        -5.95462219    -0.80534520    -0.10596927    -0.00007110    -0.00034309     0.00003071
C        -4.60534964    -0.74253023     0.14576322    -0.00013268     0.00010336     0.00002532
H        -6.57853131     0.01939341    -0.51288091     0.00052739    -0.00014866     0.00036358
H        -6.52283363    -1.78881500    -0.23012905    -0.00041952     0.00036418    -0.00046154
H        -4.02618031    -1.61483258     0.43851478     0.00033316     0.00127372    -0.00075725
C        -4.00749816     0.50538290     0.00084061    -0.00030055     0.00004349    -0.00006847
C        -2.60743367     0.60687104     0.14265806     0.00047964     0.00035689     0.00016865
H        -4.66555507     1.37320990    -0.16577853     0.00081685    -0.00059682     0.00030611
H        -2.18275617    -0.28099778     0.43118627    -0.00075943     0.00011295    -0.00006451
C        -1.83247272     1.74139543    -0.06070897    -0.00073243    -0.00017023    -0.00044990
H        -2.18034909     2.73828009    -0.34963164     0.00148154    -0.00021773     0.00115065
N        -0.53667971     1.68530064     0.25312724     0.00056496    -0.00004216     0.00028797
H         0.16506267     2.41794675     0.02379843    -0.00025413     0.00039060    -0.00044812
H        -0.03135469     0.79749871     0.40043661    -0.00055492    -0.00047786    -0.00059123
    14
  Step:     6            Position(A)                                  Velocity(au)
C        -5.95574956    -0.80930887    -0.10579489    -0.00013396    -0.00038046     0.00000155
C        -4.60677627    -0.74133819     0.14606044    -0.00012875     0.00011677     0.00002804
H        -6.57181852     0.01770438    -0.50817774     0.00068952    -0.00015135     0.00049137
H        -6.52632889    -1.78355303    -0.23438799    -0.00022324     0.00058134    -0.00031699
H        -4.02249228    -1.60102030     0.43008578     0.00035743     0.00121852    -0.00077253
C        -4.01113650     0.50587288     0.00006962    -0.00035917     0.00004374    -0.00007153
C        -2.60197752     0.61105805     0.14444290     0.00051063     0.00040499     0.00015730
H        -4.65608324     1.36648225    -0.16250916     0.00088240    -0.00059521     0.00028381
H        -2.18906107    -0.28223340     0.43153316    -0.00038540    -0.00033838     0.00012975
C        -1.84056717     1.73954410    -0.06561877    -0.00073489    -0.00016826    -0.00044445
H        -2.16455722     2.73542712    -0.33706308     0.00137669    -0.00026568     0.00112949
N        -0.53016843     1.68484810     0.25627261     0.00061715    -0.00004012     0.00028526
H         0.16094083     2.42181978     0.01909929    -0.00048549     0.00031742    -0.00041036
H        -0.03835467     0.79270292     0.39403164    -0.00070553    -0.00040905    -0.00057720
    14
  Step:     7            Position(A)                                  Velocity(au)
C        -5.95755278    -0.81366856    -0.10593534    -0.00019332    -0.00041494    -0.00002638
C        -4.60816632    -0.73997556     0.14637673    -0.00012658     0.00013399     0.00002882
H        -6.56344685     0.01608229    -0.50213117     0.00082681    -0.00013332     0.00060698
H        -6.52771753    -1.77609708    -0.23706372    -0.00004102     0.00075620    -0.00017425
H        -4.01836082    -1.58817505     0.42161412     0.00041346     0.00109970    -0.00076598
C        -4.01535560     0.50633990    -0.00072416    -0.00040561     0.00003922    -0.00007250
C        -2.59626276     0.61573104     0.14609937     0.00052729     0.00044236     0.00014616
H        -4.64625094     1.36018852    -0.15956964     0.00087962    -0.00051349     0.00024515
H        -2.19118748    -0.28840041     0.43402478    -0.00001185    -0.00075615     0.00031672
C        -1.84854974     1.73771443    -0.07043227    -0.00071278    -0.00016570    -0.00043271
H        -2.15023143     2.73246782    -0.32492186     0.00121579    -0.00023595     0.00107358
N        -0.52317833     1.68442291     0.25936784     0.00065248    -0.00003735     0.00027910
H         0.15444169     2.42489087     0.01482092    -0.00068063     0.00025159    -0.00037382
H        -0.04678947     0.78854990     0.38780922    -0.00081379    -0.00036569    -0.00055742
    14
  Step:     8            Position(A)                                  Velocity(au)
C        -5.95997872    -0.81838658    -0.10637191    -0.00024655    -0.00044534    -0.00005217
C        -4.60954546    -0.73840679     0.14669096    -0.00012708     0.00015363     0.00002778
H        -6.55373051     0.01478784    -0.49489899     0.00093221    -0.00008914     0.00070637
H        -6.52722635    -1.76700981    -0.23819993     0.00011353     0.00087038    -0.00003773
H        -4.01344703    -1.57696233     0.41332846     0.00049722     0.00092631    -0.00074059
C        -4.02001000     0.50673095    -0.00151655    -0.00043819     0.00003009    -0.00007124
C        -2.59044209     0.62073548     0.14764054     0.00053038     0.00046292     0.00013702
H        -4.63683983     1.35524872    -0.15714612     0.00080576    -0.00034788     0.00018969
H        -2.18932029    -0.29877572     0.43846199     0.00033230    -0.00108242     0.00047708
C        -1.85616064     1.73591913    -0.07508517    -0.00066807    -0.00016108    -0.00041566
H        -2.13795946     2.73026526    -0.31357640     0.00100541    -0.00013128     0.00098648
N        -0.51589418     1.68403106     0.26237837     0.00067122    -0.00003427     0.00027011
H         0.14605075     2.42732371     0.01092129    -0.00082494     0.00020736    -0.00034360
H        -0.05615793     0.78470276     0.38183695    -0.00087463    -0.00035625    -0.00053151
    14
  Step:     9            Position(A)                                  Velocity(au)
C        -5.96294656    -0.82341123    -0.10707657    -0.00029134    -0.00047030    -0.00007505
C        -4.61094648    -0.73661462     0.14698443    -0.00013058     0.00017380     0.00002522
H        -6.54305295     0.01413224    -0.48667794     0.00100045    -0.00001546     0.00078672
H        -6.52523384    -1.75705589    -0.23788921     0.00022671     0.00090591     0.00008815
H        -4.00748329    -1.56791032     0.40541230     0.00059981     0.00071393    -0.00070136
C        -4.02494180     0.50699809    -0.00228265    -0.00045644     0.00001722    -0.00006778
C        -2.58465958     0.62585841     0.14909700     0.00052067     0.00046257     0.00013116
H        -4.62862349     1.35257790    -0.15541988     0.00066610    -0.00010479     0.00011897
H        -2.18391780    -0.31208043     0.44446171     0.00062754    -0.00127835     0.00059785
C        -1.86316504     1.73419058    -0.07952564    -0.00060328    -0.00015235    -0.00039452
H        -2.12823624     2.72959576    -0.30334063     0.00075556     0.00003494     0.00087432
N        -0.50849420     1.68367319     0.26527712     0.00067424    -0.00003143     0.00025900
H         0.13639462     2.42942717     0.00730409    -0.00090789     0.00019624    -0.00032418
H        -0.06592366     0.78075629     0.37618153    -0.00088685    -0.00038409    -0.00049996
    14
  Step:    10            Position(A)                                  Velocity(au)
C        -5.96635234    -0.82867533    -0.10801382    -0.00032589    -0.00048842    -0.00009447
C        -4.61240224    -0.73460467     0.14724278    -0.00013681     0.00019230     0.00002161
H        -6.53184381     0.01444964    -0.47768791     0.00102866     0.00008810     0.00084672
H        -6.52226669    -1.74719131    -0.23627154     0.00028596     0.00084700     0.00019937
H        -4.00032496    -1.56134379     0.39798496     0.00070838     0.00048295    -0.00065456
C        -4.02999544     0.50710769    -0.00299935    -0.00046121     0.00000239    -0.00006241
C        -2.57905152     0.63085503     0.15050991     0.00049885     0.00043965     0.00012922
H        -4.62226771     1.35295622    -0.15454337     0.00047503     0.00019717     0.00003681
H        -2.17559157    -0.32674213     0.45154117     0.00086479    -0.00132910     0.00067373
C        -1.86935845     1.73258617    -0.08371611    -0.00052133    -0.00013716    -0.00037059
H        -2.12143004     2.73102953    -0.29444895     0.00047871     0.00023956     0.00074494
N        -0.50114383     1.68334348     0.26804452     0.00066300    -0.00002942     0.00024640
H         0.12618895     2.43161676     0.00382920    -0.00092435     0.00022522    -0.00031872
H        -0.07555949     0.77630015     0.37089930    -0.00085328    -0.00044641    -0.00046414
    14
  Step:    11            Position(A)                                  Velocity(au)
C        -5.97007611    -0.83409624    -0.10914320    -0.00034917    -0.00049842    -0.00011012
C        -4.61393949    -0.73240776     0.14745709    -0.00014503     0.00020687     0.00001742
H        -6.52054915     0.01605963    -0.46815432     0.00101677     0.00021822     0.00088683
H        -6.51897797    -1.73852611    -0.23352757     0.00028200     0.00068328     0.00029291
H        -3.99198614    -1.55734491     0.39109253     0.00080790     0.00025567    -0.00060672
C        -4.03503169     0.50705044    -0.00364804    -0.00045445    -0.00001181    -0.00005563
C        -2.57374625     0.63547669     0.15192392     0.00046574     0.00039490     0.00013125
H        -4.61823137     1.35689143    -0.15461453     0.00025473     0.00052801    -0.00005100
H        -2.16499881    -0.34115708     0.45920090     0.00104331    -0.00124070     0.00070586
C        -1.87457007     1.73118989    -0.08763309    -0.00042536    -0.00011325    -0.00034507
H        -2.11776353     2.73483662    -0.28704369     0.00018829     0.00045312     0.00060670
N        -0.49398971     1.68302961     0.27066753     0.00063945    -0.00002876     0.00023280
H         0.11617261     2.43435420     0.00033148    -0.00087568     0.00029492    -0.00032822
H        -0.08459079     0.77099018     0.36602768    -0.00078033    -0.00053415    -0.00042597
    14
  Step:    12            Position(A)                                  Velocity(au)
C        -5.97399117    -0.83957918    -0.11042288    -0.00036110    -0.00049956    -0.00012206
C        -4.61557494    -0.73007899     0.14762391    -0.00015426     0.00021549     0.00001313
H        -6.50960010     0.01922358    -0.45828670     0.00096760     0.00036743     0.00090941
H        -6.51609750    -1.73224328    -0.22986348     0.00021173     0.00041431     0.00036753
H        -3.98265070    -1.55575045     0.38471172     0.00088366     0.00005294    -0.00056351
C        -4.03993747     0.50684943    -0.00421638    -0.00043876    -0.00002231    -0.00004805
C        -2.56886258     0.63949427     0.15338120     0.00042239     0.00033084     0.00013684
H        -4.61669503     1.36450752    -0.15565917     0.00003147     0.00085073    -0.00013761
H        -2.15276708    -0.35388488     0.46698326     0.00116750    -0.00103278     0.00069948
C        -1.87866408     1.73010868    -0.09126522    -0.00031859    -0.00007894    -0.00031891
H        -2.11731081     2.74094241    -0.28117625    -0.00010264     0.00064500     0.00046728
N        -0.48715465     1.68271427     0.27313747     0.00060593    -0.00002977     0.00021849
H         0.10703174     2.43806876    -0.00335118    -0.00077001     0.00039848    -0.00035091
H        -0.09263069     0.76461465     0.36158042    -0.00067702    -0.00063300    -0.00038769
    14
  Step:    13            Position(A)                                  Velocity(au)
C        -5.97797595    -0.84502501    -0.11181360    -0.00036274    -0.00049196    -0.00013071
C        -4.61731429    -0.72769351     0.14774428    -0.00016358     0.00021664     0.00000906
H        -6.49938113     0.02409785    -0.44825912     0.00088654     0.00052435     0.00091834
H        -6.51434600    -1.72946227    -0.22548713     0.00008096     0.00005376     0.00042433
H        -3.97265437    -1.55618664     0.37876462     0.00092367    -0.00010885    -0.00052894
C        -4.04463043     0.50656238    -0.00469911    -0.00041687    -0.00002619    -0.00004027
C        -2.56450556     0.64271435     0.15491761     0.00037030     0.00025119     0.00014531
H        -4.61754299     1.37550285    -0.15762500    -0.00016956     0.00112841    -0.00021624
H        -2.13945751    -0.36375104     0.47450332     0.00124390    -0.00073104     0.00066167
C        -1.88153985     1.72946292    -0.09460988    -0.00020419    -0.00003366    -0.00029272
H        -2.12000904     2.74894719    -0.27682105    -0.00038252     0.00078888     0.00033275
N        -0.48073391     1.68237824     0.27544739     0.00056501    -0.00003243     0.00020348
H         0.09932718     2.44307163    -0.00734544    -0.00062136     0.00052162    -0.00038216
H        -0.09940184     0.75714200     0.35754625    -0.00055361    -0.00072567    -0.00035147
    14
  Step:    14            Position(A)                                  Velocity(au)
C        -5.98192675    -0.85034175    -0.11328247    -0.00035622    -0.00047689    -0.00013677
C        -4.61915349    -0.72533955     0.14782205    -0.00017221     0.00020951     0.00000538
H        -6.49020538     0.03069474    -0.43819626     0.00078072     0.00067481     0.00091837
H        -6.51432633    -1.73106721    -0.22058051    -0.00009446    -0.00036888     0.00046677
H        -3.96244354    -1.55813181     0.37314012     0.00092028    -0.00021962    -0.00050501
C        -4.04905735     0.50627655    -0.00509729    -0.00039119    -0.00002125    -0.00003280
C        -2.56076163     0.64498950     0.15656020     0.00031137     0.00016045     0.00015579
H        -4.62040442     1.38919360    -0.16038983    -0.00032885     0.00133130    -0.00028141
H        -2.12555442    -0.36987771     0.48145852     0.00127946    -0.00036228     0.00059990
C        -1.88313106     1.72937228    -0.09766894    -0.00008525     0.00002183    -0.00026671
H        -2.12567918     2.75820064    -0.27389678    -0.00064181     0.00086655     0.00020719
N        -0.47479392     1.68200489     0.27758909     0.00051929    -0.00003628     0.00018757
H         0.09343840     2.44948010    -0.01171167    -0.00044754     0.00064451    -0.00041493
H        -0.10474187     0.74873912     0.35389137    -0.00042017    -0.00079473    -0.00031912
    14
  Step:    15            Position(A)                                  Velocity(au)
C        -5.98576902    -0.85545782    -0.11480561    -0.00034452    -0.00045666    -0.00014108
C        -4.62108174    -0.72311018     0.14786189    -0.00017969     0.00019400     0.00000208
H        -6.48230133     0.03886063    -0.42816795     0.00065791     0.00080368     0.00091436
H        -6.51641247    -1.73753227    -0.21527569    -0.00029026    -0.00081091     0.00049992
H        -3.95252147    -1.56099127     0.36771647     0.00087067    -0.00027584    -0.00049186
C        -4.05318850     0.50609753    -0.00541659    -0.00036354    -0.00000644    -0.00002595
C        -2.55769380     0.64622441     0.15832572     0.00024789     0.00006351     0.00016727
H        -4.62473717     1.40462764    -0.16378148    -0.00043509     0.00144135    -0.00032967
H        -2.11146694    -0.37167670     0.48762723     0.00128081     0.00004798     0.00052132
C        -1.88340479     1.72994041    -0.10044470     0.00003527     0.00008543    -0.00024078
H        -2.13404993     2.76790464    -0.27228842    -0.00087317     0.00086943     0.00009282
N        -0.46937354     1.68158459     0.27955083     0.00047107    -0.00004054     0.00017036
H         0.08953645     2.45717144    -0.01642280    -0.00026724     0.00074512    -0.00044100
H        -0.10859383     0.73975577     0.35056489    -0.00028543    -0.00082547    -0.00029189
    14
  Step:    16            Position(A)                                  Velocity(au)
C        -5.98946387    -0.86033210    -0.11636879    -0.00033088    -0.00043421    -0.00014446
C        -4.62308458    -0.72109533     0.14786758    -0.00018581     0.00017073    -0.00000097
H        -6.47581233     0.04827682    -0.41819299     0.00052541     0.00089695     0.00091043
H        -6.52067635    -1.74880739    -0.20964388    -0.00047843    -0.00122393     0.00052905
H        -3.94339604    -1.56416637     0.36237984     0.00077637    -0.00027964    -0.00048816
C        -4.05701059     0.50613565    -0.00566506    -0.00033513     0.00001807    -0.00001986
C        -2.55533847     0.64637887     0.16021964     0.00018235    -0.00003456     0.00017872
H        -4.62992289     1.42072583    -0.16760194    -0.00048521     0.00145314    -0.00035969
H        -2.09753417    -0.36882805     0.49286348     0.00125426     0.00047609     0.00043269
C        -1.88235952     1.73124126    -0.10293641     0.00015459     0.00015401    -0.00021453
H        -2.14478155     2.77722101    -0.27186616    -0.00107132     0.00079796    -0.00000963
N        -0.46448834     1.68111795     0.28131612     0.00042222    -0.00004423     0.00015144
H         0.08759205     2.46578105    -0.02135947    -0.00009701     0.00080332    -0.00045253
H        -0.11098610     0.73068041     0.34750582    -0.00015603    -0.00080805    -0.00027037
    14
  Step:    17            Position(A)                                  Velocity(au)
C        -5.99300765    -0.86495705    -0.11796598    -0.00031819    -0.00041240    -0.00014753
C        -4.62514675    -0.71937504     0.14784074    -0.00019061     0.00014084    -0.00000401
H        -6.47080703     0.05848316    -0.40825064     0.00038924     0.00094357     0.00090948
H        -6.52687909    -1.76430819    -0.20370166    -0.00063322    -0.00156365     0.00055826
H        -3.93553694    -1.56710891     0.35703693     0.00064236    -0.00023742    -0.00049172
C        -4.06052015     0.50649275    -0.00585099    -0.00030666     0.00005105    -0.00001446
C        -2.55370460     0.64546833     0.16223566     0.00011718    -0.00012876     0.00018906
H        -4.63535213     1.43641785    -0.17165042    -0.00048260     0.00137193    -0.00037199
H        -2.08402750    -0.36126123     0.49709308     0.00120610     0.00089979     0.00034050
C        -1.88002284     1.73330962    -0.10513805     0.00027020     0.00022379    -0.00018746
H        -2.15748717     2.78536162    -0.27249904    -0.00123274     0.00065954    -0.00010041
N        -0.46013665     1.68061692     0.28286394     0.00037400    -0.00004635     0.00013046
H         0.08741421     2.47474554    -0.02632280     0.00005095     0.00080436    -0.00044346
H        -0.11200719     0.72207810     0.34464999    -0.00003632    -0.00073854    -0.00025460
    14
  Step:    18            Position(A)                                  Velocity(au)
C        -5.99642498    -0.86935406    -0.11959623    -0.00030854    -0.00039339    -0.00015058
C        -4.62725448    -0.71801424     0.14777986    -0.00019428     0.00010585    -0.00000735
H        -6.46729704     0.06891932    -0.39829637     0.00025369     0.00093669     0.00091295
H        -6.53452932    -1.78301533    -0.19743088    -0.00073623    -0.00179826     0.00058958
H        -3.92934309    -1.56936041     0.35162242     0.00047600    -0.00015837    -0.00049987
C        -4.06371933     0.50725243    -0.00598130    -0.00027852     0.00009055    -0.00000958
C        -2.55277501     0.64356196     0.16435569     0.00005460    -0.00021436     0.00019722
H        -4.64048074     1.45073943    -0.17573997    -0.00043472     0.00121024    -0.00036833
H        -2.07114852    -0.34914348     0.50031265     0.00114307     0.00129738     0.00025139
C        -1.87644842     1.73613705    -0.10703739     0.00037989     0.00029085    -0.00015899
H        -2.17175002     2.79164967    -0.27406290    -0.00135539     0.00046614    -0.00018038
N        -0.45630631     1.68010389     0.28417009     0.00032709    -0.00004606     0.00010721
H         0.08870670     2.48337805    -0.03106101     0.00016978     0.00074103    -0.00041046
H        -0.11178062     0.71452349     0.34193588     0.00007149    -0.00061885    -0.00024414
    14
  Step:    19            Position(A)                                  Velocity(au)
C        -5.99975764    -0.87356313    -0.12126013    -0.00030298    -0.00037837    -0.00015361
C        -4.62939691    -0.71705938     0.14767985    -0.00019714     0.00006755    -0.00001133
H        -6.46525702     0.07897498    -0.38827822     0.00012134     0.00087394     0.00092088
H        -6.54298563    -1.80364847    -0.19080337    -0.00077864    -0.00191227     0.00062302
H        -3.92512352    -1.57057357     0.34610122     0.00028603    -0.00005318    -0.00050986
C        -4.06661340     0.50847364    -0.00606048    -0.00025098     0.00013417    -0.00000497
C        -2.55251012     0.64077887     0.16655021    -0.00000359    -0.00028705     0.00020220
H        -4.64486254     1.46289422    -0.17970831    -0.00035101     0.00098460    -0.00035118
H        -2.05902055    -0.33287851     0.50259278     0.00107300     0.00164706     0.00017239
C        -1.87171208     1.73967260    -0.10861625     0.00048183     0.00035153    -0.00012864
H        -2.18713887     2.79555926    -0.27644514    -0.00143855     0.00023240    -0.00025068
N        -0.45298084     1.67960929     0.28520927     0.00028167    -0.00004275     0.00008169
H         0.09112854     2.49095691    -0.03530249     0.00025785     0.00061399    -0.00035323
H        -0.11044310     0.70853960     0.33930890     0.00016699    -0.00045593    -0.00023823
    14
  Step:    20            Position(A)                                  Velocity(au)
C        -6.00305315    -0.87763160    -0.12295685    -0.00030159    -0.00036759    -0.00015643
C        -4.63156719    -0.71653636     0.14753192    -0.00019959     0.00002787    -0.00001629
H        -6.46464259     0.08803847    -0.37815034    -0.00000677     0.00075719     0.00093227
H        -6.55156346    -1.82484997    -0.18380106    -0.00076050    -0.00190569     0.00065712
H        -3.92308563    -1.57052376     0.34046824     0.00008207     0.00006671    -0.00051901
C        -4.06920999     0.51018776    -0.00609013    -0.00022422     0.00017937    -0.00000038
C        -2.55285348     0.63728228     0.16877910    -0.00005615    -0.00034314     0.00020307
H        -4.64815965     1.47227935    -0.18342270    -0.00024145     0.00071315    -0.00032336
H        -2.04767468    -0.31311083     0.50408401     0.00100505     0.00192674     0.00011110
C        -1.86590736     1.74382753    -0.10985164     0.00057464     0.00040271    -0.00009606
H        -2.20322097     2.79673394    -0.27954702    -0.00148258    -0.00002600    -0.00031263
N        -0.45014430     1.67916867     0.28595728     0.00023753    -0.00003608     0.00005411