     6
  Step:     0            Position(A)                                  Velocity(au)
C        -0.04023182     0.00766963     0.04128381     0.00020746    -0.00007717     0.00005137
N        -0.04185214    -0.06421607     1.27464526     0.00008775    -0.00003936    -0.00006928
H         0.94012531     0.05584478    -0.50668625    -0.00106612     0.00052579     0.00007834
H         0.78117923    -0.04028437     1.83600245    -0.00210669     0.00014792    -0.00118619
H        -0.89796194     0.03259991     1.90955907    -0.00032967     0.00055478     0.00081887
H        -0.97528338     0.08303966    -0.55169276    -0.00018910     0.00023800     0.00063968
     6
  Step:     1            Position(A)                                  Velocity(au)
C        -0.03907940     0.00725291     0.04108538     0.00021292    -0.00007532    -0.00012379
N        -0.04142891    -0.06447367     1.27467512     0.00006444    -0.00005488     0.00007935
H         0.93432927     0.05885270    -0.50615097    -0.00104492     0.00057546     0.00011295
H         0.77027059    -0.03933651     1.82971623    -0.00185051     0.00019969    -0.00109134
H        -0.89962698     0.03574910     1.91369095    -0.00027327     0.00059634     0.00068655
H        -0.97652770     0.08447988    -0.54812366    -0.00026396     0.00028862     0.00066442
     6
  Step:     2            Position(A)                                  Velocity(au)
C        -0.03790246     0.00684566     0.03992949     0.00021621    -0.00007374    -0.00029756
N        -0.04114717    -0.06481650     1.27551333     0.00003623    -0.00007047     0.00022529
H         0.92869364     0.06214043    -0.50545059    -0.00100686     0.00062790     0.00013802
H         0.76093420    -0.03809976     1.82406292    -0.00153266     0.00025371    -0.00095481
H        -0.90095158     0.03912402     1.91707014    -0.00020651     0.00063714     0.00054498
H        -0.97817116     0.08619721    -0.54442388    -0.00033386     0.00033926     0.00068695
     6
  Step:     3            Position(A)                                  Velocity(au)
C        -0.03671325     0.00644589     0.03782887     0.00021715    -0.00007258    -0.00046777
N        -0.04103238    -0.06524493     1.27714069     0.00000376    -0.00008607     0.00036674
H         0.92331025     0.06572438    -0.50464049    -0.00095204     0.00068321     0.00015244
H         0.75349719    -0.03655996     1.81926677    -0.00115875     0.00031036    -0.00077927
H        -0.90188708     0.04272193     1.91965521    -0.00013233     0.00067738     0.00039758
H        -0.98018144     0.08819269    -0.54060565    -0.00039681     0.00038998     0.00070702
     6
  Step:     4            Position(A)                                  Velocity(au)
C        -0.03552488     0.00605101     0.03480794     0.00021554    -0.00007188    -0.00063198
N        -0.04110599    -0.06575892     1.27952867    -0.00003208    -0.00010154     0.00050184
H         0.91826985     0.06962086    -0.50378153    -0.00088049     0.00074089     0.00015529
H         0.74824724    -0.03470167     1.81553074    -0.00073776     0.00036950    -0.00056986
H        -0.90240044     0.04654053     1.92142315    -0.00005358     0.00071669     0.00024765
H        -0.98251577     0.09046704    -0.53668281    -0.00045088     0.00044040     0.00072398
     6
  Step:     5            Position(A)                                  Velocity(au)
C        -0.03435155     0.00565831     0.03090419     0.00021112    -0.00007161    -0.00078730
N        -0.04138385    -0.06635748     1.28263939    -0.00007004    -0.00011660     0.00062856
H         0.91366264     0.07384237    -0.50293894    -0.00079217     0.00079963     0.00014591
H         0.74541353    -0.03251135     1.81302271    -0.00028274     0.00043025    -0.00033453
H        -0.90247414     0.05057475     1.92236878     0.00002672     0.00075407     0.00009866
H        -0.98512173     0.09301821    -0.53267292    -0.00049435     0.00048962     0.00073678
     6
  Step:     6            Position(A)                                  Velocity(au)
C        -0.03320867     0.00526537     0.02617067     0.00020367    -0.00007167    -0.00093020
N        -0.04187438    -0.06703808     1.28642451    -0.00010852    -0.00013086     0.00074452
H         0.90957905     0.07839344    -0.50218079    -0.00068718     0.00085736     0.00012404
H         0.74514536    -0.02998143     1.81186071     0.00018898     0.00049097    -0.00008402
H        -0.90210731     0.05481335     1.92250551     0.00010518     0.00078796    -0.00004563
H        -0.98793919     0.09583854    -0.52859975    -0.00052597     0.00053621     0.00074393
     6
  Step:     7            Position(A)                                  Velocity(au)
C        -0.03211277     0.00487050     0.02067933     0.00019302    -0.00007190    -0.00105661
N        -0.04257672    -0.06779592     1.29082321    -0.00014558    -0.00014383     0.00084694
H         0.90610909     0.08326655    -0.50157551    -0.00056605     0.00091136     0.00009004
H         0.74749082    -0.02711459     1.81209920     0.00065621     0.00054924     0.00016853
H        -0.90131804     0.05923606     1.92186722     0.00017789     0.00081639    -0.00018096
H        -0.99090320     0.09891229    -0.52449559    -0.00054509     0.00057841     0.00074365
     6
  Step:     8            Position(A)                                  Velocity(au)
C        -0.03108108     0.00447283     0.01452402     0.00017914    -0.00007214    -0.00116216
N        -0.04347907    -0.06862343     1.29576008    -0.00017907    -0.00015494     0.00093286
H         0.90333964     0.08843908    -0.50118831    -0.00043021     0.00095863     0.00004504
H         0.75237851    -0.02392732     1.81371833     0.00109520     0.00060220     0.00040858
H        -0.90014653     0.06381217     1.92051089     0.00024049     0.00083745    -0.00030264
H        -0.99394750     0.10221415    -0.52040277    -0.00055179     0.00061434     0.00073413
     6
  Step:     9            Position(A)                                  Velocity(au)
C        -0.03013080     0.00407242     0.00782178     0.00016225    -0.00007223    -0.00124290
N        -0.04455787    -0.06951006     1.30114387    -0.00020687    -0.00016368     0.00099951
H         0.90134945     0.09387234    -0.50107719    -0.00028241     0.00099637    -0.00000900
H         0.75960758    -0.02045218     1.81661957     0.00148218     0.00064688     0.00062191
H        -0.89865741     0.06850113     1.91851902     0.00028851     0.00084966    -0.00040589
H        -0.99700792     0.10570900    -0.51637358    -0.00054688     0.00064235     0.00071394
     6
  Step:    10            Position(A)                                  Velocity(au)
C        -0.02927787     0.00367006     0.00071026     0.00014281    -0.00007209    -0.00129629
N        -0.04577827    -0.07044262     1.30686880    -0.00022723    -0.00016972     0.00104513
H         0.90020094     0.09951290    -0.50128836    -0.00012695     0.00102264    -0.00006940
H         0.76885161    -0.01673775     1.82063033     0.00179674     0.00068087     0.00079658
H        -0.89694004     0.07325543     1.91599980     0.00031799     0.00085256    -0.00048653
H        -1.00002559     0.10935332    -0.51246797    -0.00053189     0.00066144     0.00068251
     6
  Step:    11            Position(A)                                  Velocity(au)
C        -0.02853532     0.00326703    -0.00666024     0.00012164    -0.00007171    -0.00132230
N        -0.04709648    -0.07140616     1.31282001    -0.00023914    -0.00017301     0.00106978
H         0.89993122     0.10529723    -0.50185255     0.00003069     0.00103704    -0.00013312
H         0.77968054    -0.01284555     1.82551890     0.00202578     0.00070292     0.00092510
H        -0.89510486     0.07802584     1.91308353     0.00032630     0.00084707    -0.00054191
H        -1.00295019     0.11309857    -0.50874865    -0.00050912     0.00067168     0.00064055
     6
  Step:    12            Position(A)                                  Velocity(au)
C        -0.02791172     0.00286467    -0.01414047     0.00009975    -0.00007119    -0.00132414
N        -0.04846404    -0.07238569     1.31888349    -0.00024259    -0.00017390     0.00107594
H         0.90054558     0.11115989    -0.50278342     0.00018488     0.00104122    -0.00019736
H         0.79160310    -0.00884333     1.83102011     0.00216650     0.00071351     0.00100587
H        -0.89327533     0.08276881     1.90991358     0.00031270     0.00083574    -0.00057172
H        -1.00574352     0.11689691    -0.50527402    -0.00048153     0.00067451     0.00059013
     6
  Step:    13            Position(A)                                  Velocity(au)
C        -0.02740995     0.00246380    -0.02159962     0.00007817    -0.00007074    -0.00130796
N        -0.04983350    -0.07336821     1.32495914    -0.00023856    -0.00017313     0.00106839
H         0.90201711     0.11704453    -0.50407918     0.00033122     0.00103873    -0.00026015
H         0.80412361    -0.00479549     1.83686738     0.00222651     0.00071492     0.00104305
H        -0.89157691     0.08745487     1.90663323     0.00027826     0.00082244    -0.00057809
H        -1.00838290     0.12070855    -0.50209064    -0.00045242     0.00067265     0.00053428
     6
  Step:    14            Position(A)                                  Velocity(au)
C        -0.02702714     0.00206420    -0.02894136     0.00005776    -0.00007059    -0.00128125
N        -0.05116357    -0.07434480     1.33097336    -0.00022856    -0.00017157     0.00105294
H         0.90429363     0.12291420    -0.50572731     0.00046723     0.00103407    -0.00032059
H         0.81679828    -0.00075334     1.84282331     0.00222041     0.00071041     0.00104467
H        -0.89012654     0.09207556     1.90337194     0.00022516     0.00081147    -0.00056478
H        -1.01086308     0.12450857    -0.49922805    -0.00042486     0.00066941     0.00047608
     6
  Step:    15            Position(A)                                  Velocity(au)
C        -0.02675582     0.00166436    -0.03611078     0.00003901    -0.00007093    -0.00125046
N        -0.05242216    -0.07531143     1.33688456    -0.00021412    -0.00017003     0.00103463
H         0.90730889     0.12875617    -0.50771007     0.00059203     0.00103097    -0.00037834
H         0.82927152     0.00325050     1.84869910     0.00216390     0.00070308     0.00101943
H        -0.88902675     0.09664538     1.90023669     0.00015573     0.00080626    -0.00053574
H        -1.01319476     0.12829014    -0.49669861    -0.00040100     0.00066765     0.00041770
     6
  Step:    16            Position(A)                                  Velocity(au)
C        -0.02658579     0.00126175    -0.04308828     0.00002215    -0.00007184    -0.00121940
N        -0.05358604    -0.07626838     1.34267848    -0.00019632    -0.00016893     0.00101632
H         0.91099149     0.13457796    -0.51000761     0.00070497     0.00103126    -0.00043288
H         0.84127924     0.00720084     1.85435652     0.00206900     0.00069481     0.00097426
H        -0.88836475     0.10119705     1.89731096     0.00007199     0.00080855    -0.00049410
H        -1.01539976     0.13206192    -0.49450249    -0.00038181     0.00066897     0.00036003
     6
  Step:    17            Position(A)                                  Velocity(au)
C        -0.02650578     0.00085347    -0.04987498     0.00000723    -0.00007325    -0.00118913
N        -0.05463817    -0.07721830     1.34835649    -0.00017578    -0.00016838     0.00099871
H         0.91526637     0.14039668    -0.51259624     0.00080473     0.00103464    -0.00048316
H         0.85262571     0.01109326     1.85969617     0.00194289     0.00068613     0.00091357
H        -0.88821410     0.10577200     1.89465949    -0.00002400     0.00081827    -0.00044204
H        -1.01750446     0.13584123    -0.49263468    -0.00036720     0.00067361     0.00030305
     6
  Step:    18            Position(A)                                  Velocity(au)
C        -0.02650435     0.00043698    -0.05647770    -0.00000572    -0.00007501    -0.00115904
N        -0.05556523    -0.07816428     1.35392374    -0.00015289    -0.00016821     0.00098111
H         0.92005259     0.14622783    -0.51544788     0.00088929     0.00103952    -0.00052793
H         0.86315583     0.01492651     1.86464314     0.00178968     0.00067671     0.00084016
H        -0.88863500     0.11041057     1.89233372    -0.00012973     0.00083410    -0.00038133
H        -1.01953431     0.13964667    -0.49109016    -0.00035650     0.00068093     0.00024643
     6
  Step:    19            Position(A)                                  Velocity(au)
C        -0.02657003     0.00001057    -0.06289963    -0.00001666    -0.00007694    -0.00112800
N        -0.05635628    -0.07910852     1.35938168    -0.00012809    -0.00016819     0.00096248
H         0.92525969     0.15207818    -0.51852880     0.00095637     0.00104387    -0.00056589
H         0.87273712     0.01869776     1.86913739     0.00161269     0.00066601     0.00075624
H        -0.88967194     0.11514518     1.89037430    -0.00024185     0.00085417    -0.00031395
H        -1.02151060     0.14349313    -0.48986542    -0.00034882     0.00068994     0.00019001
     6
  Step:    20            Position(A)                                  Velocity(au)
C        -0.02669128    -0.00042650    -0.06913764    -0.00002554    -0.00007887    -0.00109512
N        -0.05700280    -0.08005192     1.36472596    -0.00010190    -0.00016810     0.00094195
H         0.93078632     0.15794353    -0.52179910     0.00100406     0.00104590    -0.00059599
H         0.88125560     0.02240136     1.87313072     0.00141583     0.00065367     0.00066417
H        -0.89134941     0.11999718     1.88881020    -0.00035623     0.00087645    -0.00024227
H        -1.02344926     0.14739013    -0.48895756    -0.00034329     0.00069976     0.00013393
     6
  Step:    21            Position(A)                                  Velocity(au)
C        -0.02685649    -0.00087409    -0.07518351    -0.00003235    -0.00008067    -0.00105997
N        -0.05749932    -0.08099410     1.36994751    -0.00007500    -0.00016778     0.00091912
H         0.93652223     0.16381001    -0.52521402     0.00103122     0.00104431    -0.00061760
H         0.88861838     0.02602993     1.87658732     0.00120386     0.00063968     0.00056651
H        -0.89366773     0.12497630     1.88765671    -0.00046828     0.00089907    -0.00016906
H        -1.02536127     0.15134228    -0.48836316    -0.00033916     0.00070973     0.00007851
     6
  Step:    22            Position(A)                                  Velocity(au)
C        -0.02705408    -0.00133134    -0.08102652    -0.00003711    -0.00008226    -0.00102259
N        -0.05784401    -0.08193375     1.37503497    -0.00004809    -0.00016711     0.00089397
H         0.94235267     0.16965672    -0.52872627     0.00103764     0.00103830    -0.00063060
H         0.89475830     0.02957609     1.87948478     0.00098205     0.00062432     0.00046591
H        -0.89660171     0.13008136     1.88691394    -0.00057342     0.00092034    -0.00009717
H        -1.02725330     0.15535058    -0.48807699    -0.00033577     0.00071947     0.00002425
     6
  Step:    23            Position(A)                                  Velocity(au)
C        -0.02727283    -0.00179693    -0.08665588    -0.00003992    -0.00008357    -0.00098332
N        -0.05803887    -0.08286892     1.37997685    -0.00002189    -0.00016605     0.00086679
H         0.94816343     0.17545863    -0.53228868     0.00102400     0.00102754    -0.00063531
H         0.89963595     0.03303409     1.88181433     0.00075574     0.00060811     0.00036492
H        -0.90010089     0.13530157     1.88656661    -0.00066740     0.00093882    -0.00002928
H        -1.02912827     0.15941393    -0.48809110    -0.00033258     0.00072883    -0.00002829
     6
  Step:    24            Position(A)                                  Velocity(au)
C        -0.02750207    -0.00226926    -0.09206259    -0.00004089    -0.00008458    -0.00094271
N        -0.05808965    -0.08379738     1.38476323     0.00000297    -0.00016458     0.00083808
H         0.95384534     0.18118907    -0.53585651     0.00099171     0.00101204    -0.00063242
H         0.90324023     0.03640112     1.88358034     0.00053006     0.00059176     0.00026586
H        -0.90409218     0.14061806     1.88658537    -0.00074664     0.00095334     0.00003230
H        -1.03098595     0.16353041    -0.48839447    -0.00032911     0.00073785    -0.00007856
     6
  Step:    25            Position(A)                                  Velocity(au)
C        -0.02773196    -0.00274661    -0.09724045    -0.00004021    -0.00008530    -0.00090138
N        -0.05800555    -0.08471682     1.38938664     0.00002591    -0.00016273     0.00080837
H         0.95929811     0.18682161    -0.53938943     0.00094268     0.00099206    -0.00062293
H         0.90558740     0.03967825     1.88479939     0.00030973     0.00057604     0.00017082
H        -0.90848404     0.14600546     1.88692924    -0.00080840     0.00096295     0.00008577
H        -1.03282345     0.16769833    -0.48897312    -0.00032496     0.00074670    -0.00012607
     6
  Step:    26            Position(A)                                  Velocity(au)
C        -0.02795367    -0.00322729    -0.10218651    -0.00003805    -0.00008574    -0.00085994
N        -0.05779865    -0.08562506     1.39384244     0.00004649    -0.00016053     0.00077819
H         0.96443306     0.19233139    -0.54285292     0.00087916     0.00096798    -0.00060795
H         0.90671895     0.04287097     1.88549888     0.00009891     0.00056181     0.00008152
H        -0.91317169     0.15143341     1.88754872    -0.00085086     0.00096695     0.00012996
H        -1.03463575     0.17191702    -0.48981045    -0.00031981     0.00075567    -0.00017043
     6
  Step:    27            Position(A)                                  Velocity(au)
C        -0.02815945    -0.00370977    -0.10690092    -0.00003462    -0.00008593    -0.00081891
N        -0.05748330    -0.08652016     1.39812874     0.00006436    -0.00015803     0.00074800
H         0.96917450     0.19769575    -0.54621908     0.00080351     0.00094022    -0.00058872
H         0.90669850     0.04598951     1.88571520    -0.00009884     0.00054991    -0.00000061
H        -0.91804247     0.15686798     1.88838922    -0.00087314     0.00096482     0.00016428
H        -1.03641612     0.17618736    -0.49088772    -0.00031340     0.00076506    -0.00021132
     6
  Step:    28            Position(A)                                  Velocity(au)
C        -0.02834262    -0.00419267    -0.11138653    -0.00003009    -0.00008591    -0.00077868
N        -0.05707557    -0.08740049     1.40224591     0.00007928    -0.00015530     0.00071814
H         0.97346006     0.20289436    -0.54946689     0.00071802     0.00090917    -0.00056645
H         0.90560857     0.04904893     1.88549201    -0.00028049     0.00054120    -0.00007447
H        -0.92298095     0.16227274     1.88939429    -0.00087513     0.00095621     0.00018865
H        -1.03815664     0.18051214    -0.49218458    -0.00030557     0.00077527    -0.00024852
     6
  Step:    29            Position(A)                                  Velocity(au)
C        -0.02849750    -0.00467485    -0.11564821    -0.00002463    -0.00008572    -0.00073952
N        -0.05659267    -0.08826476     1.40619602     0.00009109    -0.00015240     0.00068882
H         0.97724038     0.20790898    -0.55258233     0.00062490     0.00087513    -0.00054237
H         0.90354755     0.05206915     1.88487864    -0.00044356     0.00053656    -0.00013921
H        -0.92787327     0.16760958     1.89050843    -0.00085744     0.00094082     0.00020347
H        -1.03984879     0.18489639    -0.49367951    -0.00029627     0.00078671    -0.00028186
     6
  Step:    30            Position(A)                                  Velocity(au)
C        -0.02861927    -0.00515543    -0.11969206    -0.00001837    -0.00008541    -0.00070155
N        -0.05605251    -0.08911205     1.40998209     0.00009969    -0.00014937     0.00066013
H         0.98047839     0.21272299    -0.55555831     0.00052622     0.00083829    -0.00051771
H         0.90062694     0.05507508     1.88392857    -0.00058594     0.00053688    -0.00019422
H        -0.93261088     0.17283918     1.89167948    -0.00082123     0.00091844     0.00020951
H        -1.04148402     0.18934774    -0.49535016    -0.00028554     0.00079988    -0.00031122
     6
  Step:    31            Position(A)                                  Velocity(au)
C        -0.02870375    -0.00563379    -0.12352470    -0.00001140    -0.00008503    -0.00066476
N        -0.05547338    -0.08994179     1.41360743     0.00010504    -0.00014628     0.00063202
H         0.98314838     0.21732065    -0.55839476     0.00042386     0.00079870    -0.00049371
H         0.89696902     0.05809681     1.88269813    -0.00070587     0.00054311    -0.00023908
H        -0.93709350     0.17792118     1.89286069    -0.00076814     0.00088882     0.00020787
H        -1.04305460     0.19387686    -0.49717365    -0.00027362     0.00081538    -0.00033653
     6
  Step:    32            Position(A)                                  Velocity(au)
C        -0.02874721    -0.00610967    -0.12715228    -0.00000377    -0.00008464    -0.00062895
N        -0.05487376    -0.09075369     1.41707490     0.00010709    -0.00014317     0.00060432
H         0.98523508     0.22168631    -0.56109897     0.00031957     0.00075626    -0.00047177
H         0.89270538     0.06117008     1.88124546    -0.00080181     0.00055631    -0.00027359
H        -0.94123133     0.18281387     1.89401224    -0.00070011     0.00085159     0.00019986
H        -1.04455473     0.19849827    -0.49912683    -0.00026100     0.00083399    -0.00035776
     6
  Step:    33            Position(A)                                  Velocity(au)
C        -0.02874600    -0.00658320    -0.13057947     0.00000455    -0.00008434    -0.00059367
N        -0.05427214    -0.09154772     1.42038598     0.00010586    -0.00014007     0.00057665
H         0.98673295     0.22580347    -0.56368650     0.00021506     0.00071072    -0.00045352
H         0.88797531     0.06433687     1.87962931    -0.00087251     0.00057768    -0.00029774
H        -0.94494648     0.18747333     1.89510244    -0.00061931     0.00080622     0.00018704
H        -1.04598221     0.20323157    -0.50118663    -0.00024854     0.00085679    -0.00037501
     6
  Step:    34            Position(A)                                  Velocity(au)
C        -0.02869619    -0.00705512    -0.13380757     0.00001365    -0.00008425    -0.00055806
N        -0.05368704    -0.09232394     1.42353947     0.00010133    -0.00013696     0.00054836
H         0.98764603     0.22965388    -0.56618312     0.00011211     0.00066172    -0.00044110
H         0.88292413     0.06764610     1.87790765    -0.00091703     0.00060846    -0.00031179
H        -0.94817406     0.19185199     1.89610904    -0.00052811     0.00075183     0.00017121
H        -1.04734099     0.20810327    -0.50333086    -0.00023770     0.00088522    -0.00038857
     6
  Step:    35            Position(A)                                  Velocity(au)
C        -0.02859308    -0.00752711    -0.13683182     0.00002370    -0.00008460    -0.00052065
N        -0.05313691    -0.09308221     1.42652958     0.00009351    -0.00013378     0.00051831
H         0.98798894     0.23321710    -0.56862837     0.00001289     0.00060898    -0.00043748
H         0.87770129     0.07115383     1.87613617    -0.00093475     0.00064976    -0.00031619
H        -0.95086325     0.19589657     1.89702064    -0.00042908     0.00068724     0.00015443
H        -1.04864535     0.21314926    -0.50554002    -0.00023092     0.00092116    -0.00039934
     6
  Step:    36            Position(A)                                  Velocity(au)
C        -0.02843089    -0.00800236    -0.13963690     0.00003484    -0.00008573    -0.00047894
N        -0.05264004    -0.09382174     1.42934267     0.00008251    -0.00013032     0.00048472
H         0.98779036     0.23647222    -0.57108126    -0.00007942     0.00055317    -0.00044669
H         0.87245841     0.07492096     1.87436744    -0.00092547     0.00070154    -0.00031133
H        -0.95297822     0.19954658     1.89783805    -0.00032500     0.00061146     0.00013885
H        -1.04992639     0.21841689    -0.50780198    -0.00023183     0.00096641    -0.00040954
     6
  Step:    37            Position(A)                                  Velocity(au)
C        -0.02820330    -0.00848636    -0.14219043     0.00004688    -0.00008809    -0.00042956
N        -0.05221376    -0.09454028     1.43195283     0.00006869    -0.00012627     0.00044514
H         0.98710039     0.23940623    -0.57362619    -0.00016019     0.00049751    -0.00047285
H         0.86734667     0.07900297     1.87265285    -0.00088976     0.00076055    -0.00029672
H        -0.95449954     0.20273793     1.89857415    -0.00021885     0.00052555     0.00012607
H        -1.05123916     0.22396191    -0.51012215    -0.00024442     0.00102078    -0.00042362
     6
  Step:    38            Position(A)                                  Velocity(au)
C        -0.02790672    -0.00898727    -0.14443950     0.00006881    -0.00010751    -0.00043242
N        -0.05187208    -0.09523345     1.43431944     0.00006188    -0.00014181     0.00046490
H         0.98599944     0.24203452    -0.57636781    -0.00026250     0.00052444    -0.00060401
H         0.86251073     0.08342404     1.87105001    -0.00096977     0.00095712    -0.00031626
H        -0.95542504     0.20542234     1.89924749    -0.00013266     0.00050848     0.00013538
H        -1.05265903     0.22982951    -0.51253819    -0.00031498     0.00126170    -0.00052277
     6
  Step:    39            Position(A)                                  Velocity(au)
C        -0.02755482    -0.00958663    -0.14672178     0.00005758    -0.00010629    -0.00039247
N        -0.05153436    -0.09601106     1.43680346     0.00005767    -0.00013763     0.00042976
H         0.98444543     0.24511475    -0.57963466    -0.00030038     0.00056954    -0.00056068
H         0.85723967     0.08854313     1.86951483    -0.00090819     0.00088979    -0.00023319
H        -0.95587317     0.20836850     1.89984336    -0.00002703     0.00054145     0.00007817
H        -1.05427224     0.23663208    -0.51565504    -0.00025194     0.00117823    -0.00057967
     6
  Step:    40            Position(A)                                  Velocity(au)
C        -0.02726367    -0.01017435    -0.14882295     0.00004743    -0.00010385    -0.00036472
N        -0.05122795    -0.09677055     1.43911933     0.00005077    -0.00013514     0.00040283
H         0.98264457     0.24839556    -0.58262985    -0.00034818     0.00059786    -0.00051179
H         0.85236739     0.09336189     1.86844560    -0.00082827     0.00084931    -0.00014998
H        -0.95572694     0.21146967     1.90012052     0.00007883     0.00056340     0.00002295
H        -1.05547284     0.24298886    -0.51901238    -0.00017307     0.00110484    -0.00061301
     6
  Step:    41            Position(A)                                  Velocity(au)
C        -0.02702537    -0.01074583    -0.15079308     0.00003853    -0.00010083    -0.00034385
N        -0.05096766    -0.09751960     1.44130016     0.00004155    -0.00013381     0.00038037
H         0.98055883     0.25178845    -0.58534764    -0.00040016     0.00061301    -0.00046372
H         0.84799391     0.09802380     1.86784069    -0.00073174     0.00083120    -0.00006666
H        -0.95499319     0.21465753     1.90009952     0.00018236     0.00057470    -0.00002822
H        -1.05620413     0.24896512    -0.52249791    -0.00008691     0.00104202    -0.00062981
     6
  Step:    42            Position(A)                                  Velocity(au)
C        -0.02683384    -0.01129917    -0.15265897     0.00003050    -0.00009757    -0.00032677
N        -0.05076446    -0.09826337     1.44336279     0.00003071    -0.00013329     0.00036025
H         0.97818034     0.25523443    -0.58780324    -0.00045201     0.00061966    -0.00041882
H         0.84420401     0.10263487     1.86770198    -0.00062177     0.00082930     0.00001708
H        -0.95369255     0.21788108     1.89980566     0.00028127     0.00057864    -0.00007483
H        -1.05644246     0.25461381    -0.52603866     0.00000222     0.00098729    -0.00063579
     6
  Step:    43            Position(A)                                  Velocity(au)
C        -0.02668527    -0.01183370    -0.15443633     0.00002301    -0.00009425    -0.00031201
N        -0.05062524    -0.09900568     1.44531671     0.00001896    -0.00013338     0.00034152
H         0.97551916     0.25869729    -0.59001720    -0.00050119     0.00062112    -0.00037759
H         0.84106159     0.10726997     1.86803116    -0.00050229     0.00083883     0.00010081
H        -0.95185716     0.22110900     1.89926521     0.00037366     0.00057832    -0.00011669
H        -1.05617934     0.25997279    -0.52958664     0.00009222     0.00093832    -0.00063452
     6
  Step:    44            Position(A)                                  Velocity(au)
C        -0.02657747    -0.01234933    -0.15613555     0.00001581    -0.00009093    -0.00029883
N        -0.05055324    -0.09974961     1.44716823     0.00000689    -0.00013398     0.00032377
H         0.97259575     0.26215536    -0.59201055    -0.00054617     0.00061951    -0.00034002
H         0.83860713     0.11198159     1.86882528    -0.00037760     0.00085627     0.00018344
H        -0.94952905     0.22432508     1.89850544     0.00045781     0.00057608    -0.00015358
H        -1.05541486     0.26506912    -0.53310891     0.00018173     0.00089350    -0.00062820
     6