     6
  Step:     0            Position(A)                                  Velocity(au)
C        -0.04321474     0.02948403    -0.00433189     0.00001757     0.00005034     0.00003184
N        -0.03270573    -0.06750104     1.31307857     0.00001706     0.00000172    -0.00000138
H         0.92663568    -0.02651915    -0.47480478    -0.00057379    -0.00008745     0.00061453
H         0.79916102    -0.07972058     1.84939783    -0.00038131    -0.00021992    -0.00058713
H        -0.96921837    -0.01897420     1.89154580     0.00035629     0.00008007    -0.00023514
H        -1.00007680     0.04212095    -0.56948045     0.00015242    -0.00039645    -0.00015237
     6
  Step:     1            Position(A)                                  Velocity(au)
C        -0.04314493     0.02976927    -0.00418809     0.00000748     0.00005405     0.00002103
N        -0.03269193    -0.06749808     1.31312625    -0.00001234    -0.00000062     0.00001835
H         0.92380478    -0.02702270    -0.47181650    -0.00045466    -0.00009713     0.00047458
H         0.79756587    -0.08090605     1.84658644    -0.00019467    -0.00021415    -0.00043639
H        -0.96668871    -0.01854500     1.88995163     0.00056544     0.00007717    -0.00034549
H        -0.99920372     0.03994066    -0.57043855     0.00016629    -0.00040131    -0.00019817
     6
  Step:     2            Position(A)                                  Velocity(au)
C        -0.04313293     0.03007510    -0.00410198    -0.00000343     0.00005794     0.00001075
N        -0.03284068    -0.06750787     1.31327927    -0.00004208    -0.00000296     0.00003723
H         0.92166410    -0.02758128    -0.46961535    -0.00032344    -0.00010764     0.00032800
H         0.79703233    -0.08206231     1.84462594     0.00000357    -0.00020946    -0.00027871
H        -0.96303538    -0.01813041     1.88776793     0.00076644     0.00007493    -0.00045017
H        -0.99825846     0.03773273    -0.57164738     0.00017903    -0.00040711    -0.00024440
     6
  Step:     3            Position(A)                                  Velocity(au)
C        -0.04318237     0.03040238    -0.00407067    -0.00001486     0.00006197     0.00000095
N        -0.03315174    -0.06753038     1.31353307    -0.00007144    -0.00000530     0.00005534
H         0.92027040    -0.02819895    -0.46823227    -0.00018339    -0.00011882     0.00017643
H         0.79760487    -0.08319498     1.84354084     0.00020676    -0.00020571    -0.00011870
H        -0.95831344    -0.01772620     1.88503243     0.00095582     0.00007358    -0.00054688
H        -0.99724733     0.03549191    -0.57310925     0.00019063    -0.00041389    -0.00029114
     6
  Step:     4            Position(A)                                  Velocity(au)
C        -0.04329516     0.03075188    -0.00409159    -0.00002648     0.00006614    -0.00000842
N        -0.03362084    -0.06756572     1.31388365    -0.00009966    -0.00000767     0.00007279
H         0.91966136    -0.02887882    -0.46768863    -0.00003817    -0.00013046     0.00002172
H         0.79929022    -0.08430882     1.84332964     0.00040789    -0.00020271     0.00003884
H        -0.95259732    -0.01732691     1.88179570     0.00112975     0.00007334    -0.00063312
H        -0.99617662     0.03321282    -0.57482683     0.00020109    -0.00042162    -0.00033842
     6
  Step:     5            Position(A)                                  Velocity(au)
C        -0.04347141     0.03112424    -0.00416261    -0.00003796     0.00007040    -0.00001746
N        -0.03423949    -0.06761415     1.31432749    -0.00012595    -0.00001012     0.00008962
H         0.91985383    -0.02962279    -0.46799526     0.00010829    -0.00014232    -0.00013411
H         0.80205675    -0.08540745     1.84396477     0.00059997    -0.00020023     0.00018921
H        -0.94598294    -0.01692571     1.87812237     0.00128396     0.00007449    -0.00070610
H        -0.99505255     0.03089016    -0.57680287     0.00021042    -0.00043027    -0.00038619
     6
  Step:     6            Position(A)                                  Velocity(au)
C        -0.04370931     0.03151994    -0.00428204    -0.00004894     0.00007473    -0.00002622
N        -0.03499484    -0.06767611     1.31486129    -0.00014949    -0.00001266     0.00010583
H         0.92084277    -0.03043140    -0.46915171     0.00025190    -0.00015413    -0.00028888
H         0.80583542    -0.08649318     1.84539382     0.00077629    -0.00019801     0.00032800
H        -0.93859026    -0.01651424     1.87409272     0.00141373     0.00007733    -0.00076277
H        -0.99388106     0.02851885    -0.57903985     0.00021868    -0.00043977    -0.00043433
     6
  Step:     7            Position(A)                                  Velocity(au)
C        -0.04400516     0.03193924    -0.00444860    -0.00005908     0.00007908    -0.00003479
N        -0.03586975    -0.06775221     1.31548159    -0.00016950    -0.00001533     0.00012135
H         0.92260094    -0.03130365    -0.47114566     0.00038856    -0.00016559    -0.00044031
H         0.81052270    -0.08756691     1.84754178     0.00093087    -0.00019580     0.00045129
H        -0.93056533    -0.01608241     1.86980388     0.00151409     0.00008217    -0.00079995
H        -0.99266769     0.02609420    -0.58153950     0.00022595    -0.00045002    -0.00048264
     6
  Step:     8            Position(A)                                  Velocity(au)
C        -0.04435350     0.03238216    -0.00466141    -0.00006806     0.00008339    -0.00004322
N        -0.03684297    -0.06784326     1.31618445    -0.00018525    -0.00001816     0.00013605
H         0.92507951    -0.03223697    -0.47395268     0.00051441    -0.00017642    -0.00058615
H         0.81598518    -0.08862815     1.85031449     0.00105867    -0.00019336     0.00055590
H        -0.92208130    -0.01561832     1.86537039     0.00158000     0.00008936    -0.00081443
H        -0.99141739     0.02361201    -0.58430237     0.00023237    -0.00046093    -0.00053085
     6
  Step:     9            Position(A)                                  Velocity(au)
C        -0.04474726     0.03284849    -0.00491982    -0.00007562     0.00008763    -0.00005154
N        -0.03788959    -0.06795022     1.31696500    -0.00019613    -0.00002118     0.00014974
H         0.92820960    -0.03322717    -0.47753652     0.00062595    -0.00018632    -0.00072424
H         0.82206548    -0.08967513     1.85360279     0.00115589    -0.00019046     0.00063945
H        -0.91333838    -0.01510813     1.86092403     0.00160675     0.00009925    -0.00080321
H        -0.99013418     0.02106864    -0.58732742     0.00023811    -0.00047239    -0.00057861
     6
  Step:    10            Position(A)                                  Velocity(au)
C        -0.04517807     0.03333772    -0.00522336    -0.00008154     0.00009175    -0.00005976
N        -0.03898164    -0.06807420     1.31781723    -0.00020167    -0.00002441     0.00016218
H         0.93190493    -0.03426863    -0.48184989     0.00072027    -0.00019504    -0.00085265
H         0.82858914    -0.09070496     1.85728720     0.00122007    -0.00018694     0.00070052
H        -0.90456109    -0.01453605     1.85661202     0.00159039     0.00011220    -0.00076381
H        -0.98882097     0.01846104    -0.59061168     0.00024344    -0.00048431    -0.00062556
     6
  Step:    11            Position(A)                                  Velocity(au)
C        -0.04563658     0.03384917    -0.00557162    -0.00008569     0.00009572    -0.00006790
N        -0.04008904    -0.06821645     1.31873383    -0.00020157    -0.00002788     0.00017316
H         0.93606515    -0.03535438    -0.48683577     0.00079517    -0.00020238    -0.00096976
H         0.83537194    -0.09171395     1.86124287     0.00125016    -0.00018268     0.00073858
H        -0.89599308    -0.01388447     1.85259370     0.00152822     0.00012850    -0.00069451
H        -0.98747919     0.01578665    -0.59415003     0.00024864    -0.00049662    -0.00067132
     6
  Step:    12            Position(A)                                  Velocity(au)
C        -0.04611290     0.03438193    -0.00596414    -0.00008801     0.00009951    -0.00007595
N        -0.04118056    -0.06837832     1.31970626    -0.00019575    -0.00003159     0.00018247
H         0.94057964    -0.03647646    -0.49242923     0.00084919    -0.00020819    -0.00107436
H         0.84222742    -0.09269786     1.86534451     0.00124645    -0.00017762     0.00075400
H        -0.88788934    -0.01313426     1.84903549     0.00141928     0.00014839    -0.00059470
H        -0.98610852     0.01304325    -0.59793523     0.00025408    -0.00050931    -0.00071551
     6
  Step:    13            Position(A)                                  Velocity(au)
C        -0.04659694     0.03493502    -0.00640039    -0.00008850     0.00010311    -0.00008388
N        -0.04222517    -0.06856118     1.32072503    -0.00018439    -0.00003556     0.00019000
H         0.94533188    -0.03762619    -0.49855959     0.00088171    -0.00021237    -0.00116568
H         0.84897369    -0.09365220     1.86947081     0.00121036    -0.00017175     0.00074789
H        -0.88050537    -0.01226514     1.84610409     0.00126467     0.00017204    -0.00046511
H        -0.98470662     0.01022886    -0.60195795     0.00026014    -0.00052237    -0.00075782
     6
  Step:    14            Position(A)                                  Velocity(au)
C        -0.04707888     0.03550737    -0.00687969    -0.00008725     0.00010652    -0.00009167
N        -0.04319318    -0.06876647     1.32178018    -0.00016784    -0.00003979     0.00019572
H         0.95020382    -0.03879452    -0.50515295     0.00089284    -0.00021489    -0.00124339
H         0.85543889    -0.09457255     1.87350798     0.00114421    -0.00016511     0.00072193
H        -0.87408513    -0.01125637     1.84395872     0.00106780     0.00019946    -0.00030790
H        -0.98326899     0.00734144    -0.60620708     0.00026725    -0.00053583    -0.00079797
     6
  Step:    15            Position(A)                                  Velocity(au)
C        -0.04754945     0.03609794    -0.00740120    -0.00008438     0.00010975    -0.00009930
N        -0.04405763    -0.06899556     1.32286183    -0.00014673    -0.00004426     0.00019971
H         0.95507960    -0.03997234    -0.51213443     0.00088326    -0.00021579    -0.00130752
H         0.86146577    -0.09545477     1.87735260     0.00105098    -0.00015776     0.00067821
H        -0.86884757    -0.01008747     1.84274255     0.00083445     0.00023053    -0.00012679
H        -0.98178884     0.00437883    -0.61066991     0.00027583    -0.00054976    -0.00083572
     6
  Step:    16            Position(A)                                  Velocity(au)
C        -0.04800023     0.03670576    -0.00796395    -0.00008007     0.00011283    -0.00010674
N        -0.04479533    -0.06924974     1.32396081    -0.00012181    -0.00004895     0.00020215
H         0.95984828    -0.04115071    -0.51942993     0.00085411    -0.00021511    -0.00135840
H         0.86691468    -0.09629515     1.88091347     0.00093398    -0.00014981     0.00061902
H        -0.86497369    -0.00873915     1.84257423     0.00057256     0.00026496     0.00007309
H        -0.98025715     0.00133856    -0.61533246     0.00028626    -0.00056418    -0.00087089
     6
  Step:    17            Position(A)                                  Velocity(au)
C        -0.04842377     0.03732996    -0.00856676    -0.00007450     0.00011576    -0.00011396
N        -0.04538781    -0.06953013     1.32506929    -0.00009402    -0.00005384     0.00020334
H         0.96440632    -0.04232124    -0.52696778     0.00080688    -0.00021294    -0.00139655
H         0.87166457    -0.09709063     1.88411214     0.00079671    -0.00014135     0.00054675
H        -0.86259531    -0.00719423     1.84354066     0.00029183     0.00030225     0.00028544
H        -0.97866293    -0.00178184    -0.62017976     0.00029891    -0.00057913    -0.00090326
     6
  Step:    18            Position(A)                                  Velocity(au)
C        -0.04881373     0.03796977    -0.00920835    -0.00006787     0.00011856    -0.00012094
N        -0.04582198    -0.06983765     1.32618121    -0.00006436    -0.00005887     0.00020362
H         0.96865903    -0.04347590    -0.53467964     0.00074318    -0.00020935    -0.00142258
H         0.87561440    -0.09783863     1.88688374     0.00064276    -0.00013248     0.00046382
H        -0.86178702    -0.00543865     1.84569115     0.00000313     0.00034178     0.00050309
H        -0.97699322    -0.00498535    -0.62519565     0.00031407    -0.00059468    -0.00093261
     6
  Step:    19            Position(A)                                  Velocity(au)
C        -0.04916485     0.03862449    -0.00988727    -0.00006038     0.00012124    -0.00012763
N        -0.04609051    -0.07017288     1.32729255    -0.00003387    -0.00006397     0.00020335
H         0.97252101    -0.04460712    -0.54250073     0.00066471    -0.00020442    -0.00143709
H         0.87868279    -0.09853719     1.88917654     0.00047566    -0.00012330     0.00037258
H        -0.86256113    -0.00346232     1.84903379    -0.00028209     0.00038274     0.00071837
H        -0.97523363    -0.00827507    -0.63036283     0.00033196    -0.00061079    -0.00095869
     6
  Step:    20            Position(A)                                  Velocity(au)
C        -0.04947293     0.03929352    -0.01060185    -0.00005220     0.00012381    -0.00013399
N        -0.04619182    -0.07053610     1.32840140    -0.00000361    -0.00006909     0.00020290
H         0.97591638    -0.04570783    -0.55036986     0.00057320    -0.00019824    -0.00144065
H         0.88080771    -0.09918488     1.89095164     0.00029892    -0.00011392     0.00027535
H        -0.86486687    -0.00125982     1.85353439    -0.00055255     0.00042421     0.00092366
H        -0.97336881    -0.01165397    -0.63566271     0.00035270    -0.00062739    -0.00098120
     6
  Step:    21            Position(A)                                  Velocity(au)
C        -0.04973479     0.03997623    -0.01135012    -0.00004353     0.00012626    -0.00013995
N        -0.04612990    -0.07092712     1.32950775     0.00002547    -0.00007412     0.00020258
H         0.97877894    -0.04677137    -0.55822915     0.00047040    -0.00019085    -0.00143380
H         0.88194627    -0.09978086     1.89218267     0.00011606    -0.00010441     0.00017440
H        -0.86859367     0.00116907     1.85911790    -0.00079789     0.00046521     0.00111177
H        -0.97138302    -0.01512463    -0.64107513     0.00037627    -0.00064436    -0.00099980
     6
  Step:    22            Position(A)                                  Velocity(au)
C        -0.04994817     0.04067195    -0.01212976    -0.00003451     0.00012856    -0.00014542
N        -0.04591377    -0.07134536     1.33061315     0.00005248    -0.00007900     0.00020262
H         0.98105206    -0.04779150    -0.56602370     0.00035803    -0.00018233    -0.00141698
H         0.88207481    -0.10032484     1.89285564    -0.00006932    -0.00009490     0.00007202
H        -0.87357805     0.00381923     1.86567239    -0.00100922     0.00050474     0.00127640
H        -0.96926083    -0.01868894    -0.64657824     0.00040253    -0.00066154    -0.00101413
     6
  Step:    23            Position(A)                                  Velocity(au)
C        -0.05011166     0.04137992    -0.01293798    -0.00002531     0.00013069    -0.00015033
N        -0.04555686    -0.07178974     1.33172014     0.00007668    -0.00008363     0.00020314
H         0.98268828    -0.04876226    -0.57370106     0.00023783    -0.00017274    -0.00139062
H         0.88118935    -0.10081706     1.89296906    -0.00025348    -0.00008548    -0.00002942
H        -0.87961319     0.00668027     1.87305480    -0.00117957     0.00054185     0.00141245
H        -0.96698778    -0.02234792    -0.65214830     0.00043125    -0.00067872    -0.00102383
     6
  Step:    24            Position(A)                                  Velocity(au)
C        -0.05022460     0.04209924    -0.01377151    -0.00001606     0.00013263    -0.00015456
N        -0.04507628    -0.07225875     1.33283166     0.00009747    -0.00008794     0.00020414
H         0.98364949    -0.04967803    -0.58121113     0.00011157    -0.00016213    -0.00135517
H         0.87930649    -0.10125837     1.89253430    -0.00043249    -0.00007627    -0.00012750
H        -0.88646045     0.00973697     1.88109817    -0.00130424     0.00057571     0.00151625
H        -0.96455106    -0.02610144    -0.65775977     0.00046202    -0.00069568    -0.00102857
     6
  Step:    25            Position(A)                                  Velocity(au)
C        -0.05028706     0.04282887    -0.01462650    -0.00000688     0.00013434    -0.00015801
N        -0.04449198    -0.07275046     1.33395038     0.00011439    -0.00009184     0.00020554
H         0.98390716    -0.05053352    -0.58850632    -0.00001893    -0.00015058    -0.00131113
H         0.87646442    -0.10165029     1.89157610    -0.00060225    -0.00006740    -0.00021970
H        -0.89386204     0.01296997     1.88961991    -0.00138083     0.00060564     0.00158569
H        -0.96194018    -0.02994822    -0.66338545     0.00049437    -0.00071220    -0.00102810
     6
  Step:    26            Position(A)                                  Velocity(au)
C        -0.05029975     0.04356758    -0.01549852     0.00000211     0.00013580    -0.00016057
N        -0.04382599    -0.07326258     1.33507816     0.00012713    -0.00009529     0.00020712
H         0.98344258    -0.05132382    -0.59554185    -0.00015180    -0.00013816    -0.00125912
H         0.87272391    -0.10199501     1.89013297    -0.00075853    -0.00005900    -0.00030345
H        -0.90155293     0.01635661     1.89842978    -0.00140909     0.00063112     0.00162010
H        -0.95914756    -0.03388575    -0.66899690     0.00052772    -0.00072806    -0.00102225
     6
  Step:    27            Position(A)                                  Velocity(au)
C        -0.05026395     0.04431403    -0.01638257     0.00001081     0.00013700    -0.00016217
N        -0.04310172    -0.07379253     1.33621552     0.00013549    -0.00009823     0.00020864
H         0.98224702    -0.05204446    -0.60227623    -0.00028518    -0.00012502    -0.00119984
H         0.86816898    -0.10229548     1.88825753    -0.00089709    -0.00005122    -0.00037618
H        -0.90927210     0.01987198     1.90733762    -0.00139073     0.00065186     0.00162021
H        -0.95616901    -0.03791043    -0.67456493     0.00056141    -0.00074306    -0.00101097
     6
  Step:    28            Position(A)                                  Velocity(au)
C        -0.05018148     0.04506676    -0.01727314     0.00001912     0.00013791    -0.00016269
N        -0.04234327    -0.07433751     1.33736131     0.00013942    -0.00010064     0.00020975
H         0.98032181    -0.05269196    -0.60867190    -0.00041721    -0.00011127    -0.00113411
H         0.86290684    -0.10255555     1.88601636    -0.00101378    -0.00004422    -0.00043541
H        -0.91677193     0.02349005     1.91616003    -0.00132896     0.00066775     0.00158784
H        -0.95300397    -0.04201719    -0.68006014     0.00059475    -0.00075705    -0.00099433
     6
  Step:    29            Position(A)                                  Velocity(au)
C        -0.05005457     0.04582423    -0.01816423     0.00002698     0.00013853    -0.00016209
N        -0.04157495    -0.07489461     1.33851252     0.00013893    -0.00010250     0.00021013
H         0.97767816    -0.05326292    -0.61469580    -0.00054612    -0.00009696    -0.00106288
H         0.85706716    -0.10277973     1.88348940    -0.00110472    -0.00003812    -0.00047884
H        -0.92382542     0.02718440     1.92472588    -0.00122818     0.00067883     0.00152573
H        -0.94965598    -0.04620079    -0.68545374     0.00062701    -0.00077000    -0.00097253
     6
  Step:    30            Position(A)                                  Velocity(au)
C        -0.04988585     0.04658489    -0.01904946     0.00003432     0.00013886    -0.00016030
N        -0.04082075    -0.07546086     1.33966417     0.00013412    -0.00010383     0.00020944
H         0.97433694    -0.05375457    -0.62031999    -0.00067018    -0.00008223    -0.00098716
H         0.85080028    -0.10297327     1.88076878    -0.00116646    -0.00003304    -0.00050445
H        -0.93023154     0.03092929     1.93288049    -0.00109350     0.00068531     0.00143722
H        -0.94613263    -0.05045556    -0.69071812     0.00065747    -0.00078188    -0.00094589
     6
  Step:    31            Position(A)                                  Velocity(au)
C        -0.04967823     0.04734718    -0.01992220     0.00004109     0.00013893    -0.00015728
N        -0.04010400    -0.07603334     1.34080952     0.00012517    -0.00010463     0.00020738
H         0.97032821    -0.05416477    -0.62552217    -0.00078781    -0.00006719    -0.00090806
H         0.84427439    -0.10314209     1.87795703    -0.00119626    -0.00002910    -0.00051065
H        -0.93581803     0.03470034     1.94048803    -0.00093041     0.00068755     0.00132597
H        -0.94244547    -0.05477573    -0.69582747     0.00068544    -0.00079271    -0.00091481
     6
  Step:    32            Position(A)                                  Velocity(au)
C        -0.04943486     0.04810967    -0.02077565     0.00004727     0.00013875    -0.00015303
N        -0.03944697    -0.07660924     1.34194021     0.00011231    -0.00010494     0.00020370
H         0.96569066    -0.05449200    -0.63028602    -0.00089753    -0.00005196    -0.00082669
H         0.83767118    -0.10329266     1.87516438    -0.00119223    -0.00002638    -0.00049639
H        -0.94044289     0.03847521     1.94743314    -0.00074447     0.00068596     0.00119582
H        -0.93860988    -0.05915570    -0.70075825     0.00071027    -0.00080259    -0.00087976
     6
  Step:    33            Position(A)                                  Velocity(au)
C        -0.04915908     0.04887101    -0.02160292     0.00005282     0.00013834    -0.00014755
N        -0.03887049    -0.07718592     1.34304670     0.00009585    -0.00010480     0.00019822
H         0.96047086    -0.05473541    -0.63460147    -0.00099803    -0.00003665    -0.00074421
H         0.83118041    -0.10343179     1.87250527    -0.00115357    -0.00002492    -0.00046132
H        -0.94399435     0.04223403     1.95362135    -0.00054111     0.00068105     0.00105057
H        -0.93464476    -0.06359033    -0.70548960     0.00073137    -0.00081161    -0.00084126
     6
  Step:    34            Position(A)                                  Velocity(au)
C        -0.04885434     0.04963000    -0.02239716     0.00005774     0.00013774    -0.00014084
N        -0.03839363    -0.07776096     1.34411861     0.00007614    -0.00010425     0.00019084
H         0.95472255    -0.05489473    -0.63846477    -0.00108810    -0.00002135    -0.00066177
H         0.82499365    -0.10356651     1.87009452    -0.00108070    -0.00002473    -0.00040583
H        -0.94638956     0.04595976     1.95897865    -0.00032546     0.00067336     0.00089389
H        -0.93057222    -0.06807517    -0.71000353     0.00074822    -0.00081995    -0.00079986
     6
  Step:    35            Position(A)                                  Velocity(au)
C        -0.04852417     0.05038564    -0.02315162     0.00006201     0.00013698    -0.00013293
N        -0.03803325    -0.07833224     1.34514520     0.00005363    -0.00010334     0.00018153
H         0.94850589    -0.05497023    -0.64187843    -0.00116669    -0.00000618    -0.00058047
H         0.81929685    -0.10370373     1.86804264    -0.00097540    -0.00002578    -0.00033118
H        -0.94757313     0.04963839     1.96345073    -0.00010232     0.00066346     0.00072926
H        -0.92641722    -0.07260662    -0.71428507     0.00076033    -0.00082775    -0.00075610
     6
  Step:    36            Position(A)                                  Velocity(au)
C        -0.04817216     0.05113710    -0.02385971     0.00006562     0.00013610    -0.00012386
N        -0.03780360    -0.07889791     1.34611585     0.00002883    -0.00010214     0.00017037
H         0.94188672    -0.05496270    -0.64485102    -0.00123283     0.00000881    -0.00050135
H         0.81426239    -0.10385011     1.86645089    -0.00084085    -0.00002798    -0.00023949
H        -0.94751528     0.05325909     1.96700193     0.00012384     0.00065194     0.00055995
H        -0.92220713    -0.07718204    -0.71832214     0.00076730    -0.00083520    -0.00071048
     6
  Step:    37            Position(A)                                  Velocity(au)
C        -0.04780192     0.05188374    -0.02451501     0.00006857     0.00013513    -0.00011367
N        -0.03771587    -0.07945649     1.34702044     0.00000234    -0.00010070     0.00015746
H         0.93493594    -0.05487331    -0.64739686    -0.00128569     0.00002353    -0.00042541
H         0.81004154    -0.10401176     1.86540655    -0.00068155    -0.00003123    -0.00013372
H        -0.94620999     0.05681432     1.96961414     0.00034887     0.00063938     0.00038902
H        -0.91797143    -0.08179978    -0.72210541     0.00076879    -0.00084246    -0.00066346
     6
  Step:    38            Position(A)                                  Velocity(au)
C        -0.04741710     0.05262509    -0.02511138     0.00007086     0.00013408    -0.00010239
N        -0.03777780    -0.08000682     1.34784979    -0.00002518    -0.00009909     0.00014301
H         0.92772891    -0.05470359    -0.64953559    -0.00132449     0.00003794    -0.00035356
H         0.80675728    -0.10419406     1.86497834    -0.00050320    -0.00003538    -0.00001760
H        -0.94367357     0.06029983     1.97128576     0.00056883     0.00062639     0.00021939
H        -0.91374134    -0.08645908    -0.72562798     0.00076450    -0.00084966    -0.00061542
     6
  Step:    39            Position(A)                                  Velocity(au)
C        -0.04702133     0.05336082    -0.02564292     0.00007248     0.00013299    -0.00009007
N        -0.03799328    -0.08054810     1.34859589    -0.00005302    -0.00009737     0.00012725
H         0.92034494    -0.05445533    -0.65129174    -0.00134852     0.00005200    -0.00028662
H         0.80449819    -0.10440148     1.86521265    -0.00031243    -0.00004024     0.00010456
H        -0.93994359     0.06371478     1.97203105     0.00077989     0.00061356     0.00005390
H        -0.90954945    -0.09115992    -0.72888505     0.00075420    -0.00085690    -0.00056670
     6
  Step:    40            Position(A)                                  Velocity(au)
C        -0.04661834     0.05409070    -0.02610402     0.00007342     0.00013185    -0.00007678
N        -0.03836208    -0.08107991     1.34925215    -0.00008039    -0.00009560     0.00011043
H         0.91286708    -0.05413051    -0.65269440    -0.00135712     0.00006566    -0.00022538
H         0.80331402    -0.10463749     1.86613063    -0.00011653    -0.00004562     0.00022802
H        -0.93507852     0.06706181     1.97187981     0.00097825     0.00060154    -0.00010463
H        -0.90542943    -0.09590282    -0.73187348     0.00073772    -0.00086422    -0.00051755
     6
  Step:    41            Position(A)                                  Velocity(au)
C        -0.04621188     0.05481457    -0.02648942     0.00007366     0.00013068    -0.00006257
N        -0.03887960    -0.08160217     1.34981342    -0.00010650    -0.00009385     0.00009282
H         0.90538173    -0.05373133    -0.65377677    -0.00134974     0.00007891    -0.00017053
H         0.80321333    -0.10490448     1.86772672     0.00007699    -0.00005134     0.00034791
H        -0.92915771     0.07034717     1.97087744     0.00116005     0.00059097    -0.00025333
H        -0.90141563    -0.10068854    -0.73459143     0.00071496    -0.00087161    -0.00046817
     6
  Step:    42            Position(A)                                  Velocity(au)
C        -0.04580580     0.05553229    -0.02679425     0.00007320     0.00012948    -0.00004754
N        -0.03953687    -0.08211517     1.35027604    -0.00013056    -0.00009218     0.00007468
H         0.89797783    -0.05326005    -0.65457552    -0.00132601     0.00009172    -0.00012261
H         0.80416335    -0.10520380     1.86996855     0.00026083    -0.00005720     0.00045949
H        -0.92228178     0.07358097     1.96908523     0.00132138     0.00058258    -0.00038928
H        -0.89754255    -0.10551778    -0.73703801     0.00068596    -0.00087903    -0.00041871
     6
  Step:    43            Position(A)                                  Velocity(au)
C        -0.04540396     0.05624369    -0.02701416     0.00007203     0.00012823    -0.00003179
N        -0.04032067    -0.08261957     1.35063766    -0.00015183    -0.00009065     0.00005623
H         0.89074572    -0.05271901    -0.65513014    -0.00128584     0.00010408    -0.00008208
H         0.80609223    -0.10553581     1.87279843     0.00042827    -0.00006304     0.00055842
H        -0.91457284     0.07677742     1.96658070     0.00145836     0.00057711    -0.00050951
H        -0.89384433    -0.11039096    -0.73921296     0.00065085    -0.00088640    -0.00036926
     6
  Step:    44            Position(A)                                  Velocity(au)
C        -0.04501027     0.05694859    -0.02714541     0.00007015     0.00012693    -0.00001546
N        -0.04121381    -0.08311643     1.35089710    -0.00016963    -0.00008935     0.00003767
H         0.88377580    -0.05211050    -0.65548214    -0.00122941     0.00011602    -0.00004923
H         0.80889352    -0.10590005     1.87613624     0.00057361    -0.00006872     0.00064101
H        -0.90617427     0.07995512     1.96345771     0.00156722     0.00057540    -0.00061109
H        -0.89035392    -0.11530798    -0.74111649     0.00060996    -0.00089361    -0.00031992
     6