     6
  Step:     0            Position(A)                                  Velocity(au)
C        -0.03951783     0.03155055     0.03015677    -0.00009188     0.00002167     0.00023082
N        -0.03281618    -0.07218407     1.28496509     0.00023054    -0.00002538    -0.00018312
H         0.88996905    -0.08186841    -0.53487681    -0.00044614    -0.00001253     0.00017598
H         0.74404770    -0.09264156     1.89922975    -0.00180648    -0.00001726    -0.00121384
H        -0.92258905     0.09519977     1.83356525    -0.00101243     0.00040818     0.00044947
H        -0.99744399     0.03666976    -0.52155335     0.00115620    -0.00028394     0.00038262
     6
  Step:     1            Position(A)                                  Velocity(au)
C        -0.04054976     0.03190532     0.03190895    -0.00009573     0.00004381     0.00008823
N        -0.03050637    -0.07255004     1.28368177     0.00018194    -0.00004111    -0.00005291
H         0.88586253    -0.08215044    -0.53402195    -0.00029090    -0.00004069    -0.00002382
H         0.72636387    -0.09276493     1.88734539    -0.00132144    -0.00000859    -0.00087185
H        -0.93294607     0.09973583     1.83811275    -0.00084066     0.00041359     0.00035435
H        -0.98509842     0.03339712    -0.51811701     0.00106548    -0.00031510     0.00022515
     6
  Step:     2            Position(A)                                  Velocity(au)
C        -0.04161217     0.03250891     0.03208697    -0.00009680     0.00006681    -0.00005391
N        -0.02883597    -0.07308336     1.28380769     0.00011656    -0.00005596     0.00007245
H         0.88360495    -0.08275858    -0.53539794    -0.00011530    -0.00007126    -0.00022719
H         0.71513876    -0.09282959     1.88015640    -0.00065557    -0.00000545    -0.00037898
H        -0.94098010     0.10424782     1.84131726    -0.00060065     0.00040610     0.00021378
H        -0.97413461     0.02977645    -0.51662775     0.00090528    -0.00034787     0.00002789
     6
  Step:     3            Position(A)                                  Velocity(au)
C        -0.04266752     0.03336700     0.03072963    -0.00009395     0.00008998    -0.00018980
N        -0.02795644    -0.07377436     1.28526685     0.00004164    -0.00006997     0.00019028
H         0.88334003    -0.08370931    -0.53899220     0.00006544    -0.00010229    -0.00042449
H         0.71202212    -0.09288420     1.87905458     0.00011019    -0.00000499     0.00019916
H        -0.94608646     0.10861994     1.84278951    -0.00031758     0.00039029     0.00004706
H        -0.96529374     0.02578674    -0.51750692     0.00068277    -0.00038289    -0.00020429
     6
  Step:     4            Position(A)                                  Velocity(au)
C        -0.04366753     0.03447747     0.02793478    -0.00008652     0.00011262    -0.00031464
N        -0.02792497    -0.07461419     1.28797041    -0.00003370    -0.00008324     0.00030029
H         0.88503659    -0.08499632    -0.54468448     0.00023556    -0.00013166    -0.00060626
H         0.71754946    -0.09293868     1.88451333     0.00086604    -0.00000353     0.00077161
H        -0.94792780     0.11278624     1.84234685    -0.00001522     0.00037077    -0.00012748
H        -0.95919762     0.02139990    -0.52109694     0.00041291    -0.00042076    -0.00046160
     6
  Step:     5            Position(A)                                  Velocity(au)
C        -0.04456030     0.03583068     0.02384638    -0.00007456     0.00013405    -0.00042484
N        -0.02869373    -0.07559547     1.29183624    -0.00010054    -0.00009591     0.00040298
H         0.88849325    -0.08658955    -0.55225535     0.00038062    -0.00015725    -0.00076435
H         0.73096847    -0.09296137     1.89593513     0.00150374     0.00000219     0.00124881
H        -0.94641945     0.11673129     1.84000074     0.00028336     0.00035236    -0.00029240
H        -0.95626062     0.01658190    -0.52760533     0.00011786    -0.00046183    -0.00072960
     6
  Step:     6            Position(A)                                  Velocity(au)
C        -0.04529861     0.03741007     0.01864053    -0.00005883     0.00015369    -0.00051806
N        -0.03012452    -0.07671245     1.29678641    -0.00015210    -0.00010813     0.00049790
H         0.89336341    -0.08843651    -0.56140602     0.00048919    -0.00017718    -0.00089273
H         0.75044656    -0.09289072     1.91183349     0.00194639     0.00001401     0.00156841
H        -0.94172876     0.12049475     1.83594997     0.00055460     0.00034046    -0.00043070
H        -0.95661918     0.01129648    -0.53705841    -0.00017556    -0.00050607    -0.00099072
     6
  Step:     7            Position(A)                                  Velocity(au)
C        -0.04584722     0.03919289     0.01251284    -0.00004060     0.00017100    -0.00059301
N        -0.03202126    -0.07796098     1.30272870    -0.00018466    -0.00012006     0.00058287
H         0.89919520    -0.09046571    -0.57178558     0.00055371    -0.00018991    -0.00098795
H         0.77354954    -0.09265488     1.93024717     0.00216245     0.00003206     0.00170691
H        -0.93428648     0.12417955     1.83057827     0.00077380     0.00034135    -0.00052565
H        -0.96010132     0.00551070    -0.54927932    -0.00044006    -0.00055288    -0.00122683
     6
  Step:     8            Position(A)                                  Velocity(au)
C        -0.04618684     0.04115111     0.00566734    -0.00002135     0.00018558    -0.00064934
N        -0.03416433    -0.07933890     1.30953789    -0.00019724    -0.00013192     0.00065453
H         0.90547692    -0.09259113    -0.58301932     0.00057074    -0.00019434    -0.00104898
H         0.79775437    -0.09218925     1.94917548     0.00216073     0.00005523     0.00167461
H        -0.92480037     0.12796235     1.82445034     0.00091604     0.00036207    -0.00056162
H        -0.96624638    -0.00079873    -0.56389768    -0.00065226    -0.00060115    -0.00142205
     6
  Step:     9            Position(A)                                  Velocity(au)
C        -0.04631430     0.04325270    -0.00169262    -0.00000243     0.00019710    -0.00068743
N        -0.03633617    -0.08084692     1.31704774    -0.00019070    -0.00014401     0.00070936
H         0.91168126    -0.09471717    -0.59473397     0.00054071    -0.00018981    -0.00107692
H         0.82081966    -0.09144655     1.96688241     0.00197505     0.00008182     0.00150185
H        -0.91424629     0.13210059     1.81829176     0.00095926     0.00040992    -0.00052608
H        -0.97437076    -0.00764062    -0.58038943    -0.00079596    -0.00064949    -0.00156498
     6
  Step:    10            Position(A)                                  Velocity(au)
C        -0.04624010     0.04546314    -0.00937140     0.00001507     0.00020543    -0.00070822
N        -0.03833630    -0.08248933     1.32505647    -0.00016707    -0.00015664     0.00074484
H         0.91730596    -0.09674348    -0.60657901     0.00046736    -0.00017602    -0.00107452
H         0.84096237    -0.09039938     1.98203135     0.00164853     0.00011004     0.00122553
H        -0.90381468     0.13693023     1.81294138     0.00088968     0.00049109    -0.00041270
H        -0.98365961    -0.01500747    -0.59813460    -0.00086342    -0.00069643    -0.00164960
     6
  Step:    11            Position(A)                                  Velocity(au)
C        -0.04598465     0.04774698    -0.01718636     0.00003043     0.00021056    -0.00071315
N        -0.03999123    -0.08427365     1.33334243    -0.00012929    -0.00017001     0.00076008
H         0.92190570    -0.09856788    -0.61824114     0.00035688    -0.00015295    -0.00104551
H         0.85688438    -0.08903912     1.99369331     0.00122364     0.00013839     0.00088084
H        -0.89478285     0.14284416     1.80926306     0.00070823     0.00060889    -0.00022478
H        -0.99325979    -0.02287633    -0.61647763    -0.00085468    -0.00074078    -0.00167497
     6
  Step:    12            Position(A)                                  Velocity(au)
C        -0.04557438     0.05006947    -0.02497283     0.00004320     0.00021259    -0.00070391
N        -0.04116482    -0.08620870     1.34168457    -0.00008130    -0.00018408     0.00075598
H         0.92511338    -0.10008951    -0.62945150     0.00021723    -0.00012078    -0.00099417
H         0.86773178    -0.08737180     2.00130151     0.00073807     0.00016567     0.00049805
H        -0.88832072     0.15025080     1.80802381     0.00043545     0.00076166     0.00002266
H        -1.00235740    -0.03121352    -0.63477778    -0.00077567    -0.00078176    -0.00164407
     6
  Step:    13            Position(A)                                  Velocity(au)
C        -0.04503967     0.05239775    -0.03258570     0.00005348     0.00021235    -0.00076813
N        -0.04176989    -0.08830073     1.34988087    -0.00003109    -0.00020504     0.00080061
H         0.92665796    -0.10121016    -0.63999054     0.00001582     0.00005505    -0.00084773
H         0.87303106    -0.08541479     2.00458916     0.00019895     0.00009871     0.00008313
H        -0.88525644     0.15950704     1.80975883     0.00017529     0.00105350     0.00027400
H        -1.01022913    -0.03997883    -0.65244478    -0.00059533    -0.00088829    -0.00148188
     6
  Step:    14            Position(A)                                  Velocity(au)
C        -0.04440435     0.05471494    -0.04177725     0.00006115     0.00020959    -0.00091368
N        -0.04184498    -0.09069434     1.35919952     0.00001629    -0.00023084     0.00090306
H         0.92545947    -0.09888520    -0.64799724    -0.00023595     0.00035211    -0.00060939
H         0.87208412    -0.08521241     2.00312006    -0.00036525    -0.00004508    -0.00035061
H        -0.88448600     0.17329808     1.81401801    -0.00002715     0.00143263     0.00049350
H        -1.01538133    -0.05064652    -0.66719678    -0.00032664    -0.00102936    -0.00119530
     6
  Step:    15            Position(A)                                  Velocity(au)
C        -0.04370198     0.05698295    -0.05257428     0.00006538     0.00020318    -0.00105252
N        -0.04141358    -0.09335076     1.36963710     0.00005848    -0.00025278     0.00099785
H         0.92149618    -0.09350704    -0.65332214    -0.00047567     0.00062194    -0.00036945
H         0.86504058    -0.08640097     1.99691882    -0.00089149    -0.00016396    -0.00075946
H        -0.88585035     0.19084856     1.82055508    -0.00019530     0.00175231     0.00068472
H        -1.01737494    -0.06249797    -0.67859424    -0.00002933    -0.00111871    -0.00088050
     6
  Step:    16            Position(A)                                  Velocity(au)
C        -0.04297406     0.05915985    -0.06480312     0.00006556     0.00019305    -0.00117268
N        -0.04056556    -0.09622432     1.38102950     0.00008945    -0.00027014     0.00107556
H         0.91505318    -0.08527914    -0.65607959    -0.00067758     0.00087561    -0.00014888
H         0.85258112    -0.08879937     1.98650551    -0.00132842    -0.00026937    -0.00110107
H        -0.88875855     0.21163328     1.82899753    -0.00029376     0.00202331     0.00083536
H        -1.01602288    -0.07512044    -0.68645946     0.00027549    -0.00117598    -0.00055810
     6
  Step:    17            Position(A)                                  Velocity(au)
C        -0.04226767     0.06120625    -0.07822894     0.00006120     0.00017957    -0.00127021
N        -0.03945676    -0.09926058     1.39316711     0.00010329    -0.00028224     0.00113303
H         0.90667282    -0.07435135    -0.65657922    -0.00081810     0.00111637     0.00003504
H         0.83597890    -0.09229400     1.97283083    -0.00161702    -0.00036594    -0.00133507
H        -0.89227691     0.23511235     1.83883008    -0.00029828     0.00224264     0.00093563
H        -1.01134803    -0.08822479    -0.69080369     0.00056875    -0.00121068    -0.00024468
     6
  Step:    18            Position(A)                                  Velocity(au)
C        -0.04163512     0.06308829    -0.09259139     0.00005190     0.00016335    -0.00134348
N        -0.03830596    -0.10239896     1.40581664     0.00009469    -0.00028871     0.00116846
H         0.89715574    -0.06085645    -0.65531299    -0.00087406     0.00134531     0.00016646
H         0.81720566    -0.09680496     1.95729838    -0.00169218    -0.00045612    -0.00142138
H        -0.89528391     0.26069542     1.84946613    -0.00019920     0.00240663     0.00098270
H        -1.00358036    -0.10160645    -0.69181235     0.00083108    -0.00123022     0.00004394
     6
  Step:    19            Position(A)                                  Velocity(au)
C        -0.04113217     0.06477975    -0.10762023     0.00003757     0.00014511    -0.00139196
N        -0.03738523    -0.10557670     1.41872934     0.00005986    -0.00028952     0.00118098
H         0.88755102    -0.04492017    -0.65293753    -0.00082466     0.00156337     0.00023203
H         0.79895926    -0.10227251     1.94173551    -0.00149620    -0.00054174    -0.00132910
H        -0.89663485     0.28776190     1.86032843    -0.00000072     0.00251441     0.00098035
H        -0.99316666    -0.11513825    -0.68984247     0.00104203    -0.00124192     0.00029209
     6
  Step:    20            Position(A)                                  Velocity(au)
C        -0.04081330     0.06626290    -0.12304325     0.00001875     0.00012565    -0.00141573
N        -0.03699632    -0.10873280     1.43165284    -0.00000185    -0.00028499     0.00117131
H         0.87911467    -0.02665476    -0.65023697    -0.00065587     0.00177264     0.00022346
H         0.78447341    -0.10865653     1.92822186    -0.00100424    -0.00062486    -0.00105187
H        -0.89529974     0.31570302     1.87091311     0.00028234     0.00256923     0.00093705
H        -0.98078394    -0.12877588    -0.68542225     0.00118009    -0.00125401     0.00048434
     6
  Step:    21            Position(A)                                  Velocity(au)
C        -0.04072205     0.06752860    -0.13859214    -0.00000290     0.00010568    -0.00141549
N        -0.03742574    -0.11181133     1.44435403    -0.00008618    -0.00027571     0.00114263
H         0.87320260    -0.00614028    -0.64804889    -0.00036703     0.00197720     0.00014105
H         0.77698959    -0.11594241     1.91872390    -0.00025307    -0.00070789    -0.00062257
H        -0.89045817     0.34396871     1.88082821     0.00062831     0.00257845     0.00086381
H        -0.96734987    -0.14257205    -0.67924657     0.00122393    -0.00127577     0.00060639
     6
  Step:    22            Position(A)                                  Velocity(au)
C        -0.04087677     0.06857486    -0.15400989    -0.00002440     0.00008580    -0.00139273
N        -0.03888168    -0.11476438     1.45665008    -0.00018325    -0.00026256     0.00110065
H         0.87108521     0.01660021    -0.64715124     0.00002306     0.00218278    -0.00000377
H         0.77893693    -0.12414293     1.91460192     0.00064633    -0.00079253    -0.00011514
H        -0.88155417     0.37211160     1.88981055     0.00101212     0.00255299     0.00077242
H        -0.95400808    -0.15668571    -0.67215623     0.00115582    -0.00131693     0.00064728
     6
  Step:    23            Position(A)                                  Velocity(au)
C        -0.04125589     0.06940556    -0.16906070    -0.00004171     0.00006648    -0.00135000
N        -0.04143478    -0.11755542     1.46843281    -0.00027943    -0.00024678     0.00105234
H         0.87370717     0.04161228    -0.64813132     0.00047393     0.00239505    -0.00018845
H         0.79112929    -0.13328063     1.91620506     0.00153112    -0.00087808     0.00037455
H        -0.86831605     0.39982036     1.89772644     0.00140804     0.00250639     0.00067437
H        -0.94206411    -0.17138234    -0.66508609     0.00096705    -0.00138610     0.00060246
     6
  Step:    24            Position(A)                                  Velocity(au)
C        -0.04178929     0.07002916    -0.18354368    -0.00005065     0.00004808    -0.00129109
N        -0.04499482    -0.12016328     1.47967205    -0.00036129    -0.00022992     0.00100385
H         0.88145328     0.06899658    -0.65127389     0.00092837     0.00261700    -0.00038329
H         0.81243309    -0.14335254     1.92279589     0.00223951    -0.00096061     0.00076105
H        -0.85075051     0.42694360     1.90456377     0.00179192     0.00245379     0.00058018
H        -0.93285204    -0.18700923    -0.65897636     0.00066439    -0.00148810     0.00047695
     6
  Step:    25            Position(A)                                  Velocity(au)
C        -0.04236406     0.07045741    -0.19730586    -0.00004832     0.00003079    -0.00122069
N        -0.04933865    -0.12258529     1.49039392    -0.00041952    -0.00021366     0.00095874
H         0.89401713     0.09886408    -0.65651648     0.00132453     0.00284673    -0.00055835
H         0.84012279    -0.15429592     1.93285452     0.00266318    -0.00103425     0.00099522
H        -0.82911447     0.45350169     1.91041898     0.00214305     0.00241080     0.00049893
H        -0.92752933    -0.20393746    -0.65465185     0.00027482    -0.00162110     0.00028703
     6
  Step:    26            Position(A)                                  Velocity(au)
C        -0.04284641     0.07070280    -0.21024867    -0.00003420     0.00001451    -0.00114366
N        -0.05417259    -0.12483754     1.50064633    -0.00045061    -0.00019959     0.00091768
H         0.91042993     0.13127436    -0.66348878     0.00161007     0.00307717    -0.00069028
H         0.87069525    -0.16597867     1.94456823     0.00276855    -0.00109352     0.00106945
H        -0.80386721     0.47968450     1.91547883     0.00244592     0.00239202     0.00043774
H        -0.92683992    -0.22247384    -0.65269705    -0.00015524    -0.00177492     0.00005858
     6
  Step:    27            Position(A)                                  Velocity(au)
C        -0.04311220     0.07077475    -0.22232566    -0.00001036    -0.00000124    -0.00106431
N        -0.05919654    -0.12695178     1.51046997    -0.00045596    -0.00018887     0.00087938
H         0.92924039     0.16618309    -0.67161765     0.00175247     0.00329773    -0.00076625
H         0.90069016    -0.17821872     1.95625087     0.00258340    -0.00113541     0.00100555
H        -0.77560530     0.50583178     1.91999541     0.00269175     0.00240915     0.00040095
H        -0.93092556    -0.24276716    -0.65337028    -0.00056798    -0.00193213    -0.00017801
     6
  Step:    28            Position(A)                                  Velocity(au)
C        -0.04307306     0.07067573    -0.23353252     0.00001938    -0.00001716    -0.00098583
N        -0.06414761    -0.12896944     1.51988437    -0.00043990    -0.00018202     0.00084187
H         0.94876867     0.20341852    -0.68025193     0.00174173     0.00349715    -0.00078385
H         0.92721211    -0.19081800     1.96656658     0.00216779    -0.00115992     0.00083766
H        -0.74498011     0.53238930     1.92425045     0.00287983     0.00246847     0.00038912
H        -0.93926563    -0.26474288    -0.65659125    -0.00090724    -0.00207188    -0.00039467
     6
  Step:    29            Position(A)                                  Velocity(au)
C        -0.04268819     0.07039944    -0.24389265     0.00005087    -0.00003399    -0.00091007
N        -0.06882030    -0.13093381     1.52888754    -0.00040787    -0.00017879     0.00080352
H         0.96734408     0.24269005    -0.68876583     0.00158618     0.00366591    -0.00074825
H         0.94811471    -0.20359420     1.97457631     0.00158867    -0.00116949     0.00059980
H        -0.71260347     0.55983437     1.92850823     0.00301790     0.00256828     0.00039827
H        -0.95077308    -0.28809358    -0.66200438    -0.00113103    -0.00217512    -0.00057133
     6
  Step:    30            Position(A)                                  Velocity(au)
C        -0.04196012     0.06993218    -0.25344211     0.00008076    -0.00005224    -0.00083763
N        -0.07307056    -0.13288092     1.53746286    -0.00036531    -0.00017811     0.00076335
H         0.98346934     0.28361742    -0.69662129     0.00130542     0.00379742    -0.00066857
H         0.96196721    -0.21640277     1.97968844     0.00090616    -0.00116814     0.00032032
H        -0.67895767     0.58857528     1.93296329     0.00312078     0.00269712     0.00041983
H        -0.96400917    -0.31232777    -0.66909010    -0.00121831    -0.00222872    -0.00069816
     6
  Step:    31            Position(A)                                  Velocity(au)
C        -0.04092136     0.06925649    -0.26221748     0.00010699    -0.00007208    -0.00076820
N        -0.07681208    -0.13483039     1.54558738    -0.00031719    -0.00017813     0.00072107
H         0.99590262     0.32576591    -0.70339209     0.00092378     0.00388813    -0.00055502
H         0.96793869    -0.22914950     1.98158396     0.00017018    -0.00116084     0.00002134
H        -0.64433037     0.61883906     1.93769286     0.00320717     0.00283405     0.00044178
H        -0.97742588    -0.33685114    -0.67727799    -0.00116823    -0.00222712    -0.00077445
     6
  Step:    32            Position(A)                                  Velocity(au)
C        -0.03961946     0.06835530    -0.27024802     0.00012869    -0.00009331    -0.00070095
N        -0.08000978    -0.13677780     1.55323771    -0.00026791    -0.00017645     0.00067671
H         1.00367887     0.36867775    -0.70876341     0.00046595     0.00393705    -0.00041721
H         0.96569015    -0.24179831     1.98015527    -0.00057694    -0.00115324    -0.00027932
H        -0.60879476     0.65057552     1.94262802     0.00329512     0.00295152     0.00045076
H        -0.98956644    -0.36105038    -0.68603268    -0.00099464    -0.00217147    -0.00080553
     6
  Step:    33            Position(A)                                  Velocity(au)
C        -0.03810602     0.06721517    -0.27755210     0.00014577    -0.00011553    -0.00063485
N        -0.08267315    -0.13869054     1.56039174    -0.00022131    -0.00017052     0.00063026
H         1.00609627     0.41189648    -0.71251932    -0.00004535     0.00394507    -0.00026342
H         0.95531712    -0.25437882     1.97547330    -0.00129502    -0.00115192    -0.00056545
H        -0.57224339     0.68340913     1.94755416     0.00339769     0.00302057     0.00043488
H        -0.99918544    -0.38435628    -0.69490044    -0.00071903    -0.00206748    -0.00079954
     6
  Step:    34            Position(A)                                  Velocity(au)
C        -0.03643037     0.06582783    -0.28413649     0.00015855    -0.00013826    -0.00056886
N        -0.08485128    -0.14050819     1.56702594    -0.00018093    -0.00015798     0.00058133
H         1.00268665     0.45498376    -0.71452621    -0.00058991     0.00391450    -0.00010063
H         0.93735918    -0.26699879     1.96778497    -0.00194022    -0.00116498    -0.00081995
H        -0.53446385     0.71665627     1.95214182     0.00352035     0.00301655     0.00038596
H        -1.00529670    -0.40628053    -0.70352418    -0.00036521    -0.00192331    -0.00076520
     6
  Step:    35            Position(A)                                  Velocity(au)
C        -0.03463748     0.06419055    -0.28999691     0.00016742    -0.00016100    -0.00050200
N        -0.08663139    -0.14214659     1.57310937    -0.00015038    -0.00013693     0.00052889
H         0.99319092     0.49753357    -0.71472069    -0.00114960     0.00384884     0.00006518
H         0.91287106    -0.27986494     1.95753532    -0.00246036    -0.00120294    -0.00102309
H        -0.49522904     0.74940197     1.95599770     0.00366089     0.00292348     0.00030075
H        -1.00717508    -0.42643227    -0.71164060     0.00004377    -0.00174812    -0.00071066
     6
  Step:    36            Position(A)                                  Velocity(au)
C        -0.03276768     0.06230569    -0.29511874     0.00017279    -0.00018332    -0.00043337
N        -0.08814115    -0.14350376     1.57859648    -0.00013349    -0.00010602     0.00047136
H         0.97753696     0.53918442    -0.71310021    -0.00170811     0.00375272     0.00022870
H         0.88353408    -0.29331530     1.94540294    -0.00279405    -0.00127963    -0.00115244
H        -0.45437477     0.78061301     1.95872126     0.00381138     0.00273605     0.00018083
H        -1.00433906    -0.44452396    -0.71907126     0.00048677    -0.00155137    -0.00064324
     6
  Step:    37            Position(A)                                  Velocity(au)
C        -0.03085727     0.06017998    -0.29947767     0.00017502    -0.00020486    -0.00036206
N        -0.08955177    -0.14446596     1.58342126    -0.00013407    -0.00006441     0.00040681
H         0.95582278     0.57963158    -0.70971752    -0.00225042     0.00363196     0.00038493
H         0.85174585    -0.30785926     1.93232341    -0.00287763    -0.00141217    -0.00118582
H        -0.41184772     0.80925824     1.95995378     0.00396111     0.00245903     0.00003150
H        -0.99652613    -0.46037140    -0.72571274     0.00094448    -0.00134262    -0.00056959
     6
  Step:    38            Position(A)                                  Velocity(au)
C        -0.02893875     0.05782398    -0.30303939     0.00017446    -0.00022527    -0.00028709
N        -0.09107426    -0.14491288     1.58749632    -0.00015481    -0.00001183     0.00033364
H         0.92830477     0.61864043    -0.70467903    -0.00276245     0.00349363     0.00052889
H         0.82058037    -0.32420930     1.91946083    -0.00266341    -0.00161844    -0.00110820
H        -0.36771800     0.83440907     1.95941040     0.00409945     0.00210532    -0.00013978
H        -0.98367665    -0.47389640    -0.73153223     0.00139876    -0.00113185    -0.00049625
     6
  Step:    39            Position(A)                                  Velocity(au)
C        -0.02704051     0.05525182    -0.30575833     0.00017157    -0.00024419    -0.00020730
N        -0.09293855    -0.14472473     1.59072017    -0.00019544     0.00005108     0.00025129
H         0.89538884     0.65606136    -0.69814695    -0.00323096     0.00334609     0.00065514
H         0.79347871    -0.34326570     1.90807941    -0.00214755    -0.00191006    -0.00092188
H        -0.32216438     0.85531616     1.95689582     0.00421814     0.00169367    -0.00032490
H        -0.96592554    -0.48513278    -0.73656910     0.00183182    -0.00092974    -0.00043020
     6
  Step:    40            Position(A)                                  Velocity(au)
C        -0.02518535     0.05248187    -0.30757446     0.00016700    -0.00026110    -0.00012097
N        -0.09534987    -0.14379547     1.59299377    -0.00025121     0.00012191     0.00016098
H         0.85762125     0.69184261    -0.69034667    -0.00364349     0.00319830     0.00075687
H         0.77359851    -0.36599542     1.89929301    -0.00139443    -0.00228007    -0.00065564
H        -0.27543801     0.87146137     1.95230256     0.00431332     0.00124694    -0.00051692
H        -0.94360201    -0.49423617    -0.74094358     0.00222545    -0.00074799    -0.00037985
     6
  Step:    41            Position(A)                                  Velocity(au)
C        -0.02338701     0.04953977    -0.30840473     0.00016195    -0.00027465    -0.00002440
N        -0.09843422    -0.14205776     1.59424184    -0.00031388     0.00019472     0.00006560
H         0.81568058     0.72603025    -0.68158899    -0.00398549     0.00305488     0.00082111
H         0.76297283    -0.39314648     1.89373611    -0.00053115    -0.00268140    -0.00036982
H        -0.22780215     0.88259544     1.94558712     0.00438940     0.00079156    -0.00071454
H        -0.91723957    -0.50149654    -0.74487915     0.00255919    -0.00059822    -0.00035765
     6
  Step:    42            Position(A)                                  Velocity(au)
C        -0.02164237     0.04647347    -0.30810818     0.00015526    -0.00028045     0.00008401
N        -0.10221660    -0.13953567     1.59442890    -0.00036991     0.00026051    -0.00002953
H         0.77043112     0.75867396    -0.67238341    -0.00419856     0.00286365     0.00083629
H         0.76197857    -0.42465617     1.89120254     0.00030582    -0.00300611    -0.00014956
H        -0.17941138     0.88877832     1.93667052     0.00438835     0.00033227    -0.00090758
H        -0.88761475    -0.50732335    -0.74876786     0.00279473    -0.00046811    -0.00036980
     6
  Step:    43            Position(A)                                  Velocity(au)
C        -0.01999048     0.04340438    -0.30656696     0.00014480    -0.00028039     0.00019140
N        -0.10652670    -0.13635861     1.59359580    -0.00039949     0.00032061    -0.00011877
H         0.72382894     0.78867808    -0.66329349    -0.00426898     0.00263009     0.00083894
H         0.76966316    -0.45891097     1.89046426     0.00094395    -0.00325698    -0.00001184
H        -0.13179848     0.88986457     1.92573214     0.00423993    -0.00012176    -0.00105296
H        -0.85609954    -0.51173741    -0.75296932     0.00291102    -0.00036552    -0.00040440
     6
  Step:    44            Position(A)                                  Velocity(au)
C        -0.01847452     0.04033941    -0.30392085     0.00013330    -0.00027882     0.00029241
N        -0.11095614    -0.13252176     1.59183051    -0.00039625     0.00037476    -0.00020049
H         0.67703905     0.81621229    -0.65403010    -0.00424859     0.00243063     0.00085015
H         0.78262933    -0.49590891     1.89094356     0.00126256    -0.00346294     0.00005410
H        -0.08665480     0.88611455     1.91363494     0.00399030    -0.00052205    -0.00113532
H        -0.82393065    -0.51531976    -0.75761496     0.00291382    -0.00033096    -0.00046728
     6