 Fermi distribution function

Calculation with static geometry


********************************************************************************
 iSCC Total electronic   Diff electronic      SCC error    
   13   -0.52607855E+01   -0.49907811E-09    0.18358405E-06
********************************************************************************

 Total charge:     1.00000000

 Atomic gross charges (e)
 Atom           Charge
    1       0.30007231
    2      -0.18934912
    3       0.18102960
    4       0.25906880
    5       0.26508567
    6       0.18409275

Nr. of electrons (up):     12.00000000
Atom populations (up)
 Atom       Population
    1       3.69992769
    2       5.18934912
    3       0.81897040
    4       0.74093120
    5       0.73491433
    6       0.81590725

l-shell populations (up)
 Atom Sh.   l       Population
    1   1   0       1.42078571
    1   2   1       2.27914198
    2   1   0       1.53011819
    2   2   1       3.65923093
    3   1   0       0.81897040
    4   1   0       0.74093120
    5   1   0       0.73491433
    6   1   0       0.81590725

Orbital populations (up)
 Atom Sh.   l   m       Population  Label
    1   1   0   0       1.42078571  s
    1   2   1  -1       0.41712959  p_y
    1   2   1   0       0.86420408  p_z
    1   2   1   1       0.99780831  p_x
    2   1   0   0       1.53011819  s
    2   2   1  -1       1.40549420  p_y
    2   2   1   0       1.08515402  p_z
    2   2   1   1       1.16858272  p_x
    3   1   0   0       0.81897040  s
    4   1   0   0       0.74093120  s
    5   1   0   0       0.73491433  s
    6   1   0   0       0.81590725  s

Fermi level:                        -0.5158398441 H          -14.0367 eV
Band energy:                        -8.6268946103 H         -234.7497 eV
TS:                                  0.0000000000 H            0.0000 eV
Band free energy (E-TS):            -8.6268946103 H         -234.7497 eV
Extrapolated E(0K):                 -8.6268946103 H         -234.7497 eV
Input / Output electrons (q):     12.0000000000     12.0000000000

Energy H0:                          -5.3958257720 H         -146.8279 eV
Energy SCC:                          0.1350403048 H            3.6746 eV
Total Electronic energy:            -5.2607854672 H         -143.1533 eV
Repulsive energy:                    0.1328597995 H            3.6153 eV
Total energy:                       -5.1279256677 H         -139.5380 eV
Extrapolated to 0:                  -5.1279256677 H         -139.5380 eV
Total Mermin free energy:           -5.1279256677 H         -139.5380 eV
Force related energy:               -5.1279256677 H         -139.5380 eV

SCC converged

Excitation Energy:                   0.1014554221 H            2.7607 eV

Total Forces
    1     -0.011047134984      0.001345180685      0.016022391112
    2      0.025217339781     -0.000162863724     -0.021406306068
    3      0.003183474423     -0.008134940794      0.002054186908
    4     -0.014355017597      0.012911108528     -0.001649278943
    5     -0.006979272104     -0.013876831471      0.002360558131
    6      0.003980610481      0.007918346777      0.002618448861

Maximal derivative component:        0.252173E-01 au


