|===============================================================================
|
|  DFTB+ release 20.1
|
|  Copyright (C) 2006 - 2020  DFTB+ developers group
|
|===============================================================================
|
|  When publishing results obtained with DFTB+, please cite the following
|  reference:
|
|  * DFTB+, a software package for efficient approximate density functional
|    theory based atomistic simulations, J. Chem. Phys. 152, 124101 (2020).
|    [doi: 10.1063/1.5143190]
|
|  You should also cite additional publications crediting the parametrization
|  data you use. Please consult the documentation of the SK-files for the
|  references.
|
|===============================================================================

Reading input file 'dftb_in.hsd'
Parser version: 8

--------------------------------------------------------------------------------
Reading SK-files:
Done.


Processed input in HSD format written to 'dftb_pin.hsd'

Starting initialization...
--------------------------------------------------------------------------------
OpenMP threads:              1
Chosen random seed:          510961401
Mode:                        Static calculation
Self consistent charges:     Yes
SCC-tolerance:                 0.100000E-05
Max. scc iterations:                   1000
Shell resolved Hubbard:      No
Spin polarisation:           No
Nr. of up electrons:             6.000000
Nr. of down electrons:           6.000000
Periodic boundaries:         No
Electronic solver:           Relatively robust
Maximal SCC-cycles:                    1000
Initial charges:             Set automatically (system chrg:   0.100E+01)
Included shells:             C:  s, p
                             N:  s, p
                             H:  s
Spin coupling constants:     C   1(s)-1(s):  -0.455900E-01
                             C   1(s)-2(p):  -0.293000E-01
                             C   2(p)-1(s):  -0.293000E-01
                             C   2(p)-2(p):  -0.275500E-01
                             N   1(s)-1(s):  -0.468700E-01
                             N   1(s)-2(p):  -0.317000E-01
                             N   2(p)-1(s):  -0.317000E-01
                             N   2(p)-2(p):  -0.307200E-01
                             H   1(s)-1(s):  -0.792500E-01
Range separated hybrid:      Yes
  Screening parameter omega:   0.300000E+00
  Range separated algorithm:   MatrixBased
Extra options:
                             Mulliken analysis
                             Force calculation
Force type                   original
                             Eigenvector printing


REKS Calcuation:             Yes
SSR(2,2) Calcuation:         Yes
Energy Functional:           (PPS+OSS)/2
Number of Core Orbitals:                  5
Number of Active Orbitals:                2
Number of Basis:                         12
Number of States:                         2
State-Averaging Weight:          0.500000
                                 0.500000
State of Interest:                        1
Initial Guess:               Diagonalize H0 matrix
Newton-Raphson for FON opt:  Yes
NR max. Iterations:                      50
Level Shifting:              Yes
Shift Value:                     0.300000
W Scale Factor:              C  =    3.000000
                             N  =    3.000000
                             H  =    3.000000
Transition Dipole:           No
Gradient of Microstate:      No
CP-REKS Solver:              Preconditioned Conjugate-Gradient
CG max. Iterations:                     100
CG Tolerance:                  0.100000E-07
Memory for A and Hxc:        Direct Updating Without Saving
Non-Adiabatic Coupling:      Yes

--------------------------------------------------------------------------------

***  Geometry step: 0

  iSCC       reks energy        Diff energy         x_a       SCC error   
    1       -6.2663237435       0.0000000000     0.999741    1.19188382
    2       -6.2772868460      -0.0109631025     0.999879    0.07686384
    3       -6.2818307616      -0.0045439156     0.999930    0.03051497
    4       -6.2844869314      -0.0026561698     0.999953    0.01361111
    5       -6.2860370821      -0.0015501507     0.999964    0.01150117
    6       -6.2869078438      -0.0008707618     0.999969    0.00982025
    7       -6.2873811275      -0.0004732837     0.999971    0.00786557
    8       -6.2876327189      -0.0002515914     0.999973    0.00605483
    9       -6.2877646522      -0.0001319333     0.999973    0.00454533
   10       -6.2878332914      -0.0000686392     0.999973    0.00335765
   11       -6.2878688467      -0.0000355553     0.999974    0.00245452
   12       -6.2878872263      -0.0000183796     0.999974    0.00178202
   13       -6.2878967220      -0.0000094957     0.999974    0.00128786
   14       -6.2879016305      -0.0000049085     0.999974    0.00092786
   15       -6.2879041713      -0.0000025409     0.999974    0.00066708
   16       -6.2879054895      -0.0000013182     0.999974    0.00047890
   17       -6.2879061755      -0.0000006859     0.999974    0.00034346
   18       -6.2879065338      -0.0000003583     0.999974    0.00024616
   19       -6.2879067217      -0.0000001880     0.999974    0.00017634
   20       -6.2879068209      -0.0000000992     0.999974    0.00012630
   21       -6.2879068736      -0.0000000527     0.999974    0.00009044
   22       -6.2879069018      -0.0000000282     0.999974    0.00006476
   23       -6.2879069169      -0.0000000152     0.999974    0.00004638
   24       -6.2879069252      -0.0000000083     0.999974    0.00003322
   25       -6.2879069297      -0.0000000045     0.999974    0.00002571
   26       -6.2879069323      -0.0000000025     0.999974    0.00002046
   27       -6.2879069337      -0.0000000014     0.999974    0.00001628
   28       -6.2879069345      -0.0000000008     0.999974    0.00001296
   29       -6.2879069349      -0.0000000005     0.999974    0.00001030
   30       -6.2879069352      -0.0000000003     0.999974    0.00000819
   31       -6.2879069354      -0.0000000002     0.999974    0.00000651
   32       -6.2879069355      -0.0000000001     0.999974    0.00000517
   33       -6.2879069355      -0.0000000001     0.999974    0.00000411
   34       -6.2879069355      -0.0000000000     0.999974    0.00000326
   35       -6.2879069356      -0.0000000000     0.999974    0.00000259
   36       -6.2879069356      -0.0000000000     0.999974    0.00000206
   37       -6.2879069356      -0.0000000000     0.999974    0.00000163
   38       -6.2879069356      -0.0000000000     0.999974    0.00000130
   39       -6.2879069356      -0.0000000000     0.999974    0.00000103
   40       -6.2879069356      -0.0000000000     0.999974    0.00000082
  
--------------------------------------------------
 Final SA-REKS(2,2) energy:      -6.28790694
  
 State     Energy      FON(1)    FON(2)   Spin
  PPS   -6.41882165   1.999947  0.000053  0.00
  OSS   -6.15699222   1.000000  1.000000  0.00
 Trip   -6.23522547   1.000000  1.000000  1.00
--------------------------------------------------

 Lagrangian Wab:  -0.00015743 -0.00015740

--------------------------------------------------
 SSR: 2SI-2SA-REKS(2,2) Hamiltonian matrix
               PPS           OSS
   PPS    -6.41882165   -0.00022150
   OSS    -0.00022150   -6.15699222
--------------------------------------------------

----------------------------------------------------------------
 SSR: 2SI-2SA-REKS(2,2) states
                    E_n       C_{PPS}    C_{OSS}
 SSR state  1   -6.41882184  -1.000000  -0.000846
 SSR state  2   -6.15699203   0.000846  -1.000000
----------------------------------------------------------------

 unrelaxed SSR FONs for S0:  1.999946  0.000054

Total Energy:                       -6.4188218367 H         -174.6650 eV
Extrapolated to 0:                  -6.4188218367 H         -174.6650 eV

----------------------------------------------------------------------------------
 Solving CP-REKS equation for  1 state vector...
----------------------------------------------------------------------------------
  CG solver: Constructing Y initial guess
  CG solver: Iteration    1    eps =    0.000029824242
  CG solver: Iteration    2    eps =    0.000001417444
  CG solver: Iteration    3    eps =    0.000000323147
  CG solver: Iteration    4    eps =    0.000000002624
  Convergence reached in CG solver after    4 iterations
  CG solver: Calculating converged R, Z, Q2 matrix
----------------------------------------------------------------------------------

----------------------------------------------------------------------------------
 Solving CP-REKS equation for SI between  1 and  2 state vectors...
----------------------------------------------------------------------------------
  CG solver: Constructing Y initial guess
  CG solver: Iteration    1    eps =    0.000293534609
  CG solver: Iteration    2    eps =    0.000092289588
  CG solver: Iteration    3    eps =    0.000005690871
  CG solver: Iteration    4    eps =    0.000000739051
  CG solver: Iteration    5    eps =    0.000000003700
  Convergence reached in CG solver after    5 iterations
  CG solver: Calculating converged R, Z, Q2 matrix
----------------------------------------------------------------------------------

--------------------------------------------------
 Gradient Information
--------------------------------------------------
           1 st state (SSR)
     0.00058332     0.00028565    -0.00223005
    -0.00013164    -0.00609786     0.00087244
    -0.00348109     0.00046830    -0.00267129
    -0.00183211     0.00268523     0.00255251
     0.00128272     0.00155987     0.00521277
     0.00357880     0.00109882    -0.00373638

           2 st state (SSR)
     0.00122861    -0.00783204     0.09643746
     0.00151759     0.01156892    -0.11901091
    -0.01782712     0.00018158     0.01751461
    -0.00957146    -0.00104647    -0.00686703
     0.00761412    -0.00097738    -0.00468525
     0.01703826    -0.00189461     0.01661112
--------------------------------------------------
 Coupling Information
--------------------------------------------------
 between  1 and  2 states
--------------------------------------------------
 g vector - difference gradient
    -0.00032287     0.00405887    -0.04933395
    -0.00082192    -0.00883333     0.05994172
     0.00717264     0.00013429    -0.01009342
     0.00386880     0.00187565     0.00471000
    -0.00316707     0.00125892     0.00494895
    -0.00672958     0.00150559    -0.01017330

 h vector - derivative coupling
     0.00013423    -0.00001412     0.00007444
    -0.00159250    -0.00004422     0.00002240
     0.00022814     0.00535986     0.00027314
     0.00051740    -0.00579204    -0.00013414
     0.00080903     0.00573776     0.00003657
    -0.00009630    -0.00524724    -0.00027241

 G vector - GDV
    -0.00032264     0.00405884    -0.04933375
    -0.00082462    -0.00883339     0.05994167
     0.00717302     0.00014336    -0.01009295
     0.00386967     0.00186585     0.00470977
    -0.00316570     0.00126862     0.00494901
    -0.00672973     0.00149671    -0.01017375

 H vector - DCV - non-adiabatic coupling
     0.00051475    -0.00008017     0.00060308
    -0.00607688    -0.00011181    -0.00030177
     0.00082497     0.02046988     0.00110842
     0.00195110    -0.02213347    -0.00054275
     0.00311037     0.02190593     0.00010770
    -0.00032432    -0.02005037    -0.00097467
--------------------------------------------------


--------------------------------------------------------------------------------
DFTB+ running times                          cpu [s]             wall clock [s]
--------------------------------------------------------------------------------
SCC                                    +     0.03  ( 70.7%)      0.03  ( 65.9%)
Post-SCC processing                    +     0.01  ( 24.2%)      0.01  ( 24.4%)
--------------------------------------------------------------------------------
Missing                                +     0.00  (  5.1%)      0.00  (  9.8%)
Total                                  =     0.04  (100.0%)      0.04  (100.0%)
--------------------------------------------------------------------------------
