 Fermi distribution function

Calculation with static geometry


********************************************************************************
 iSCC Total electronic   Diff electronic      SCC error    
   10   -0.54043423E+01   -0.60396133E-12    0.58878183E-07
********************************************************************************

 Total charge:     1.00000000

 Atomic gross charges (e)
 Atom           Charge
    1       0.15899762
    2      -0.05047875
    3       0.19358136
    4       0.26894969
    5       0.28022396
    6       0.14872612

Nr. of electrons (up):     12.00000000
Atom populations (up)
 Atom       Population
    1       3.84100238
    2       5.05047875
    3       0.80641864
    4       0.73105031
    5       0.71977604
    6       0.85127388

l-shell populations (up)
 Atom Sh.   l       Population
    1   1   0       1.31900668
    1   2   1       2.52199570
    2   1   0       1.42529394
    2   2   1       3.62518481
    3   1   0       0.80641864
    4   1   0       0.73105031
    5   1   0       0.71977604
    6   1   0       0.85127388

Orbital populations (up)
 Atom Sh.   l   m       Population  Label
    1   1   0   0       1.31900668  s
    1   2   1  -1       0.60030093  p_y
    1   2   1   0       0.87768409  p_z
    1   2   1   1       1.04401068  p_x
    2   1   0   0       1.42529394  s
    2   2   1  -1       1.32483736  p_y
    2   2   1   0       1.10655532  p_z
    2   2   1   1       1.19379213  p_x
    3   1   0   0       0.80641864  s
    4   1   0   0       0.73105031  s
    5   1   0   0       0.71977604  s
    6   1   0   0       0.85127388  s

Fermi level:                        -0.4990723403 H          -13.5804 eV
Band energy:                        -8.9305961389 H         -243.0139 eV
TS:                                  0.0000000000 H            0.0000 eV
Band free energy (E-TS):            -8.9305961389 H         -243.0139 eV
Extrapolated E(0K):                 -8.9305961389 H         -243.0139 eV
Input / Output electrons (q):     12.0000000000     12.0000000000

Energy H0:                          -5.5382854028 H         -150.7044 eV
Energy SCC:                          0.1339431133 H            3.6448 eV
Total Electronic energy:            -5.4043422895 H         -147.0596 eV
Repulsive energy:                    0.1861807932 H            5.0662 eV
Total energy:                       -5.2181614963 H         -141.9934 eV
Extrapolated to 0:                  -5.2181614963 H         -141.9934 eV
Total Mermin free energy:           -5.2181614963 H         -141.9934 eV
Force related energy:               -5.2181614963 H         -141.9934 eV

SCC converged

Excitation Energy:                   0.1385635771 H            3.7705 eV

Total Forces
    1      0.001486494195      0.003406621050      0.047763398191
    2      0.026371730752     -0.005185230566     -0.050004364851
    3     -0.006165965385      0.005759343359     -0.001943226520
    4     -0.017798343307     -0.006072469988     -0.000151292898
    5     -0.004565278920      0.008700641119      0.007347941147
    6      0.000671362665     -0.006608904975     -0.003012455070

Maximal derivative component:        0.500044E-01 au


