     6
  Step:     0            Position(A)                                  Velocity(au)
C        -0.03584924     0.00783964     0.03732395    -0.00004412    -0.00002800     0.00006067
N        -0.04027075    -0.06037509     1.28274847    -0.00003389     0.00005121    -0.00011458
H         0.91279591     0.03228972    -0.51759578     0.00028504    -0.00004209    -0.00033716
H         0.79700388    -0.07719155     1.82147865     0.00021633    -0.00012985     0.00095054
H        -0.93774493    -0.01708456     1.86262297     0.00036078    -0.00029775    -0.00018458
H        -0.99819466     0.13778482    -0.54474269     0.00013457     0.00009160     0.00044052
     6
  Step:     1            Position(A)                                  Velocity(au)
C        -0.03611022     0.00769983     0.03740615    -0.00005082    -0.00002317    -0.00003100
N        -0.04051118    -0.06010806     1.28234446    -0.00005296     0.00004644    -0.00003251
H         0.91447648     0.03207568    -0.51967053     0.00032566    -0.00003635    -0.00041904
H         0.79861354    -0.07789284     1.82703528     0.00036150    -0.00012649     0.00107379
H        -0.93543321    -0.01872707     1.86143345     0.00048036    -0.00030293    -0.00024809
H        -0.99734548     0.13829736    -0.54240015     0.00017397     0.00009632     0.00041457
     6
  Step:     2            Position(A)                                  Velocity(au)
C        -0.03640496     0.00758630     0.03698493    -0.00005646    -0.00001844    -0.00012298
N        -0.04084985    -0.05986720     1.28239294    -0.00006968     0.00004170     0.00005046
H         0.91635715     0.03189219    -0.52217820     0.00035841    -0.00003097    -0.00049581
H         0.80095711    -0.07857482     1.83322107     0.00048383    -0.00012285     0.00118070
H        -0.93249198    -0.02039719     1.85990995     0.00059001    -0.00030811    -0.00030587
H        -0.99629225     0.13883814    -0.54020914     0.00020893     0.00010209     0.00038520
     6
  Step:     3            Position(A)                                  Velocity(au)
C        -0.03672739     0.00749824     0.03606196    -0.00006094    -0.00001389    -0.00021417
N        -0.04127280    -0.05965226     1.28289602    -0.00008368     0.00003701     0.00013341
H         0.91839392     0.03173717    -0.52508979     0.00038297    -0.00002596    -0.00056714
H         0.80390186    -0.07923560     1.83994044     0.00058103    -0.00011877     0.00126919
H        -0.92898430    -0.02209476     1.85809029     0.00068654    -0.00031316    -0.00035556
H        -0.99506184     0.13941322    -0.53818987     0.00023851     0.00010900     0.00035173
     6
  Step:     4            Position(A)                                  Velocity(au)
C        -0.03707078     0.00743457     0.03464486    -0.00006412    -0.00000956    -0.00030339
N        -0.04176418    -0.05946286     1.28385058    -0.00009463     0.00003238     0.00021527
H         0.92054156     0.03160849    -0.52837490     0.00039912    -0.00002135    -0.00063270
H         0.80730555    -0.07987255     1.84708857     0.00065166    -0.00011414     0.00133772
H        -0.92499069    -0.02381884     1.85602500     0.00076659    -0.00031790    -0.00039479
H        -0.99368623     0.14002915    -0.53636611     0.00026175     0.00011714     0.00031351
     6
  Step:     5            Position(A)                                  Velocity(au)
C        -0.03742791     0.00739386     0.03274763    -0.00006593    -0.00000551    -0.00038938
N        -0.04230653    -0.05929849     1.28524771    -0.00010223     0.00002786     0.00029489
H         0.92275408     0.03150390    -0.53200165     0.00040676    -0.00001715    -0.00069216
H         0.81102085    -0.08048248     1.85455414     0.00069513    -0.00010885     0.00138526
H        -0.92060985    -0.02556762     1.85377752     0.00082671    -0.00032216    -0.00042115
H        -0.99220243     0.14069288    -0.53476494     0.00027771     0.00012655     0.00027002
     6
  Step:     6            Position(A)                                  Velocity(au)
C        -0.03779103     0.00737437     0.03039099    -0.00006627    -0.00000181    -0.00047082
N        -0.04288105    -0.05915848     1.28707218    -0.00010628     0.00002347     0.00037101
H         0.92498528     0.03142110    -0.53593663     0.00040585    -0.00001338    -0.00074516
H         0.81489972    -0.08106169     1.86222226     0.00071162    -0.00010283     0.00141135
H        -0.91595901    -0.02733840     1.85142404     0.00086355    -0.00032577    -0.00043237
H        -0.99065233     0.14141163    -0.53341619     0.00028554     0.00013724     0.00022084
     6
  Step:     7            Position(A)                                  Velocity(au)
C        -0.03815209     0.00737407     0.02760251    -0.00006510     0.00000149    -0.00054642
N        -0.04346791    -0.05904197     1.28930210    -0.00010661     0.00001925     0.00044236
H         0.92718920     0.03135772    -0.54014473     0.00039653    -0.00001004    -0.00079137
H         0.81879738    -0.08160618     1.86997721     0.00070204    -0.00009604     0.00141606
H        -0.91117308    -0.02912759     1.84905260     0.00087404    -0.00032856    -0.00042647
H        -0.98908209     0.14219268    -0.53235160     0.00028454     0.00014922     0.00016577
     6
  Step:     8            Position(A)                                  Velocity(au)
C        -0.03850277     0.00739066     0.02441658    -0.00006239     0.00000434    -0.00061490
N        -0.04404665    -0.05894796     1.29190883    -0.00010315     0.00001524     0.00050767
H         0.92932083     0.03131134    -0.54458923     0.00037905    -0.00000715    -0.00083047
H         0.82257566    -0.08211178     1.87770505     0.00066795    -0.00008848     0.00139998
H        -0.90640248    -0.03093082     1.84676118     0.00085572    -0.00033041    -0.00040191
H        -0.98754124     0.14304314    -0.53160369     0.00027422     0.00016241     0.00010484
     6
  Step:     9            Position(A)                                  Velocity(au)
C        -0.03883478     0.00742160     0.02087406    -0.00005818     0.00000671    -0.00067512
N        -0.04459665    -0.05887522     1.29485720    -0.00009596     0.00001147     0.00056578
H         0.93133691     0.03127947    -0.54923194     0.00035386    -0.00000473    -0.00086222
H         0.82610627    -0.08257435     1.88529621     0.00061151    -0.00008017     0.00136423
H        -0.90180949    -0.03274309     1.84465483     0.00080701    -0.00033124    -0.00035783
H        -0.98608148     0.14396978    -0.53120442     0.00025437     0.00017670     0.00003834
     6
  Step:    10            Position(A)                                  Velocity(au)
C        -0.03914003     0.00746414     0.01702161    -0.00005253     0.00000856    -0.00072611
N        -0.04509771    -0.05882233     1.29810611    -0.00008518     0.00000798     0.00061568
H         0.93319678     0.03125956    -0.55403352     0.00032155    -0.00000278    -0.00088648
H         0.82927379    -0.08298991     1.89264813     0.00053542    -0.00007117     0.00131042
H        -0.89756285    -0.03455903     1.84284174     0.00072754    -0.00033100    -0.00029422
H        -0.98475496     0.14497865    -0.53118368     0.00022514     0.00019195    -0.00003312
     6
  Step:    11            Position(A)                                  Velocity(au)
C        -0.03941090     0.00751544     0.01291077    -0.00004557     0.00000987    -0.00076711
N        -0.04553079    -0.05878767     1.30160945    -0.00007111     0.00000481     0.00065660
H         0.93486333     0.03124900    -0.55895402     0.00028290    -0.00000131    -0.00090323
H         0.83197832    -0.08335483     1.89966766     0.00044286    -0.00006155     0.00124059
H        -0.89383045    -0.03637320     1.84142808     0.00061844    -0.00032973    -0.00021212
H        -0.98361233     0.14607489    -0.53156760     0.00018708     0.00020794    -0.00010864
     6
  Step:    12            Position(A)                                  Velocity(au)
C        -0.03964055     0.00757259     0.00859663    -0.00003748     0.00001066    -0.00079766
N        -0.04587871    -0.05876946     1.30531737    -0.00005420     0.00000199     0.00068803
H         0.93630382     0.03124516    -0.56395345     0.00023885    -0.00000033    -0.00091258
H         0.83413758    -0.08366595     1.90627329     0.00033729    -0.00005144     0.00115718
H        -0.89077062    -0.03818036     1.84051209     0.00048249    -0.00032751    -0.00011363
H        -0.98270035     0.14726237    -0.53237687     0.00014115     0.00022441    -0.00018705
     6
  Step:    13            Position(A)                                  Velocity(au)
C        -0.03982317     0.00763274     0.00413636    -0.00002847     0.00001094    -0.00081759
N        -0.04612698    -0.05876574     1.30917787    -0.00003501    -0.00000045     0.00070977
H         0.93749074     0.03124534    -0.56899256     0.00019046     0.00000015    -0.00091480
H         0.83568855    -0.08392069     1.91239691     0.00022244    -0.00004095     0.00106291
H        -0.88852300    -0.03997584     1.84017810     0.00032409    -0.00032448    -0.00000194
H        -0.98205961     0.14854345    -0.53362523     0.00008876     0.00024108    -0.00026693
     6
  Step:    14            Position(A)                                  Velocity(au)
C        -0.03995421     0.00769315    -0.00041238    -0.00001879     0.00001074    -0.00082705
N        -0.04626448    -0.05877444     1.31313832    -0.00001424    -0.00000251     0.00072196
H         0.93840245     0.03124684    -0.57403359     0.00013887     0.00000015    -0.00091032
H         0.83658865    -0.08411713     1.91798542     0.00010217    -0.00003020     0.00096072
H        -0.88719955    -0.04175575     1.84049077     0.00014914    -0.00032082     0.00011888
H        -0.98172231     0.14991877    -0.53531820     0.00003164     0.00025761    -0.00034670
     6
  Step:    15            Position(A)                                  Velocity(au)
C        -0.04003063     0.00775131    -0.00499300    -0.00000875     0.00001011    -0.00082646
N        -0.04628411    -0.05879342     1.31714718     0.00000735    -0.00000416     0.00072500
H         0.93902365     0.03124696    -0.57904111     0.00008529    -0.00000035    -0.00089971
H         0.83681632    -0.08425407     1.92300181    -0.00001969    -0.00001934     0.00085369
H        -0.88687672    -0.04351716     1.84149039    -0.00003529    -0.00031672     0.00024406
H        -0.98171039     0.15138707    -0.53745227    -0.00002821     0.00027368    -0.00042469
     6
  Step:    16            Position(A)                                  Velocity(au)
C        -0.04005095     0.00780498    -0.00955169     0.00000138     0.00000911    -0.00081656
N        -0.04618317    -0.05882049     1.32115560     0.00002894    -0.00000542     0.00071959
H         0.93934560     0.03124299    -0.58398284     0.00003091    -0.00000133    -0.00088368
H         0.83637094    -0.08433104     1.92742577    -0.00013940    -0.00000850     0.00074491
H        -0.88758979    -0.04525820     1.84318971    -0.00022148    -0.00031242     0.00036853
H        -0.98203427     0.15294516    -0.54001457    -0.00008863     0.00028895    -0.00049927
     6
  Step:    17            Position(A)                                  Velocity(au)
C        -0.04001535     0.00785225    -0.01403873     0.00001130     0.00000781    -0.00079829
N        -0.04596350    -0.05885351     1.32511871     0.00004973    -0.00000630     0.00070664
H         0.93936609     0.03123226    -0.58883036    -0.00002311    -0.00000278    -0.00086308
H         0.83527210    -0.08434829     1.93125378    -0.00025349     0.00000220     0.00063741
H        -0.88933022    -0.04697809     1.84557288    -0.00040164    -0.00030811     0.00048728
H        -0.98269218     0.15458804    -0.54298313    -0.00014744     0.00030315    -0.00056894
     6
  Step:    18            Position(A)                                  Velocity(au)
C        -0.03992559     0.00789161    -0.01840980     0.00002074     0.00000627    -0.00077281
N        -0.04563134    -0.05889042     1.32899680     0.00006899    -0.00000682     0.00068725
H         0.93908916     0.03121216    -0.59355987    -0.00007574    -0.00000469    -0.00083887
H         0.83355808    -0.08430667     1.93449867    -0.00035889     0.00001266     0.00053404
H        -0.89204652    -0.04867713     1.84859674    -0.00056854    -0.00030401     0.00059581
H        -0.98367032     0.15630907    -0.54632774    -0.00020261     0.00031606    -0.00063244
     6
  Step:    19            Position(A)                                  Velocity(au)
C        -0.03978487     0.00792189    -0.02262697     0.00002947     0.00000456    -0.00074141
N        -0.04519686    -0.05892930     1.33275616     0.00008608    -0.00000701     0.00066260
H         0.93852444     0.03118014    -0.59815277    -0.00012608    -0.00000705    -0.00081210
H         0.83128378    -0.08420763     1.93718862    -0.00045297     0.00002280     0.00043740
H        -0.89564839    -0.05035660     1.85219413    -0.00071605    -0.00030032     0.00069043
H        -0.98494379     0.15810040    -0.55001147    -0.00025235     0.00032753    -0.00068885
     6
  Step:    20            Position(A)                                  Velocity(au)
C        -0.03959763     0.00794234    -0.02665937     0.00003799     0.00000608    -0.00075448
N        -0.04467349    -0.05896839     1.33636953     0.00009966    -0.00000926     0.00067291
H         0.93768628     0.03113369    -0.60259608    -0.00020562    -0.00005731    -0.00074857
H         0.82851795    -0.08405298     1.93936557    -0.00054708     0.00008431     0.00033297
H        -0.90001391    -0.05201877     1.85627913    -0.00082151    -0.00034548     0.00074903
H        -0.98647821     0.15995344    -0.55399251    -0.00026339     0.00037459    -0.00069398
     6
  Step:    21            Position(A)                                  Velocity(au)
C        -0.03936177     0.00798961    -0.03103068     0.00004602     0.00001095    -0.00081362
N        -0.04408676    -0.05903241     1.34025129     0.00010941    -0.00001370     0.00071998
H         0.93623414     0.03054179    -0.60649060    -0.00031206    -0.00014226    -0.00064811
H         0.82519027    -0.08326851     1.94089733    -0.00064012     0.00018254     0.00021942
H        -0.90479868    -0.05420471     1.86053714    -0.00088035    -0.00042342     0.00076810
H        -0.98787748     0.16227274    -0.55774127    -0.00023623     0.00044301    -0.00064934
     6
  Step:    22            Position(A)                                  Velocity(au)
C        -0.03908450     0.00806443    -0.03573046     0.00005276     0.00001577    -0.00086806
N        -0.04345372    -0.05912118     1.34439661     0.00011595    -0.00001795     0.00076359
H         0.93420718     0.02954763    -0.60982187    -0.00040955    -0.00020795    -0.00054825
H         0.82138123    -0.08201785     1.94181183    -0.00071556     0.00025842     0.00011506
H        -0.90982895    -0.05673946     1.86484269    -0.00090989    -0.00047804     0.00076734
H        -0.98911194     0.16489260    -0.56123197    -0.00020495     0.00048911    -0.00060142
     6
  Step:    23            Position(A)                                  Velocity(au)
C        -0.03877304     0.00816554    -0.04071759     0.00005818     0.00002030    -0.00091459
N        -0.04279282    -0.05923275     1.34877240     0.00011916    -0.00002181     0.00080075
H         0.93166388     0.02822124    -0.61260864    -0.00049534    -0.00026301    -0.00045344
H         0.81720520    -0.08038470     1.94218135    -0.00076889     0.00032146     0.00002564
H        -0.91495238    -0.05953933     1.86910006    -0.00091345    -0.00052019     0.00075084
H        -0.99016453     0.16773087    -0.56445263    -0.00017141     0.00052287    -0.00055224
     6
  Step:    24            Position(A)                                  Velocity(au)
C        -0.03843479     0.00829114    -0.04594466     0.00006227     0.00002450    -0.00095276
N        -0.04212294    -0.05936478     1.35333943     0.00011904    -0.00002525     0.00083096
H         0.92867514     0.02661029    -0.61488589    -0.00056764    -0.00031064    -0.00036617
H         0.81279417    -0.07842776     1.94209823    -0.00079775     0.00037525    -0.00004598
H        -0.92003044    -0.06254898     1.87322807    -0.00089382    -0.00055389     0.00072120
H        -0.99102628     0.17073207    -0.56739938    -0.00013696     0.00054818    -0.00050317
     6
  Step:    25            Position(A)                                  Velocity(au)
C        -0.03807720     0.00843926    -0.05136413     0.00006505     0.00002834    -0.00098294
N        -0.04146267    -0.05951489     1.35805785     0.00011569    -0.00002829     0.00085444
H         0.92532086     0.02475006    -0.61670041    -0.00062515    -0.00035276    -0.00028828
H         0.80829077    -0.07619150     1.94166756    -0.00080082     0.00042207    -0.00009808
H        -0.92494033    -0.06572869     1.87715909    -0.00085413    -0.00058156     0.00068096
H        -0.99169498     0.17385642    -0.57007527    -0.00010275     0.00056755    -0.00045540
     6
  Step:    26            Position(A)                                  Velocity(au)
C        -0.03770768     0.00860793    -0.05693147     0.00006654     0.00003185    -0.00100585
N        -0.04082978    -0.05968095     1.36288990     0.00010932    -0.00003097     0.00087174
H         0.92168750     0.02266735    -0.61810816    -0.00066700    -0.00039077    -0.00022109
H         0.80384306    -0.07371013     1.94100191    -0.00077760     0.00046359    -0.00012980
H        -0.92957748    -0.06904933     1.88083954    -0.00079767    -0.00060486     0.00063256
H        -0.99217471     0.17707584    -0.57248956    -0.00006974     0.00058282    -0.00040988
     6
  Step:    27            Position(A)                                  Velocity(au)
C        -0.03733348     0.00879526    -0.06260662     0.00006676     0.00003505    -0.00102231
N        -0.04024080    -0.05986105     1.36780135     0.00010015    -0.00003335     0.00088350
H         0.91786574     0.02038244    -0.61917156    -0.00069255    -0.00042573    -0.00016550
H         0.79959946    -0.07100993     1.94021680    -0.00072833     0.00050116    -0.00014097
H        -0.93385591    -0.07248930     1.88422926    -0.00072765    -0.00062500     0.00057824
H        -0.99247445     0.18037068    -0.57465655    -0.00003872     0.00059536    -0.00036737
     6
  Step:    28            Position(A)                                  Velocity(au)
C        -0.03696172     0.00899954    -0.06835439     0.00006574     0.00003796    -0.00103303
N        -0.03971073    -0.06005362     1.37276187     0.00008846    -0.00003549     0.00089032
H         0.91394917     0.01791036    -0.61995746    -0.00070128    -0.00045848    -0.00012211
H         0.79570499    -0.06811035     1.93942678    -0.00065384     0.00053587    -0.00013210
H        -0.93770797    -0.07603292     1.88730063    -0.00064712    -0.00064286     0.00052003
H        -0.99260731     0.18372820    -0.57659446    -0.00001033     0.00060620    -0.00032840
     6
  Step:    29            Position(A)                                  Velocity(au)
C        -0.03659932     0.00921922    -0.07414372     0.00006348     0.00004061    -0.00103854
N        -0.03925287    -0.06025738     1.37774465     0.00007455    -0.00003742     0.00089264
H         0.91003366     0.01526199    -0.62053533    -0.00069277    -0.00048963    -0.00009122
H         0.79229728    -0.06502516     1.93874152    -0.00055567     0.00056859    -0.00010433
H        -0.94108310    -0.07966888     1.89003707    -0.00055889    -0.00065900     0.00045968
H        -0.99258977     0.18714082    -0.57832420     0.00001490     0.00061605    -0.00029331
     6
  Step:    30            Position(A)                                  Velocity(au)
C        -0.03625311     0.00945288    -0.07994660     0.00006002     0.00004303    -0.00103917
N        -0.03887861    -0.06047133     1.38272557     0.00005878    -0.00003920     0.00089078
H         0.90621647     0.01244509    -0.62097564    -0.00066676    -0.00051959    -0.00007288
H         0.78950253    -0.06176369     1.93826228    -0.00043617     0.00059994    -0.00005943
H        -0.94394630    -0.08338876     1.89243160    -0.00046556    -0.00067379     0.00039875
H        -0.99244100     0.19060457    -0.57986838     0.00003652     0.00062538    -0.00026230
     6
  Step:    31            Position(A)                                  Velocity(au)
C        -0.03592971     0.00969923    -0.08573699     0.00005539     0.00004521    -0.00103510
N        -0.03859716    -0.06069468     1.38768250     0.00004155    -0.00004084     0.00088497
H         0.90259508     0.00946526    -0.62134836    -0.00062330    -0.00054864    -0.00006688
H         0.78743122    -0.05833209     1.93807854    -0.00029854     0.00063032     0.00000021
H        -0.94627701    -0.08718585     1.89448562    -0.00036964    -0.00068737     0.00033865
H        -0.99218232     0.19411782    -0.58125053     0.00005418     0.00063447    -0.00023550
     6
  Step:    32            Position(A)                                  Velocity(au)
C        -0.03563546     0.00995707    -0.09148994     0.00004963     0.00004717    -0.00102647
N        -0.03841529    -0.06092680     1.39259466     0.00002334    -0.00004238     0.00087540
H         0.89926552     0.00632670    -0.62172147    -0.00056282    -0.00057694    -0.00007276
H         0.78617328    -0.05473443     1.93826464    -0.00014695     0.00066001     0.00007157
H        -0.94806851    -0.09105424     1.89620816    -0.00027359    -0.00069984     0.00028070
H        -0.99183681     0.19768013    -0.58249467     0.00006759     0.00064347    -0.00021295
     6
  Step:    33            Position(A)                                  Velocity(au)
C        -0.03537632     0.01022519    -0.09718132     0.00004286     0.00004892    -0.00101341
N        -0.03833694    -0.06116714     1.39744255     0.00000469    -0.00004381     0.00086232
H         0.89632013     0.00303280    -0.62215961    -0.00048628    -0.00060459    -0.00008977
H         0.78579282    -0.05097354     1.93887654     0.00001352     0.00068913     0.00015113
H        -0.94932726    -0.09498851     1.89761516    -0.00017978    -0.00071125     0.00022613
H        -0.99142878     0.20129195    -0.58362479     0.00007656     0.00065247    -0.00019465
     6
  Step:    34            Position(A)                                  Velocity(au)
C        -0.03515760     0.01050244    -0.10278780     0.00003521     0.00005045    -0.00099613
N        -0.03836297    -0.06141516     1.40220803    -0.00001381    -0.00004513     0.00084599
H         0.89384431    -0.00041348    -0.62272224    -0.00039529    -0.00063161    -0.00011681
H         0.78632405    -0.04705183     1.93994946     0.00017719     0.00071768     0.00023499
H        -0.95007274    -0.09898343     1.89872914    -0.00009054    -0.00072162     0.00017611
H        -0.99098324     0.20495402    -0.58466469     0.00008103     0.00066152    -0.00018053
     6
  Step:    35            Position(A)                                  Velocity(au)
C        -0.03498374     0.01078765    -0.10828722     0.00002686     0.00005177    -0.00097491
N        -0.03849096    -0.06167032     1.40687454    -0.00003159    -0.00004635     0.00082678
H         0.89191308    -0.00400908    -0.62346187    -0.00029206    -0.00065805    -0.00015247
H         0.78776829    -0.04297213     1.94149647     0.00033803     0.00074559     0.00031916
H        -0.95033673    -0.10303384     1.89957858    -0.00000810    -0.00073104     0.00013168
H        -0.99052532     0.20866728    -0.58563753     0.00008103     0.00067067    -0.00017049
     6
  Step:    36            Position(A)                                  Velocity(au)
C        -0.03485809     0.01107972    -0.11365908     0.00001803     0.00005289    -0.00095012
N        -0.03871520    -0.06193201     1.41142748    -0.00004805    -0.00004745     0.00080507
H         0.89058757    -0.00775143    -0.62442242    -0.00017940    -0.00068396    -0.00019507
H         0.79009341    -0.03873775     1.94350839     0.00049011     0.00077272     0.00039973
H        -0.95016305    -0.10713533     1.90019752     0.00006551    -0.00073968     0.00009378
H        -0.99007971     0.21243272    -0.58656582     0.00007669     0.00067994    -0.00016437
     6
  Step:    37            Position(A)                                  Velocity(au)
C        -0.03478267     0.01137761    -0.11888488     0.00000896     0.00005383    -0.00092221
N        -0.03902689    -0.06219954     1.41585436    -0.00006268    -0.00004841     0.00078132
H         0.88991206    -0.01163794    -0.62563774    -0.00006056    -0.00070934    -0.00024274
H         0.79323494    -0.03435314     1.94595510     0.00062791     0.00079889     0.00047319
H        -0.94960604    -0.11128426     1.90062466     0.00012853    -0.00074771     0.00006317
H        -0.98966996     0.21625141    -0.58747092     0.00006829     0.00068938    -0.00016195
     6
  Step:    38            Position(A)                                  Velocity(au)
C        -0.03475808     0.01168029    -0.12394867    -0.00000007     0.00005458    -0.00089170
N        -0.03941450    -0.06247210     1.42014503    -0.00007503    -0.00004920     0.00075595
H         0.88991188    -0.01566593    -0.62713074     0.00006093    -0.00073421    -0.00029344
H         0.79709933    -0.02982411     1.94878801     0.00074671     0.00082386     0.00053655
H        -0.94872900    -0.11547796     1.90090237     0.00017954    -0.00075537     0.00004040
H        -0.98931779     0.22012450    -0.58837278     0.00005623     0.00069902    -0.00016295
     6
  Step:    39            Position(A)                                  Velocity(au)
C        -0.03478342     0.01198682    -0.12883721    -0.00000880     0.00005517    -0.00085911
N        -0.03986426    -0.06274872     1.42429161    -0.00008476    -0.00004982     0.00072940
H         0.89059206    -0.01983254    -0.62891287     0.00018140    -0.00075854    -0.00034515
H         0.80156901    -0.02515793     1.95194363     0.00084279     0.00084740     0.00058755
H        -0.94760213    -0.11971500     1.90107556     0.00021754    -0.00076289     0.00002580
H        -0.98904242     0.22405327    -0.58928963     0.00004100     0.00070891    -0.00016704
     6
  Step:    40            Position(A)                                  Velocity(au)
C        -0.03485631     0.01229626    -0.13354019    -0.00001698     0.00005560    -0.00082499
N        -0.04036081    -0.06302833     1.42828844    -0.00009166    -0.00005024     0.00070207
H         0.89193711    -0.02413468    -0.63098421     0.00029728    -0.00078231    -0.00039591
H         0.80650865    -0.02036329     1.95534770     0.00091363     0.00086930     0.00062467
H        -0.94630031    -0.12399531     1.90119043     0.00024192    -0.00077057     0.00001949
H        -0.98886007     0.22803911    -0.59023771     0.00002319     0.00071907    -0.00017385
     6
  Step:    41            Position(A)                                  Velocity(au)
C        -0.03497302     0.01260776    -0.13805029    -0.00002438     0.00005589    -0.00078989
N        -0.04088783    -0.06330973     1.43213198    -0.00009562    -0.00005043     0.00067433
H         0.89391193    -0.02856895    -0.63333416     0.00040525    -0.00080548    -0.00044391
H         0.81177196    -0.01545008     1.95891961     0.00095794     0.00088939     0.00064719
H        -0.94490048    -0.12832032     1.90129317     0.00025259    -0.00077867     0.00002132
H        -0.98878345     0.23208349    -0.59123106     0.00000346     0.00072955    -0.00018296
     6
  Step:    42            Position(A)                                  Velocity(au)
C        -0.03512862     0.01292050    -0.14236299    -0.00003081     0.00005604    -0.00075429
N        -0.04142881    -0.06359161     1.43582048    -0.00009666    -0.00005039     0.00064648
H         0.89646367    -0.03313160    -0.63594259     0.00050241    -0.00082800    -0.00048762
H         0.81720852    -0.01042910     1.96257664     0.00097556     0.00090757     0.00065510
H        -0.94347897    -0.13269288     1.90142859     0.00024990    -0.00078748     0.00003094
H        -0.98882143     0.23618799    -0.59228137    -0.00001749     0.00074037    -0.00019397
     6
  Step:    43            Position(A)                                  Velocity(au)
C        -0.03531722     0.01323374    -0.14647644    -0.00003613     0.00005606    -0.00071864
N        -0.04196762    -0.06387262     1.43935378    -0.00009491    -0.00005011     0.00061878
H         0.89952439    -0.03781857    -0.63878136     0.00058638    -0.00084984    -0.00052577
H         0.82267001    -0.00531164     1.96623771     0.00096737     0.00092380     0.00064896
H        -0.94210882    -0.13711726     1.90163882     0.00023469    -0.00079722     0.00004776
H        -0.98897878     0.24035419    -0.59339787    -0.00003891     0.00075154    -0.00020642
     6
  Step:    44            Position(A)                                  Velocity(au)
C        -0.03553228     0.01354678    -0.15039113    -0.00004025     0.00005597    -0.00068332
N        -0.04248910    -0.06415140     1.44273308    -0.00009059    -0.00004959     0.00059145
H         0.90301428    -0.04262541    -0.64181614     0.00065535    -0.00087093    -0.00055743
H         0.82801530    -0.00010907     1.96982643     0.00093501     0.00093811     0.00062984
H        -0.94085721    -0.14159888     1.90196212     0.00020820    -0.00080809     0.00007099
H        -0.98925614     0.24458368    -0.59458736    -0.00006009     0.00076305    -0.00021990
     6