     6
  Step:   600            Position(A)                                  Velocity(au)
C         0.13783055     0.00461431     0.06845960    -0.00050763    -0.00029414     0.00104843
N        -0.18693654     0.04968713     1.24847215     0.00057256     0.00038689    -0.00124633
H        -0.93086221    -0.04894756    -0.77166595    -0.00113505     0.00039892     0.00467158
H        -1.12514509    -0.26633383     1.78522057    -0.00163991    -0.00079497    -0.00037089
H         0.73307558    -0.12706280     2.20500290    -0.00171903    -0.00334161    -0.00248011
H         1.06520098    -0.97212084    -0.49152546     0.00258641     0.00186643     0.00300566
