     6
  Step:     0            Position(A)                                  Velocity(au)
C        -0.04317598     0.00748077     0.01844913     0.00006658    -0.00012566     0.00034822
N        -0.03688307    -0.05835828     1.30440959     0.00004104     0.00009031    -0.00023423
H         0.95570537     0.04402412    -0.53756209    -0.00015738     0.00042112    -0.00002167
H         0.82317647    -0.11807838     1.79221720    -0.00103207    -0.00029832    -0.00087147
H        -0.99190296     0.01048015     1.84890565     0.00004421    -0.00020680     0.00036870
H        -0.97288908     0.11562237    -0.55789524    -0.00021846     0.00032651    -0.00037003
     6
  Step:     1            Position(A)                                  Velocity(au)
C        -0.04239953     0.00612726     0.02173467     0.00007350    -0.00012160     0.00024590
N        -0.03672609    -0.05737669     1.30230657    -0.00001629     0.00008953    -0.00014783
H         0.95343590     0.04871281    -0.53797863    -0.00025574     0.00043693    -0.00005459
H         0.81364517    -0.12151294     1.78446966    -0.00065289    -0.00033652    -0.00051150
H        -0.98886205     0.00808528     1.85197225     0.00051018    -0.00023078     0.00018843
H        -0.97556318     0.11925236    -0.56272424    -0.00025093     0.00033528    -0.00049815
     6
  Step:     2            Position(A)                                  Velocity(au)
C        -0.04156809     0.00482055     0.02382863     0.00007689    -0.00011724     0.00013254
N        -0.03723955    -0.05639956     1.30117546    -0.00007833     0.00008939    -0.00005757
H         0.95011065     0.05358284    -0.53875626    -0.00034851     0.00045441    -0.00008896
H         0.80889320    -0.12544030     1.78102725    -0.00018988    -0.00038650    -0.00010469
H        -0.98074189     0.00543138     1.85302785     0.00095677    -0.00025308     0.00001103
H        -0.97837858     0.12295717    -0.56879324    -0.00024615     0.00034008    -0.00059667
     6
  Step:     3            Position(A)                                  Velocity(au)
C        -0.04071740     0.00356244     0.02463416     0.00007737    -0.00011287     0.00001286
N        -0.03843967    -0.05542105     1.30104710    -0.00013812     0.00008961     0.00003440
H         0.94581160     0.05865383    -0.53992470    -0.00043186     0.00047380    -0.00012724
H         0.80949115    -0.12996838     1.78217935     0.00028776    -0.00044327     0.00030480
H        -0.96793095     0.00254869     1.85221345     0.00135058    -0.00027161    -0.00014243
H        -0.98094809     0.12669225    -0.57577760    -0.00020914     0.00034090    -0.00066646
     6
  Step:     4            Position(A)                                  Velocity(au)
C        -0.03987543     0.00235136     0.02411005     0.00007566    -0.00010880    -0.00010787
N        -0.04026110    -0.05443919     1.30192804    -0.00018829     0.00008980     0.00012550
H         0.94066279     0.06394813    -0.54153980    -0.00050193     0.00049535    -0.00017171
H         0.81518846    -0.13513778     1.78769524     0.00070841    -0.00050025     0.00067168
H        -0.95119539    -0.00051065     1.84991181     0.00165546    -0.00028444    -0.00024849
H        -0.98295399     0.13041494    -0.58337328    -0.00014702     0.00033805    -0.00071009
     6
  Step:     5            Position(A)                                  Velocity(au)
C        -0.03906214     0.00118233     0.02227441     0.00007242    -0.00010532    -0.00022428
N        -0.04255886    -0.05345661     1.30379255    -0.00022227     0.00008955     0.00021227
H         0.93483103     0.06949061    -0.54368118    -0.00055477     0.00051930    -0.00022438
H         0.82498893    -0.14091228     1.79687375     0.00101499    -0.00055085     0.00095992
H        -0.93171459    -0.00367399     1.84677723     0.00183324    -0.00028985    -0.00028166
H        -0.98416438     0.13408765    -0.59131223    -0.00006779     0.00033207    -0.00073122
     6
  Step:     6            Position(A)                                  Velocity(au)
C        -0.03829101     0.00004727     0.01920357     0.00006813    -0.00010270    -0.00033134
N        -0.04512362    -0.05248005     1.30657194    -0.00023531     0.00008859     0.00029051
H         0.92852616     0.07530873    -0.54644865    -0.00058660     0.00054587    -0.00028683
H         0.83739341    -0.14718864     1.80869528     0.00117566    -0.00059004     0.00114921
H        -0.91108984    -0.00685160     1.84374992     0.00184829    -0.00028662    -0.00021729
H        -0.98443699     0.13767952    -0.59937018     0.00002062     0.00032360    -0.00073392
     6
  Step:     7            Position(A)                                  Velocity(au)
C        -0.03757156    -0.00106438     0.01502574     0.00006303    -0.00010112    -0.00042481
N        -0.04770662    -0.05151857     1.31014808    -0.00022523     0.00008679     0.00035592
H         0.92199797     0.08143256    -0.54995606    -0.00059414     0.00057531    -0.00035990
H         0.85070885    -0.15382042     1.82201490     0.00118493    -0.00061512     0.00123579
H        -0.89127965    -0.00994440     1.84202363     0.00167679    -0.00027453    -0.00003756
H        -0.98371321     0.14116692    -0.60736818     0.00011113     0.00031326    -0.00072221
     6
  Step:     8            Position(A)                                  Velocity(au)
C        -0.03691200    -0.00216485     0.00991001     0.00005715    -0.00010069    -0.00050157
N        -0.05005090    -0.05058128     1.31435830    -0.00019289     0.00008427     0.00040526
H         0.91552818     0.08789474    -0.55432224    -0.00057512     0.00060771    -0.00044353
H         0.86331603    -0.16064566     1.83573055     0.00105741    -0.00062577     0.00122859
H        -0.87440690    -0.01285740     1.84292824     0.00131931    -0.00025471     0.00025986
H        -0.98200583     0.14453268    -0.61516980     0.00019785     0.00030168    -0.00069975
     6
  Step:     9            Position(A)                                  Velocity(au)
C        -0.03632122    -0.00326708     0.00405284     0.00005041    -0.00010143    -0.00055982
N        -0.05192653    -0.04967507     1.31901386    -0.00014238     0.00008130     0.00043744
H         0.90941622     0.09472729    -0.55965917    -0.00052889     0.00064318    -0.00053634
H         0.87384181    -0.16751039     1.84889272     0.00081951    -0.00062347     0.00114406
H        -0.86241717    -0.01551673     1.84770859     0.00081104    -0.00022988     0.00065415
H        -0.97938484     0.14776671    -0.62267650     0.00027621     0.00028924    -0.00066977
     6
  Step:    10            Position(A)                                  Velocity(au)
C        -0.03580910    -0.00438390    -0.00233716     0.00004276    -0.00010331    -0.00059906
N        -0.05316582    -0.04880275     1.32392803    -0.00008057     0.00007829     0.00045391
H         0.90395769     0.10196553    -0.56605564    -0.00045702     0.00068183    -0.00063543
H         0.88124437    -0.17428523     1.86075907     0.00050212    -0.00061091     0.00100161
H        -0.85666381    -0.01788656     1.85723898     0.00022219    -0.00020380     0.00109966
H        -0.97596314     0.15086040    -0.62982232     0.00034287     0.00027607    -0.00063503
     6
  Step:    11            Position(A)                                  Velocity(au)
C        -0.03538583    -0.00552713    -0.00905276     0.00003424    -0.00010619    -0.00061990
N        -0.05368920    -0.04796234     1.32894391    -0.00001585     0.00007567     0.00045812
H         0.89941799     0.10964373    -0.57356052    -0.00036362     0.00072343    -0.00073638
H         0.88482655    -0.18087512     1.87080488     0.00013601    -0.00059150     0.00082076
H        -0.85755628    -0.01997525     1.87176565    -0.00035574    -0.00018018     0.00153399
H        -0.97188396     0.15380620    -0.63656891     0.00039551     0.00026215    -0.00059784
     6
  Step:    12            Position(A)                                  Velocity(au)
C        -0.03505993    -0.00670700    -0.01589862     0.00002513    -0.00010991    -0.00062375
N        -0.05351256    -0.04714727     1.33395029     0.00004371     0.00007382     0.00045421
H         0.89600290     0.11779196    -0.58216543    -0.00025530     0.00076742    -0.00083333
H         0.88421994    -0.18722540     1.87871487    -0.00024974    -0.00056918     0.00062012
H        -0.86444626    -0.02182829     1.89079805    -0.00083456    -0.00016159     0.00189428
H        -0.96731067     0.15659550    -0.64290130     0.00043265     0.00024732    -0.00056021
     6
  Step:    13            Position(A)                                  Velocity(au)
C        -0.03483597    -0.00793162    -0.02269855     0.00001588    -0.00011426    -0.00061254
N        -0.05273294    -0.04634737     1.33888054     0.00009197     0.00007302     0.00044554
H         0.89383288     0.12643247    -0.59179114    -0.00014063     0.00081292    -0.00091948
H         0.87936297    -0.19332697     1.88437113    -0.00062769    -0.00054840     0.00041739
H        -0.87581386    -0.02351027     1.91320657    -0.00115229    -0.00014885     0.00213355
H        -0.96241900     0.15921677    -0.64882467     0.00045341     0.00023125    -0.00052386
     6
  Step:    14            Position(A)                                  Velocity(au)
C        -0.03471259    -0.00920661    -0.02929903     0.00000519    -0.00011031    -0.00068584
N        -0.05150062    -0.04554983     1.34369737     0.00012900     0.00006921     0.00050932
H         0.89292632     0.13557607    -0.60228077    -0.00007544     0.00093381    -0.00088800
H         0.87048792    -0.19922261     1.88784612    -0.00102863    -0.00063128     0.00019735
H        -0.88965489    -0.02508458     1.93747359    -0.00125927    -0.00002817     0.00219984
H        -0.95739153     0.16165443    -0.65436177     0.00050890     0.00007840    -0.00041444
     6
  Step:    15            Position(A)                                  Velocity(au)
C        -0.03472246    -0.01034483    -0.03770261    -0.00000557    -0.00009747    -0.00084773
N        -0.04991089    -0.04483321     1.35002298     0.00015290     0.00006233     0.00064848
H         0.89218255     0.14686143    -0.61121775    -0.00006503     0.00110483    -0.00073857
H         0.85685973    -0.20713744     1.88868843    -0.00141989    -0.00079867    -0.00002651
H        -0.90336279    -0.02412664     1.96133227    -0.00116515     0.00018047     0.00208934
H        -0.95128579     0.16093187    -0.65789139     0.00059166    -0.00019133    -0.00023420
     6
  Step:    16            Position(A)                                  Velocity(au)
C        -0.03483451    -0.01133886    -0.04784480    -0.00001288    -0.00008428    -0.00099699
N        -0.04815558    -0.04418613     1.35788418     0.00015907     0.00005701     0.00078284
H         0.89150370     0.15974635    -0.61843847    -0.00005994     0.00123657    -0.00057958
H         0.83942521    -0.21669500     1.88726621    -0.00170152    -0.00094765    -0.00020039
H        -0.91514484    -0.02113652     1.98318197    -0.00092826     0.00035315     0.00185315
H        -0.94444782     0.15746867    -0.65948534     0.00063260    -0.00042988    -0.00007164
     6
  Step:    17            Position(A)                                  Velocity(au)
C        -0.03500416    -0.01218860    -0.05951370    -0.00001554    -0.00007123    -0.00112399
N        -0.04643085    -0.04358604     1.36714915     0.00014729     0.00005420     0.00090128
H         0.89087114     0.17391380    -0.62389711    -0.00005390     0.00134423    -0.00042056
H         0.81963564    -0.22786905     1.88430445    -0.00183023    -0.00110540    -0.00029419
H        -0.92367035    -0.01640088     2.00187344    -0.00059051     0.00050401     0.00152997
H        -0.93744646     0.15152744    -0.65945857     0.00061302    -0.00064714     0.00005379
     6
  Step:    18            Position(A)                                  Velocity(au)
C        -0.03517458    -0.01289706    -0.07243415    -0.00001258    -0.00005854    -0.00122469
N        -0.04493329    -0.04300048     1.37760132     0.00011793     0.00005480     0.00099780
H         0.89032464     0.18915392    -0.62763892    -0.00004232     0.00143587    -0.00026907
H         0.79938550    -0.24087764     1.88083018    -0.00177267    -0.00129239    -0.00028504
H        -0.92806346    -0.01011026     2.01665299    -0.00019189     0.00064001     0.00115416
H        -0.93103686     0.14331132    -0.65830854     0.00051802    -0.00084741     0.00012764
     6
  Step:    19            Position(A)                                  Velocity(au)
C        -0.03527936    -0.01346926    -0.08630617    -0.00000337    -0.00004632    -0.00129802
N        -0.04385100    -0.04238709     1.38897796     0.00007271     0.00005957     0.00106968
H         0.88994522     0.20532629    -0.62978357    -0.00002212     0.00151697    -0.00013126
H         0.78085519    -0.25614247     1.87806861    -0.00151689    -0.00152440    -0.00016371
H        -0.92786836    -0.00239941     2.02712282     0.00023027     0.00076551     0.00075689
H        -0.92611369     0.13298882    -0.65666621     0.00033841    -0.00103387     0.00014068
     6
  Step:    20            Position(A)                                  Velocity(au)
C        -0.03524821    -0.01391039    -0.10083075     0.00001201    -0.00003448    -0.00134494
N        -0.04334261    -0.04169719     1.40100259     0.00001585     0.00006870     0.00111698
H         0.88984068     0.22234044    -0.63051055     0.00000835     0.00159148    -0.00001183
H         0.76620069    -0.27422676     1.87724878    -0.00108556    -0.00180871     0.00005780
H        -0.92302581     0.00663678     2.03321133     0.00063949     0.00088397     0.00036760
H        -0.92363350     0.12069342    -0.65523096     0.00007430    -0.00121034     0.00009085
     6
  Step:    21            Position(A)                                  Velocity(au)
C        -0.03501667    -0.01422364    -0.11572925     0.00003245    -0.00002277    -0.00136795
N        -0.04350418    -0.04088425     1.41341396    -0.00004533     0.00008138     0.00114204
H         0.89012787     0.24014288    -0.63004230     0.00004902     0.00166227     0.00008615
H         0.75710654    -0.29571151     1.87933319    -0.00054220    -0.00213881     0.00034333
H        -0.91387819     0.01693913     2.03516472     0.00099760     0.00099884     0.00001585
H        -0.92448818     0.10651038    -0.65467873    -0.00026118    -0.00138182    -0.00001497
     6
  Step:    22            Position(A)                                  Velocity(au)
C        -0.03453827    -0.01440845    -0.13075723     0.00005578    -0.00001076    -0.00137054
N        -0.04433434    -0.03991679     1.42598687    -0.00010098     0.00009564     0.00114848
H         0.89091304     0.25870582    -0.62862592     0.00009802     0.00173116     0.00016120
H         0.75433904    -0.32101735     1.88475988     0.00001792    -0.00249209     0.00063910
H        -0.90120137     0.02848839     2.03355799     0.00126324     0.00111455    -0.00026759
H        -0.92934729     0.09046349    -0.65555850    -0.00064055    -0.00155430    -0.00016105
     6
  Step:    23            Position(A)                                  Velocity(au)
C        -0.03379644    -0.01445905    -0.14571233     0.00007892     0.00000199    -0.00135659
N        -0.04571337    -0.03879198     1.43853919    -0.00014058     0.00010849     0.00113986
H         0.89227230     0.27801534    -0.62651578     0.00015174     0.00179884     0.00021343
H         0.75749850    -0.35023083     1.89331474     0.00049221    -0.00283372     0.00088889
H        -0.88624239     0.04132204     2.02931058     0.00139344     0.00123702    -0.00045181
H        -0.93850134     0.07250714    -0.65820203    -0.00102438    -0.00173336    -0.00032527
     6
  Step:    24            Position(A)                                  Velocity(au)
C        -0.03281167    -0.01436502    -0.16043524     0.00009853     0.00001580    -0.00132979
N        -0.04740969    -0.03754327     1.45092356    -0.00015549     0.00011671     0.00111863
H         0.89423255     0.29805882    -0.62395668     0.00020493     0.00186482     0.00024434
H         0.76510709    -0.38301037     1.90420613     0.00079956    -0.00312615     0.00105063
H        -0.87071720     0.05555060     2.02367375     0.00135016     0.00137354    -0.00051035
H        -0.95175748     0.05254286    -0.66267443    -0.00136806    -0.00192230    -0.00048378
     6
  Step:    25            Position(A)                                  Velocity(au)
C        -0.03164080    -0.01411335    -0.17480393     0.00011170     0.00003080    -0.00129310
N        -0.04911503    -0.03623863     1.46301145    -0.00014121     0.00011763     0.00108607
H         0.89675551     0.31881190    -0.62117037     0.00025114     0.00192749     0.00025646
H         0.77499051    -0.41862140     1.91629935     0.00089850    -0.00333973     0.00110549
H        -0.85670512     0.07137093     2.01814572     0.00111239     0.00153161    -0.00042958
H        -0.96843026     0.03045319    -0.66878562    -0.00163077    -0.00212088    -0.00061623
     6
  Step:    26            Position(A)                                  Velocity(au)
C        -0.03036795    -0.01369124    -0.18872426     0.00011657     0.00004684    -0.00124869
N        -0.05049897    -0.03496990     1.47468352    -0.00009847     0.00010979     0.00104327
H         0.89972678     0.34022638    -0.61834616     0.00028326     0.00198422     0.00025294
H         0.78476339    -0.45607327     1.92839093     0.00078810    -0.00345879     0.00105675
H        -0.84638146     0.08905746     2.01427589     0.00069103     0.00171597    -0.00021858
H        -0.98743379     0.00614463    -0.67615561    -0.00178307    -0.00232521    -0.00070939
     6
  Step:    27            Position(A)                                  Velocity(au)
C        -0.02909071    -0.01308858    -0.20212137     0.00011256     0.00006362    -0.00119797
N        -0.05126920    -0.03383666     1.48583505    -0.00003310     0.00009330     0.00099227
H         0.90295246     0.36222052    -0.61563684     0.00029429     0.00203169     0.00023707
H         0.79223168    -0.49428901     1.93941775     0.00049644    -0.00348188     0.00092203
H        -0.84158751     0.10891098     2.01336393     0.00013861     0.00192444     0.00008515
H        -1.00743826    -0.02041527    -0.68430495    -0.00181059    -0.00252875    -0.00075820
     6
  Step:    28            Position(A)                                  Velocity(au)
C        -0.02790560    -0.01229943    -0.21493207     0.00010026     0.00008073    -0.00114173
N        -0.05122312    -0.03292882     1.49639138     0.00004534     0.00006973     0.00093641
H         0.90616494     0.38467355    -0.61315981     0.00027815     0.00206634     0.00021185
H         0.79562398    -0.53224596     1.94856203     0.00006555    -0.00341793     0.00072464
H        -0.84334914     0.13115826     2.01613869    -0.00045513     0.00214457     0.00042018
H        -1.02704389    -0.04917666    -0.69274267    -0.00171339    -0.00272386    -0.00076443
     6
  Step:    29            Position(A)                                  Velocity(au)
C        -0.02689728    -0.01132237    -0.22709895     0.00008105     0.00009779    -0.00108034
N        -0.05027728    -0.03231123     1.50632082     0.00012602     0.00004181     0.00087959
H         0.90903751     0.40742560    -0.61100221     0.00023045     0.00208482     0.00017969
H         0.79366572    -0.56906281     1.95527070    -0.00046009    -0.00328179     0.00048763
H        -0.85154440     0.15582764     2.02255628    -0.00098511     0.00235407     0.00071719
H        -1.04492204    -0.08000497    -0.70102841    -0.00150234    -0.00290329    -0.00073431
     6
  Step:    30            Position(A)                                  Velocity(au)
C        -0.02613243    -0.01016010    -0.23856649     0.00005664     0.00011444    -0.00101386
N        -0.04846616    -0.03201410     1.51563416     0.00019945     0.00001280     0.00082502
H         0.91120638     0.43028297    -0.60922866     0.00014900     0.00208449     0.00014228
H         0.78555872    -0.60404141     1.95922984    -0.00103962    -0.00309093     0.00023109
H        -0.86490028     0.18265814     2.03182864    -0.00136123     0.00252615     0.00091927
H        -1.05991039    -0.11269174    -0.70880721    -0.00119470    -0.00306110    -0.00067610
     6
  Step:    31            Position(A)                                  Velocity(au)
C        -0.02565822    -0.00881884    -0.24927917     0.00002873     0.00013037    -0.00094229
N        -0.04591395    -0.03203123     1.52436962     0.00025923    -0.00001420     0.00077419
H         0.91229721     0.45302785    -0.60788960     0.00003411     0.00206374     0.00010055
H         0.77092212    -0.63668281     1.96032617    -0.00163747    -0.00286413    -0.00002802
H        -0.88132396     0.21109192     2.04266706    -0.00153098     0.00263720     0.00099564
H        -1.07105835    -0.14697233    -0.71581933    -0.00081041    -0.00319289    -0.00059827
     6
  Step:    32            Position(A)                                  Velocity(au)
C        -0.02550383    -0.00730796    -0.25918086    -0.00000113     0.00014533    -0.00086553
N        -0.04279504    -0.03232474     1.53257109     0.00030238    -0.00003659     0.00072675
H         0.91195259     0.47543125    -0.60702896    -0.00011165     0.00202223     0.00005487
H         0.74973583    -0.66669971     1.95861683    -0.00222252    -0.00262182    -0.00027494
H        -0.89839339     0.24035186     2.05361020    -0.00148468     0.00267258     0.00094326
H        -1.07763959    -0.18254242    -0.72189542    -0.00036975    -0.00329617    -0.00050872
     6
  Step:    33            Position(A)                                  Velocity(au)
C        -0.02568295    -0.00563939    -0.26821424    -0.00003167     0.00015909    -0.00078349
N        -0.03929872    -0.03283177     1.54026869     0.00032856    -0.00005236     0.00068093
H         0.90985462     0.49726810    -0.60668927    -0.00028380     0.00196098     0.00000520
H         0.72230016    -0.69404023     1.95431126    -0.00276671    -0.00238713    -0.00049608
H        -0.91380414     0.26955980     2.06330265    -0.00124573     0.00262820     0.00077904
H        -1.07914729    -0.21908235    -0.72694846     0.00010778    -0.00337014    -0.00041444
     6
  Step:    34            Position(A)                                  Velocity(au)
C        -0.02619660    -0.00382751    -0.27632123    -0.00006182     0.00017144    -0.00069612
N        -0.03560718    -0.03347012     1.54746767     0.00033886    -0.00005984     0.00063429
H         0.90574393     0.51833155    -0.60691531    -0.00047640     0.00188222    -0.00004876
H         0.68920871    -0.71892280     1.94776402    -0.00324459    -0.00218661    -0.00067848
H        -0.92564618     0.29784874     2.07065319    -0.00085515     0.00250852     0.00052935
H        -1.07528179    -0.25627064    -0.73096200     0.00060386    -0.00341532    -0.00032145
     6
  Step:    35            Position(A)                                  Velocity(au)
C        -0.02703545    -0.00188892    -0.28344313    -0.00009073     0.00018218    -0.00060334
N        -0.03188548    -0.03414082     1.55414496     0.00033504    -0.00005756     0.00058434
H         0.89943236     0.53844518    -0.60775593    -0.00068258     0.00178919    -0.00010740
H         0.65131865    -0.74187649     1.93946827    -0.00363455    -0.00204978    -0.00081027
H        -0.93251220     0.32443842     2.07488312    -0.00035888     0.00232331     0.00022196
H        -1.06593663    -0.29379909    -0.73398074     0.00110134    -0.00343362    -0.00023506
     6
  Step:    36            Position(A)                                  Velocity(au)
C        -0.02818158     0.00015805    -0.28952055    -0.00011766     0.00019120    -0.00050510
N        -0.02827755    -0.03472934     1.56025129     0.00031924    -0.00004427     0.00052896
H         0.89081125     0.55747355    -0.60926481    -0.00089488     0.00168601    -0.00017118
H         0.60969598    -0.76376566     1.93003774    -0.00392244    -0.00200587    -0.00088258
H        -0.93349731     0.34867569     2.07550902     0.00019909     0.00208509    -0.00011795
H        -1.05118789    -0.33138773    -0.73610430     0.00158396    -0.00342829    -0.00016009
     6
  Step:    37            Position(A)                                  Velocity(au)
C        -0.02960959     0.00229397    -0.29449321    -0.00014197     0.00019844    -0.00040130
N        -0.02490140    -0.03510930     1.56571696     0.00029429    -0.00001937     0.00046665
H         0.87985520     0.57532995    -0.61150072    -0.00110569     0.00157735    -0.00024055
H         0.56550771    -0.78575885     1.92016020    -0.00410682    -0.00207672    -0.00089253
H        -0.92815665     0.37005377     2.07230271     0.00077835     0.00180793    -0.00046862
H        -1.03128454    -0.36879939    -0.73748306     0.00203634    -0.00340388    -0.00010107
     6
  Step:    38            Position(A)                                  Velocity(au)
C        -0.03128753     0.00449931    -0.29829976    -0.00016310     0.00020394    -0.00029183
N        -0.02183939    -0.03515314     1.57046006     0.00026409     0.00001633     0.00039671
H         0.86662221     0.59198121    -0.61452736    -0.00130753     0.00146819    -0.00031596
H         0.51985138    -0.80919791     1.91051191    -0.00420333    -0.00226667    -0.00084654
H        -0.91646946     0.38822760     2.06525709     0.00134038     0.00150773    -0.00081053
H        -1.00663909    -0.40585402    -0.73831551     0.00244409    -0.00336619    -0.00006228
     6
  Step:    39            Position(A)                                  Velocity(au)
C        -0.03317765     0.00675551    -0.30087766    -0.00018057     0.00020782    -0.00017663
N        -0.01912401    -0.03475209     1.57439575     0.00023384     0.00005986     0.00031925
H         0.85125056     0.60744943    -0.61841297    -0.00149334     0.00136350    -0.00039778
H         0.47355185    -0.83534651     1.90164051    -0.00424446    -0.00255317    -0.00076176
H        -0.89883321     0.40303823     2.05457079     0.00184550     0.00120339    -0.00112457
H        -0.97781546    -0.44244120    -0.73884560     0.00279444    -0.00332186    -0.00004754
     6
  Step:    40            Position(A)                                  Velocity(au)
C        -0.03523781     0.00904585    -0.30216389    -0.00019407     0.00021028    -0.00005572
N        -0.01672372    -0.03384362     1.57744421     0.00020970     0.00010579     0.00023491
H         0.83395262     0.62181027    -0.62322949    -0.00165678     0.00126788    -0.00048624
H         0.42699563    -0.86505331     1.89384693    -0.00427214    -0.00288408    -0.00066397
H        -0.87609562     0.41455404     2.04065487     0.00225011     0.00091813    -0.00139047
H        -0.94550544    -0.47852610    -0.73935546     0.00307722    -0.00327761    -0.00005975
     6
  Step:    41            Position(A)                                  Velocity(au)
C        -0.03742324     0.01135572    -0.30209664    -0.00020349     0.00021145     0.00007061
N        -0.01453639    -0.03243770     1.57953481     0.00019784     0.00014684     0.00014449
H         0.81500524     0.63518677    -0.62905039    -0.00179255     0.00118517    -0.00058129
H         0.38009067    -0.89844129     1.88711499    -0.00432439    -0.00318639    -0.00058148
H        -0.84960784     0.42312417     2.02415171     0.00250621     0.00067996    -0.00158640
H        -0.91049539    -0.51414527    -0.74015277     0.00328618    -0.00323885    -0.00010011
     6
  Step:    42            Position(A)                                  Velocity(au)
C        -0.03968953     0.01367171    -0.30061917    -0.00020901     0.00021135     0.00020158
N        -0.01239550    -0.03063116     1.58060520     0.00020321     0.00017534     0.00004862
H         0.79473718     0.64773813    -0.63594639    -0.00189662     0.00111788    -0.00068230
H         0.33239143    -0.93476170     1.88112593    -0.00442230    -0.00338474    -0.00053751
H        -0.82126747     0.42942939     2.00594924     0.00256540     0.00051972    -0.00169105
H        -0.87361403    -0.54938219    -0.74154548     0.00342022    -0.00320776    -0.00016685
     6
  Step:    43            Position(A)                                  Velocity(au)
C        -0.04199568     0.01597934    -0.29768673    -0.00021104     0.00020974     0.00033558
N        -0.01009086    -0.02860180     1.58059854     0.00022825     0.00018504    -0.00005211
H         0.77351306     0.65964243    -0.64397703    -0.00196672     0.00106658    -0.00078749
H         0.28334438    -0.97248889     1.87535589    -0.00456382    -0.00342115    -0.00054445
H        -0.79348479     0.43449403     1.98715678     0.00238971     0.00046542    -0.00168865
H        -0.83567157    -0.58432119    -0.74380301     0.00348370    -0.00318141    -0.00025417
     6
  Step:    44            Position(A)                                  Velocity(au)
C        -0.04430640     0.01826025    -0.29327763    -0.00021013     0.00020620     0.00046985
N        -0.00740207    -0.02658309     1.57946526     0.00027188     0.00017264    -0.00015655
H         0.75171153     0.67107153    -0.65317415    -0.00200277     0.00102959    -0.00089320
H         0.23254907    -1.00960601     1.86921510    -0.00472631    -0.00326710    -0.00060227
H        -0.76898808     0.43961132     1.96900688     0.00196896     0.00053269    -0.00157656
H        -0.79740148    -0.61898169    -0.74710599     0.00348594    -0.00315113    -0.00035122
     6