|===============================================================================
|
|  DFTB+ release 20.1
|
|  Copyright (C) 2006 - 2020  DFTB+ developers group
|
|===============================================================================
|
|  When publishing results obtained with DFTB+, please cite the following
|  reference:
|
|  * DFTB+, a software package for efficient approximate density functional
|    theory based atomistic simulations, J. Chem. Phys. 152, 124101 (2020).
|    [doi: 10.1063/1.5143190]
|
|  You should also cite additional publications crediting the parametrization
|  data you use. Please consult the documentation of the SK-files for the
|  references.
|
|===============================================================================

Reading input file 'dftb_in.hsd'
Parser version: 8

--------------------------------------------------------------------------------
Reading SK-files:
Done.


Processed input in HSD format written to 'dftb_pin.hsd'

Starting initialization...
--------------------------------------------------------------------------------
OpenMP threads:              1
Chosen random seed:          501416581
Mode:                        Static calculation
Self consistent charges:     Yes
SCC-tolerance:                 0.100000E-05
Max. scc iterations:                   1000
Shell resolved Hubbard:      No
Spin polarisation:           No
Nr. of up electrons:            16.000000
Nr. of down electrons:          16.000000
Periodic boundaries:         No
Electronic solver:           Relatively robust
Maximal SCC-cycles:                    1000
Initial charges:             Set automatically (system chrg:   0.100E+01)
Included shells:             C:  s, p
                             H:  s
                             N:  s, p
Spin coupling constants:     C   1(s)-1(s):  -0.455900E-01
                             C   1(s)-2(p):  -0.293000E-01
                             C   2(p)-1(s):  -0.293000E-01
                             C   2(p)-2(p):  -0.275500E-01
                             H   1(s)-1(s):  -0.792500E-01
                             N   1(s)-1(s):  -0.468700E-01
                             N   1(s)-2(p):  -0.317000E-01
                             N   2(p)-1(s):  -0.317000E-01
                             N   2(p)-2(p):  -0.307200E-01
Range separated hybrid:      Yes
  Screening parameter omega:   0.300000E+00
  Range separated algorithm:   MatrixBased
Extra options:
                             Mulliken analysis
                             Force calculation
Force type                   original
                             Eigenvector printing


REKS Calcuation:             Yes
SSR(2,2) Calcuation:         Yes
Energy Functional:           (PPS+OSS)/2
Number of Core Orbitals:                 15
Number of Active Orbitals:                2
Number of Basis:                         32
Number of States:                         2
State-Averaging Weight:          0.500000
                                 0.500000
State of Interest:                        1
Initial Guess:               Diagonalize H0 matrix
Newton-Raphson for FON opt:  Yes
NR max. Iterations:                      50
Level Shifting:              Yes
Shift Value:                     0.300000
W Scale Factor:              C  =    3.200000
                             H  =    3.200000
                             N  =    3.200000
Transition Dipole:           No
Gradient of Microstate:      No
CP-REKS Solver:              Preconditioned Conjugate-Gradient
CG max. Iterations:                     100
CG Tolerance:                  0.100000E-07
Memory for A and Hxc:        Direct Updating Without Saving
Non-Adiabatic Coupling:      Yes

--------------------------------------------------------------------------------

***  Geometry step: 0

  iSCC       reks energy        Diff energy         x_a       SCC error   
    1      -16.3552183650       0.0000000000     0.998277    1.21828583
    2      -16.3791637006      -0.0239453356     0.999853    0.08698356
    3      -16.3849010005      -0.0057372999     0.999968    0.04139308
    4      -16.3868701470      -0.0019691465     0.999987    0.01916956
    5      -16.3877497010      -0.0008795540     0.999993    0.00936261
    6      -16.3882209826      -0.0004712816     0.999996    0.00509399
    7      -16.3885068286      -0.0002858460     0.999997    0.00430058
    8      -16.3886962033      -0.0001893747     0.999998    0.00355373
    9      -16.3888302333      -0.0001340300     0.999998    0.00308917
   10      -16.3889299823      -0.0000997490     0.999999    0.00273124
   11      -16.3890070936      -0.0000771114     0.999999    0.00243074
   12      -16.3890684359      -0.0000613423     0.999999    0.00217207
   13      -16.3891183118      -0.0000498759     0.999999    0.00194560
   14      -16.3891595704      -0.0000412585     0.999999    0.00174517
   15      -16.3891941915      -0.0000346211     0.999999    0.00169940
   16      -16.3892236067      -0.0000294152     0.999999    0.00171010
   17      -16.3892488831      -0.0000252764     0.999999    0.00169909
   18      -16.3892708340      -0.0000219509     0.999999    0.00167346
   19      -16.3892900892      -0.0000192552     0.999999    0.00163831
   20      -16.3893071418      -0.0000170526     0.999999    0.00159726
   21      -16.3893223809      -0.0000152391     1.000000    0.00155292
   22      -16.3893361156      -0.0000137346     1.000000    0.00150710
   23      -16.3893485920      -0.0000124764     1.000000    0.00146107
   24      -16.3893600076      -0.0000114156     1.000000    0.00141569
   25      -16.3893705208      -0.0000105133     1.000000    0.00137154
   26      -16.3893802599      -0.0000097390     1.000000    0.00132898
   27      -16.3893893285      -0.0000090686     1.000000    0.00128821
   28      -16.3893978114      -0.0000084829     1.000000    0.00124933
   29      -16.3894057780      -0.0000079666     1.000000    0.00121237
   30      -16.3894132855      -0.0000075075     1.000000    0.00117730
   31      -16.3894203815      -0.0000070960     1.000000    0.00114407
   32      -16.3894271059      -0.0000067244     1.000000    0.00111260
   33      -16.3894334922      -0.0000063863     1.000000    0.00108280
   34      -16.3894395692      -0.0000060770     1.000000    0.00105456
   35      -16.3894453614      -0.0000057922     1.000000    0.00102780
   36      -16.3894508900      -0.0000055287     1.000000    0.00100240
   37      -16.3894561738      -0.0000052838     1.000000    0.00097827
   38      -16.3894612292      -0.0000050553     1.000000    0.00095533
   39      -16.3894660706      -0.0000048415     1.000000    0.00093349
   40      -16.3894707113      -0.0000046406     1.000000    0.00091266
   41      -16.3894751629      -0.0000044516     1.000000    0.00089278
   42      -16.3894794361      -0.0000042732     1.000000    0.00087377
   43      -16.3894835407      -0.0000041046     1.000000    0.00085557
   44      -16.3894874857      -0.0000039450     1.000000    0.00083812
   45      -16.3894912793      -0.0000037936     1.000000    0.00082138
   46      -16.3894949292      -0.0000036499     1.000000    0.00080528
   47      -16.3894984424      -0.0000035132     1.000000    0.00078979
   48      -16.3895018256      -0.0000033832     1.000000    0.00077487
   49      -16.3895050849      -0.0000032594     1.000000    0.00076048
   50      -16.3895082263      -0.0000031413     1.000000    0.00074658
   51      -16.3895112550      -0.0000030288     1.000000    0.00073315
   52      -16.3895141763      -0.0000029213     1.000000    0.00072016
   53      -16.3895169950      -0.0000028187     1.000000    0.00070758
   54      -16.3895197156      -0.0000027206     1.000000    0.00069539
   55      -16.3895223424      -0.0000026268     1.000000    0.00068356
   56      -16.3895248795      -0.0000025371     1.000000    0.00067208
   57      -16.3895273307      -0.0000024512     1.000000    0.00066094
   58      -16.3895296998      -0.0000023690     1.000000    0.00065010
   59      -16.3895319901      -0.0000022903     1.000000    0.00063956
   60      -16.3895342049      -0.0000022148     1.000000    0.00062931
   61      -16.3895363474      -0.0000021425     1.000000    0.00061932
   62      -16.3895384205      -0.0000020731     1.000000    0.00060960
   63      -16.3895404270      -0.0000020065     1.000000    0.00060012
   64      -16.3895423696      -0.0000019426     1.000000    0.00059088
   65      -16.3895442509      -0.0000018813     1.000000    0.00058186
   66      -16.3895460733      -0.0000018224     1.000000    0.00057306
   67      -16.3895478391      -0.0000017658     1.000000    0.00056448
   68      -16.3895495505      -0.0000017114     1.000000    0.00055609
   69      -16.3895512096      -0.0000016591     1.000000    0.00054790
   70      -16.3895528184      -0.0000016088     1.000000    0.00053990
   71      -16.3895543788      -0.0000015604     1.000000    0.00053208
   72      -16.3895558927      -0.0000015139     1.000000    0.00052443
   73      -16.3895573618      -0.0000014691     1.000000    0.00051696
   74      -16.3895587877      -0.0000014259     1.000000    0.00050964
   75      -16.3895601721      -0.0000013844     1.000000    0.00050249
   76      -16.3895615164      -0.0000013443     1.000000    0.00049549
   77      -16.3895628222      -0.0000013058     1.000000    0.00048863
   78      -16.3895640908      -0.0000012686     1.000000    0.00048192
   79      -16.3895653235      -0.0000012327     1.000000    0.00047536
   80      -16.3895665216      -0.0000011981     1.000000    0.00046892
   81      -16.3895676864      -0.0000011648     1.000000    0.00046262
   82      -16.3895688190      -0.0000011326     1.000000    0.00045645
   83      -16.3895699205      -0.0000011015     1.000000    0.00045040
   84      -16.3895709920      -0.0000010715     1.000000    0.00044447
   85      -16.3895720346      -0.0000010425     1.000000    0.00043866
   86      -16.3895730491      -0.0000010146     1.000000    0.00043296
   87      -16.3895740366      -0.0000009875     1.000000    0.00042738
   88      -16.3895749980      -0.0000009614     1.000000    0.00042191
   89      -16.3895759342      -0.0000009361     1.000000    0.00041654
   90      -16.3895768459      -0.0000009117     1.000000    0.00041127
   91      -16.3895777340      -0.0000008881     1.000000    0.00040610
   92      -16.3895785993      -0.0000008653     1.000000    0.00040103
   93      -16.3895794425      -0.0000008432     1.000000    0.00039606
   94      -16.3895802642      -0.0000008218     1.000000    0.00039118
   95      -16.3895810653      -0.0000008011     1.000000    0.00038639
   96      -16.3895818463      -0.0000007810     1.000000    0.00038169
   97      -16.3895826079      -0.0000007616     1.000000    0.00037707
   98      -16.3895833507      -0.0000007428     1.000000    0.00037254
   99      -16.3895840753      -0.0000007246     1.000000    0.00036809
  100      -16.3895847823      -0.0000007070     1.000000    0.00036373
  101      -16.3895854721      -0.0000006898     1.000000    0.00035944
  102      -16.3895861454      -0.0000006733     1.000000    0.00035522
  103      -16.3895868026      -0.0000006572     1.000000    0.00035108
  104      -16.3895874442      -0.0000006416     1.000000    0.00034702
  105      -16.3895880707      -0.0000006265     1.000000    0.00034302
  106      -16.3895886825      -0.0000006118     1.000000    0.00033910
  107      -16.3895892800      -0.0000005976     1.000000    0.00033524
  108      -16.3895898638      -0.0000005838     1.000000    0.00033145
  109      -16.3895904341      -0.0000005703     1.000000    0.00032772
  110      -16.3895909915      -0.0000005573     1.000000    0.00032406
  111      -16.3895915362      -0.0000005447     1.000000    0.00032046
  112      -16.3895920686      -0.0000005324     1.000000    0.00031692
  113      -16.3895925890      -0.0000005205     1.000000    0.00031344
  114      -16.3895930979      -0.0000005089     1.000000    0.00031002
  115      -16.3895935956      -0.0000004976     1.000000    0.00030665
  116      -16.3895940822      -0.0000004867     1.000000    0.00030334
  117      -16.3895945583      -0.0000004761     1.000000    0.00030009
  118      -16.3895950240      -0.0000004657     1.000000    0.00029689
  119      -16.3895954797      -0.0000004557     1.000000    0.00029373
  120      -16.3895959255      -0.0000004459     1.000000    0.00029064
  121      -16.3895963619      -0.0000004364     1.000000    0.00028759
  122      -16.3895967890      -0.0000004271     1.000000    0.00028459
  123      -16.3895972071      -0.0000004181     1.000000    0.00028163
  124      -16.3895976164      -0.0000004093     1.000000    0.00027873
  125      -16.3895980172      -0.0000004008     1.000000    0.00027587
  126      -16.3895984097      -0.0000003925     1.000000    0.00027305
  127      -16.3895987942      -0.0000003844     1.000000    0.00027028
  128      -16.3895991707      -0.0000003766     1.000000    0.00026755
  129      -16.3895995396      -0.0000003689     1.000000    0.00026487
  130      -16.3895999010      -0.0000003614     1.000000    0.00026222
  131      -16.3896002552      -0.0000003541     1.000000    0.00025962
  132      -16.3896006022      -0.0000003471     1.000000    0.00025705
  133      -16.3896009424      -0.0000003402     1.000000    0.00025453
  134      -16.3896012758      -0.0000003334     1.000000    0.00025204
  135      -16.3896016026      -0.0000003269     1.000000    0.00024959
  136      -16.3896019231      -0.0000003205     1.000000    0.00024718
  137      -16.3896022373      -0.0000003142     1.000000    0.00024480
  138      -16.3896025455      -0.0000003081     1.000000    0.00024246
  139      -16.3896028477      -0.0000003022     1.000000    0.00024015
  140      -16.3896031441      -0.0000002964     1.000000    0.00023788
  141      -16.3896034349      -0.0000002908     1.000000    0.00023564
  142      -16.3896037202      -0.0000002853     1.000000    0.00023343
  143      -16.3896040001      -0.0000002799     1.000000    0.00023125
  144      -16.3896042748      -0.0000002747     1.000000    0.00022911
  145      -16.3896045444      -0.0000002696     1.000000    0.00022699
  146      -16.3896048089      -0.0000002646     1.000000    0.00022491
  147      -16.3896050686      -0.0000002597     1.000000    0.00022286
  148      -16.3896053235      -0.0000002549     1.000000    0.00022083
  149      -16.3896055738      -0.0000002503     1.000000    0.00021883
  150      -16.3896058195      -0.0000002457     1.000000    0.00021686
  151      -16.3896060608      -0.0000002413     1.000000    0.00021492
  152      -16.3896062978      -0.0000002370     1.000000    0.00021301
  153      -16.3896065305      -0.0000002327     1.000000    0.00021112
  154      -16.3896067591      -0.0000002286     1.000000    0.00020926
  155      -16.3896069837      -0.0000002246     1.000000    0.00020742
  156      -16.3896072043      -0.0000002206     1.000000    0.00020561
  157      -16.3896074211      -0.0000002168     1.000000    0.00020382
  158      -16.3896076340      -0.0000002130     1.000000    0.00020206
  159      -16.3896078433      -0.0000002093     1.000000    0.00020032
  160      -16.3896080490      -0.0000002057     1.000000    0.00019861
  161      -16.3896082512      -0.0000002022     1.000000    0.00019691
  162      -16.3896084499      -0.0000001987     1.000000    0.00019524
  163      -16.3896086452      -0.0000001953     1.000000    0.00019360
  164      -16.3896088372      -0.0000001920     1.000000    0.00019197
  165      -16.3896090261      -0.0000001888     1.000000    0.00019036
  166      -16.3896092117      -0.0000001856     1.000000    0.00018878
  167      -16.3896093943      -0.0000001826     1.000000    0.00018722
  168      -16.3896095738      -0.0000001795     1.000000    0.00018567
  169      -16.3896097504      -0.0000001766     1.000000    0.00018415
  170      -16.3896099241      -0.0000001737     1.000000    0.00018265
  171      -16.3896100949      -0.0000001708     1.000000    0.00018116
  172      -16.3896102630      -0.0000001681     1.000000    0.00017970
  173      -16.3896104283      -0.0000001654     1.000000    0.00017825
  174      -16.3896105910      -0.0000001627     1.000000    0.00017682
  175      -16.3896107511      -0.0000001601     1.000000    0.00017541
  176      -16.3896109086      -0.0000001575     1.000000    0.00017402
  177      -16.3896110637      -0.0000001550     1.000000    0.00017264
  178      -16.3896112163      -0.0000001526     1.000000    0.00017128
  179      -16.3896113664      -0.0000001502     1.000000    0.00016994
  180      -16.3896115143      -0.0000001478     1.000000    0.00016861
  181      -16.3896116598      -0.0000001455     1.000000    0.00016730
  182      -16.3896118031      -0.0000001433     1.000000    0.00016601
  183      -16.3896119442      -0.0000001411     1.000000    0.00016473
  184      -16.3896120831      -0.0000001389     1.000000    0.00016347
  185      -16.3896122199      -0.0000001368     1.000000    0.00016223
  186      -16.3896123546      -0.0000001347     1.000000    0.00016099
  187      -16.3896124873      -0.0000001327     1.000000    0.00015978
  188      -16.3896126179      -0.0000001307     1.000000    0.00015857
  189      -16.3896127466      -0.0000001287     1.000000    0.00015739
  190      -16.3896128734      -0.0000001268     1.000000    0.00015621
  191      -16.3896129983      -0.0000001249     1.000000    0.00015505
  192      -16.3896131214      -0.0000001230     1.000000    0.00015391
  193      -16.3896132426      -0.0000001212     1.000000    0.00015277
  194      -16.3896133620      -0.0000001195     1.000000    0.00015165
  195      -16.3896134797      -0.0000001177     1.000000    0.00015055
  196      -16.3896135957      -0.0000001160     1.000000    0.00014945
  197      -16.3896137101      -0.0000001143     1.000000    0.00014837
  198      -16.3896138227      -0.0000001127     1.000000    0.00014730
  199      -16.3896139338      -0.0000001111     1.000000    0.00014624
  200      -16.3896140433      -0.0000001095     1.000000    0.00014520
  201      -16.3896141512      -0.0000001079     1.000000    0.00014417
  202      -16.3896142575      -0.0000001064     1.000000    0.00014314
  203      -16.3896143624      -0.0000001049     1.000000    0.00014213
  204      -16.3896144658      -0.0000001034     1.000000    0.00014114
  205      -16.3896145678      -0.0000001020     1.000000    0.00014015
  206      -16.3896146683      -0.0000001005     1.000000    0.00013917
  207      -16.3896147675      -0.0000000991     1.000000    0.00013821
  208      -16.3896148652      -0.0000000978     1.000000    0.00013725
  209      -16.3896149617      -0.0000000964     1.000000    0.00013631
  210      -16.3896150568      -0.0000000951     1.000000    0.00013537
  211      -16.3896151506      -0.0000000938     1.000000    0.00013445
  212      -16.3896152431      -0.0000000925     1.000000    0.00013354
  213      -16.3896153344      -0.0000000913     1.000000    0.00013263
  214      -16.3896154245      -0.0000000901     1.000000    0.00013174
  215      -16.3896155134      -0.0000000889     1.000000    0.00013085
  216      -16.3896156010      -0.0000000877     1.000000    0.00012998
  217      -16.3896156875      -0.0000000865     1.000000    0.00012911
  218      -16.3896157729      -0.0000000854     1.000000    0.00012826
  219      -16.3896158571      -0.0000000842     1.000000    0.00012741
  220      -16.3896159402      -0.0000000831     1.000000    0.00012657
  221      -16.3896160223      -0.0000000820     1.000000    0.00012574
  222      -16.3896161032      -0.0000000810     1.000000    0.00012492
  223      -16.3896161832      -0.0000000799     1.000000    0.00012411
  224      -16.3896162620      -0.0000000789     1.000000    0.00012331
  225      -16.3896163399      -0.0000000779     1.000000    0.00012251
  226      -16.3896164168      -0.0000000769     1.000000    0.00012172
  227      -16.3896164927      -0.0000000759     1.000000    0.00012095
  228      -16.3896165676      -0.0000000749     1.000000    0.00012018
  229      -16.3896166416      -0.0000000740     1.000000    0.00011941
  230      -16.3896167146      -0.0000000730     1.000000    0.00011866
  231      -16.3896167868      -0.0000000721     1.000000    0.00011791
  232      -16.3896168580      -0.0000000712     1.000000    0.00011717
  233      -16.3896169283      -0.0000000703     1.000000    0.00011644
  234      -16.3896169978      -0.0000000695     1.000000    0.00011571
  235      -16.3896170664      -0.0000000686     1.000000    0.00011500
  236      -16.3896171342      -0.0000000678     1.000000    0.00011429
  237      -16.3896172011      -0.0000000669     1.000000    0.00011358
  238      -16.3896172672      -0.0000000661     1.000000    0.00011289
  239      -16.3896173325      -0.0000000653     1.000000    0.00011220
  240      -16.3896173970      -0.0000000645     1.000000    0.00011151
  241      -16.3896174607      -0.0000000637     1.000000    0.00011084
  242      -16.3896175237      -0.0000000630     1.000000    0.00011017
  243      -16.3896175859      -0.0000000622     1.000000    0.00010951
  244      -16.3896176474      -0.0000000615     1.000000    0.00010885
  245      -16.3896177081      -0.0000000607     1.000000    0.00010820
  246      -16.3896177682      -0.0000000600     1.000000    0.00010756
  247      -16.3896178275      -0.0000000593     1.000000    0.00010692
  248      -16.3896178861      -0.0000000586     1.000000    0.00010629
  249      -16.3896179440      -0.0000000579     1.000000    0.00010566
  250      -16.3896180013      -0.0000000572     1.000000    0.00010504
  251      -16.3896180578      -0.0000000566     1.000000    0.00010443
  252      -16.3896181138      -0.0000000559     1.000000    0.00010382
  253      -16.3896181690      -0.0000000553     1.000000    0.00010322
  254      -16.3896182237      -0.0000000546     1.000000    0.00010263
  255      -16.3896182777      -0.0000000540     1.000000    0.00010203
  256      -16.3896183311      -0.0000000534     1.000000    0.00010145
  257      -16.3896183839      -0.0000000528     1.000000    0.00010087
  258      -16.3896184361      -0.0000000522     1.000000    0.00010030
  259      -16.3896184877      -0.0000000516     1.000000    0.00009973
  260      -16.3896185388      -0.0000000510     1.000000    0.00009917
  261      -16.3896185892      -0.0000000505     1.000000    0.00009861
  262      -16.3896186391      -0.0000000499     1.000000    0.00009805
  263      -16.3896186885      -0.0000000493     1.000000    0.00009751
  264      -16.3896187372      -0.0000000488     1.000000    0.00009696
  265      -16.3896187855      -0.0000000483     1.000000    0.00009643
  266      -16.3896188332      -0.0000000477     1.000000    0.00009589
  267      -16.3896188804      -0.0000000472     1.000000    0.00009536
  268      -16.3896189271      -0.0000000467     1.000000    0.00009484
  269      -16.3896189733      -0.0000000462     1.000000    0.00009432
  270      -16.3896190190      -0.0000000457     1.000000    0.00009381
  271      -16.3896190642      -0.0000000452     1.000000    0.00009330
  272      -16.3896191088      -0.0000000447     1.000000    0.00009279
  273      -16.3896191531      -0.0000000442     1.000000    0.00009229
  274      -16.3896191968      -0.0000000437     1.000000    0.00009180
  275      -16.3896192401      -0.0000000433     1.000000    0.00009131
  276      -16.3896192829      -0.0000000428     1.000000    0.00009082
  277      -16.3896193253      -0.0000000424     1.000000    0.00009034
  278      -16.3896193672      -0.0000000419     1.000000    0.00008986
  279      -16.3896194087      -0.0000000415     1.000000    0.00008938
  280      -16.3896194497      -0.0000000410     1.000000    0.00008891
  281      -16.3896194903      -0.0000000406     1.000000    0.00008845
  282      -16.3896195305      -0.0000000402     1.000000    0.00008798
  283      -16.3896195703      -0.0000000398     1.000000    0.00008753
  284      -16.3896196097      -0.0000000394     1.000000    0.00008707
  285      -16.3896196486      -0.0000000390     1.000000    0.00008662
  286      -16.3896196872      -0.0000000386     1.000000    0.00008618
  287      -16.3896197254      -0.0000000382     1.000000    0.00008573
  288      -16.3896197632      -0.0000000378     1.000000    0.00008529
  289      -16.3896198006      -0.0000000374     1.000000    0.00008486
  290      -16.3896198376      -0.0000000370     1.000000    0.00008443
  291      -16.3896198742      -0.0000000366     1.000000    0.00008400
  292      -16.3896199105      -0.0000000363     1.000000    0.00008358
  293      -16.3896199464      -0.0000000359     1.000000    0.00008315
  294      -16.3896199820      -0.0000000356     1.000000    0.00008274
  295      -16.3896200172      -0.0000000352     1.000000    0.00008232
  296      -16.3896200521      -0.0000000349     1.000000    0.00008191
  297      -16.3896200866      -0.0000000345     1.000000    0.00008151
  298      -16.3896201207      -0.0000000342     1.000000    0.00008110
  299      -16.3896201546      -0.0000000338     1.000000    0.00008070
  300      -16.3896201881      -0.0000000335     1.000000    0.00008031
  301      -16.3896202213      -0.0000000332     1.000000    0.00007991
  302      -16.3896202541      -0.0000000329     1.000000    0.00007952
  303      -16.3896202867      -0.0000000325     1.000000    0.00007914
  304      -16.3896203189      -0.0000000322     1.000000    0.00007875
  305      -16.3896203508      -0.0000000319     1.000000    0.00007837
  306      -16.3896203824      -0.0000000316     1.000000    0.00007799
  307      -16.3896204138      -0.0000000313     1.000000    0.00007762
  308      -16.3896204448      -0.0000000310     1.000000    0.00007725
  309      -16.3896204755      -0.0000000307     1.000000    0.00007688
  310      -16.3896205059      -0.0000000304     1.000000    0.00007651
  311      -16.3896205361      -0.0000000301     1.000000    0.00007615
  312      -16.3896205659      -0.0000000299     1.000000    0.00007579
  313      -16.3896205955      -0.0000000296     1.000000    0.00007543
  314      -16.3896206248      -0.0000000293     1.000000    0.00007508
  315      -16.3896206539      -0.0000000290     1.000000    0.00007473
  316      -16.3896206826      -0.0000000288     1.000000    0.00007438
  317      -16.3896207111      -0.0000000285     1.000000    0.00007403
  318      -16.3896207394      -0.0000000282     1.000000    0.00007369
  319      -16.3896207673      -0.0000000280     1.000000    0.00007335
  320      -16.3896207951      -0.0000000277     1.000000    0.00007301
  321      -16.3896208225      -0.0000000275     1.000000    0.00007268
  322      -16.3896208497      -0.0000000272     1.000000    0.00007235
  323      -16.3896208767      -0.0000000270     1.000000    0.00007202
  324      -16.3896209034      -0.0000000267     1.000000    0.00007169
  325      -16.3896209299      -0.0000000265     1.000000    0.00007136
  326      -16.3896209562      -0.0000000263     1.000000    0.00007104
  327      -16.3896209822      -0.0000000260     1.000000    0.00007072
  328      -16.3896210080      -0.0000000258     1.000000    0.00007040
  329      -16.3896210335      -0.0000000256     1.000000    0.00007009
  330      -16.3896210589      -0.0000000253     1.000000    0.00006978
  331      -16.3896210840      -0.0000000251     1.000000    0.00006947
  332      -16.3896211089      -0.0000000249     1.000000    0.00006916
  333      -16.3896211335      -0.0000000247     1.000000    0.00006885
  334      -16.3896211580      -0.0000000245     1.000000    0.00006855
  335      -16.3896211822      -0.0000000242     1.000000    0.00006825
  336      -16.3896212062      -0.0000000240     1.000000    0.00006795
  337      -16.3896212301      -0.0000000238     1.000000    0.00006765
  338      -16.3896212537      -0.0000000236     1.000000    0.00006736
  339      -16.3896212771      -0.0000000234     1.000000    0.00006707
  340      -16.3896213003      -0.0000000232     1.000000    0.00006678
  341      -16.3896213233      -0.0000000230     1.000000    0.00006649
  342      -16.3896213461      -0.0000000228     1.000000    0.00006620
  343      -16.3896213688      -0.0000000226     1.000000    0.00006592
  344      -16.3896213912      -0.0000000224     1.000000    0.00006564
  345      -16.3896214134      -0.0000000222     1.000000    0.00006536
  346      -16.3896214355      -0.0000000221     1.000000    0.00006508
  347      -16.3896214573      -0.0000000219     1.000000    0.00006481
  348      -16.3896214790      -0.0000000217     1.000000    0.00006453
  349      -16.3896215005      -0.0000000215     1.000000    0.00006426
  350      -16.3896215219      -0.0000000213     1.000000    0.00006399
  351      -16.3896215430      -0.0000000211     1.000000    0.00006372
  352      -16.3896215640      -0.0000000210     1.000000    0.00006346
  353      -16.3896215848      -0.0000000208     1.000000    0.00006320
  354      -16.3896216054      -0.0000000206     1.000000    0.00006293
  355      -16.3896216259      -0.0000000205     1.000000    0.00006267
  356      -16.3896216462      -0.0000000203     1.000000    0.00006242
  357      -16.3896216663      -0.0000000201     1.000000    0.00006216
  358      -16.3896216863      -0.0000000200     1.000000    0.00006191
  359      -16.3896217061      -0.0000000198     1.000000    0.00006165
  360      -16.3896217257      -0.0000000196     1.000000    0.00006140
  361      -16.3896217452      -0.0000000195     1.000000    0.00006115
  362      -16.3896217645      -0.0000000193     1.000000    0.00006091
  363      -16.3896217837      -0.0000000192     1.000000    0.00006066
  364      -16.3896218027      -0.0000000190     1.000000    0.00006042
  365      -16.3896218216      -0.0000000189     1.000000    0.00006018
  366      -16.3896218403      -0.0000000187     1.000000    0.00005994
  367      -16.3896218589      -0.0000000186     1.000000    0.00005970
  368      -16.3896218773      -0.0000000184     1.000000    0.00005946
  369      -16.3896218956      -0.0000000183     1.000000    0.00005922
  370      -16.3896219138      -0.0000000181     1.000000    0.00005899
  371      -16.3896219318      -0.0000000180     1.000000    0.00005876
  372      -16.3896219496      -0.0000000179     1.000000    0.00005853
  373      -16.3896219673      -0.0000000177     1.000000    0.00005830
  374      -16.3896219849      -0.0000000176     1.000000    0.00005807
  375      -16.3896220024      -0.0000000174     1.000000    0.00005785
  376      -16.3896220197      -0.0000000173     1.000000    0.00005762
  377      -16.3896220369      -0.0000000172     1.000000    0.00005740
  378      -16.3896220539      -0.0000000171     1.000000    0.00005718
  379      -16.3896220708      -0.0000000169     1.000000    0.00005696
  380      -16.3896220876      -0.0000000168     1.000000    0.00005674
  381      -16.3896221043      -0.0000000167     1.000000    0.00005652
  382      -16.3896221208      -0.0000000165     1.000000    0.00005631
  383      -16.3896221372      -0.0000000164     1.000000    0.00005609
  384      -16.3896221535      -0.0000000163     1.000000    0.00005588
  385      -16.3896221697      -0.0000000162     1.000000    0.00005567
  386      -16.3896221857      -0.0000000160     1.000000    0.00005546
  387      -16.3896222017      -0.0000000159     1.000000    0.00005525
  388      -16.3896222175      -0.0000000158     1.000000    0.00005505
  389      -16.3896222332      -0.0000000157     1.000000    0.00005484
  390      -16.3896222488      -0.0000000156     1.000000    0.00005464
  391      -16.3896222642      -0.0000000155     1.000000    0.00005443
  392      -16.3896222796      -0.0000000154     1.000000    0.00005423
  393      -16.3896222948      -0.0000000152     1.000000    0.00005403
  394      -16.3896223099      -0.0000000151     1.000000    0.00005383
  395      -16.3896223250      -0.0000000150     1.000000    0.00005364
  396      -16.3896223399      -0.0000000149     1.000000    0.00005344
  397      -16.3896223547      -0.0000000148     1.000000    0.00005325
  398      -16.3896223694      -0.0000000147     1.000000    0.00005305
  399      -16.3896223839      -0.0000000146     1.000000    0.00005286
  400      -16.3896223984      -0.0000000145     1.000000    0.00005267
  401      -16.3896224128      -0.0000000144     1.000000    0.00005248
  402      -16.3896224271      -0.0000000143     1.000000    0.00005229
  403      -16.3896224413      -0.0000000142     1.000000    0.00005210
  404      -16.3896224553      -0.0000000141     1.000000    0.00005192
  405      -16.3896224693      -0.0000000140     1.000000    0.00005173
  406      -16.3896224832      -0.0000000139     1.000000    0.00005155
  407      -16.3896224970      -0.0000000138     1.000000    0.00005137
  408      -16.3896225107      -0.0000000137     1.000000    0.00005118
  409      -16.3896225243      -0.0000000136     1.000000    0.00005100
  410      -16.3896225377      -0.0000000135     1.000000    0.00005082
  411      -16.3896225511      -0.0000000134     1.000000    0.00005065
  412      -16.3896225645      -0.0000000133     1.000000    0.00005047
  413      -16.3896225777      -0.0000000132     1.000000    0.00005029
  414      -16.3896225908      -0.0000000131     1.000000    0.00005012
  415      -16.3896226038      -0.0000000130     1.000000    0.00004994
  416      -16.3896226168      -0.0000000129     1.000000    0.00004977
  417      -16.3896226296      -0.0000000129     1.000000    0.00004960
  418      -16.3896226424      -0.0000000128     1.000000    0.00004943
  419      -16.3896226551      -0.0000000127     1.000000    0.00004926
  420      -16.3896226677      -0.0000000126     1.000000    0.00004909
  421      -16.3896226802      -0.0000000125     1.000000    0.00004893
  422      -16.3896226926      -0.0000000124     1.000000    0.00004876
  423      -16.3896227050      -0.0000000123     1.000000    0.00004859
  424      -16.3896227172      -0.0000000123     1.000000    0.00004843
  425      -16.3896227294      -0.0000000122     1.000000    0.00004827
  426      -16.3896227415      -0.0000000121     1.000000    0.00004811
  427      -16.3896227535      -0.0000000120     1.000000    0.00004794
  428      -16.3896227655      -0.0000000119     1.000000    0.00004778
  429      -16.3896227773      -0.0000000119     1.000000    0.00004762
  430      -16.3896227891      -0.0000000118     1.000000    0.00004747
  431      -16.3896228008      -0.0000000117     1.000000    0.00004731
  432      -16.3896228125      -0.0000000116     1.000000    0.00004715
  433      -16.3896228240      -0.0000000116     1.000000    0.00004700
  434      -16.3896228355      -0.0000000115     1.000000    0.00004684
  435      -16.3896228469      -0.0000000114     1.000000    0.00004669
  436      -16.3896228582      -0.0000000113     1.000000    0.00004654
  437      -16.3896228695      -0.0000000113     1.000000    0.00004639
  438      -16.3896228807      -0.0000000112     1.000000    0.00004624
  439      -16.3896228918      -0.0000000111     1.000000    0.00004609
  440      -16.3896229028      -0.0000000110     1.000000    0.00004594
  441      -16.3896229138      -0.0000000110     1.000000    0.00004579
  442      -16.3896229247      -0.0000000109     1.000000    0.00004564
  443      -16.3896229355      -0.0000000108     1.000000    0.00004550
  444      -16.3896229463      -0.0000000108     1.000000    0.00004535
  445      -16.3896229570      -0.0000000107     1.000000    0.00004521
  446      -16.3896229676      -0.0000000106     1.000000    0.00004506
  447      -16.3896229782      -0.0000000106     1.000000    0.00004492
  448      -16.3896229887      -0.0000000105     1.000000    0.00004478
  449      -16.3896229991      -0.0000000104     1.000000    0.00004464
  450      -16.3896230095      -0.0000000104     1.000000    0.00004450
  451      -16.3896230198      -0.0000000103     1.000000    0.00004436
  452      -16.3896230300      -0.0000000102     1.000000    0.00004422
  453      -16.3896230402      -0.0000000102     1.000000    0.00004408
  454      -16.3896230503      -0.0000000101     1.000000    0.00004394
  455      -16.3896230603      -0.0000000100     1.000000    0.00004381
  456      -16.3896230703      -0.0000000100     1.000000    0.00004367
  457      -16.3896230802      -0.0000000099     1.000000    0.00004354
  458      -16.3896230901      -0.0000000099     1.000000    0.00004340
  459      -16.3896230999      -0.0000000098     1.000000    0.00004327
  460      -16.3896231097      -0.0000000097     1.000000    0.00004314
  461      -16.3896231194      -0.0000000097     1.000000    0.00004301
  462      -16.3896231290      -0.0000000096     1.000000    0.00004287
  463      -16.3896231386      -0.0000000096     1.000000    0.00004274
  464      -16.3896231481      -0.0000000095     1.000000    0.00004261
  465      -16.3896231575      -0.0000000095     1.000000    0.00004249
  466      -16.3896231669      -0.0000000094     1.000000    0.00004236
  467      -16.3896231763      -0.0000000093     1.000000    0.00004223
  468      -16.3896231856      -0.0000000093     1.000000    0.00004210
  469      -16.3896231948      -0.0000000092     1.000000    0.00004198
  470      -16.3896232040      -0.0000000092     1.000000    0.00004185
  471      -16.3896232131      -0.0000000091     1.000000    0.00004173
  472      -16.3896232222      -0.0000000091     1.000000    0.00004161
  473      -16.3896232312      -0.0000000090     1.000000    0.00004148
  474      -16.3896232402      -0.0000000090     1.000000    0.00004136
  475      -16.3896232491      -0.0000000089     1.000000    0.00004124
  476      -16.3896232580      -0.0000000089     1.000000    0.00004112
  477      -16.3896232668      -0.0000000088     1.000000    0.00004100
  478      -16.3896232755      -0.0000000088     1.000000    0.00004088
  479      -16.3896232842      -0.0000000087     1.000000    0.00004076
  480      -16.3896232929      -0.0000000087     1.000000    0.00004064
  481      -16.3896233015      -0.0000000086     1.000000    0.00004053
  482      -16.3896233101      -0.0000000086     1.000000    0.00004041
  483      -16.3896233186      -0.0000000085     1.000000    0.00004029
  484      -16.3896233271      -0.0000000085     1.000000    0.00004018
  485      -16.3896233355      -0.0000000084     1.000000    0.00004006
  486      -16.3896233439      -0.0000000084     1.000000    0.00003995
  487      -16.3896233522      -0.0000000083     1.000000    0.00003983
  488      -16.3896233605      -0.0000000083     1.000000    0.00003972
  489      -16.3896233687      -0.0000000082     1.000000    0.00003961
  490      -16.3896233769      -0.0000000082     1.000000    0.00003950
  491      -16.3896233850      -0.0000000081     1.000000    0.00003939
  492      -16.3896233931      -0.0000000081     1.000000    0.00003928
  493      -16.3896234012      -0.0000000080     1.000000    0.00003917
  494      -16.3896234092      -0.0000000080     1.000000    0.00003906
  495      -16.3896234171      -0.0000000080     1.000000    0.00003895
  496      -16.3896234250      -0.0000000079     1.000000    0.00003884
  497      -16.3896234329      -0.0000000079     1.000000    0.00003873
  498      -16.3896234407      -0.0000000078     1.000000    0.00003862
  499      -16.3896234485      -0.0000000078     1.000000    0.00003852
  500      -16.3896234563      -0.0000000077     1.000000    0.00003841
  501      -16.3896234640      -0.0000000077     1.000000    0.00003831
  502      -16.3896234716      -0.0000000077     1.000000    0.00003820
  503      -16.3896234793      -0.0000000076     1.000000    0.00003810
  504      -16.3896234868      -0.0000000076     1.000000    0.00003799
  505      -16.3896234944      -0.0000000075     1.000000    0.00003789
  506      -16.3896235019      -0.0000000075     1.000000    0.00003779
  507      -16.3896235093      -0.0000000075     1.000000    0.00003769
  508      -16.3896235168      -0.0000000074     1.000000    0.00003759
  509      -16.3896235241      -0.0000000074     1.000000    0.00003749
  510      -16.3896235315      -0.0000000073     1.000000    0.00003738
  511      -16.3896235388      -0.0000000073     1.000000    0.00003729
  512      -16.3896235460      -0.0000000073     1.000000    0.00003719
  513      -16.3896235533      -0.0000000072     1.000000    0.00003709
  514      -16.3896235605      -0.0000000072     1.000000    0.00003699
  515      -16.3896235676      -0.0000000072     1.000000    0.00003689
  516      -16.3896235747      -0.0000000071     1.000000    0.00003679
  517      -16.3896235818      -0.0000000071     1.000000    0.00003670
  518      -16.3896235888      -0.0000000070     1.000000    0.00003660
  519      -16.3896235958      -0.0000000070     1.000000    0.00003651
  520      -16.3896236028      -0.0000000070     1.000000    0.00003641
  521      -16.3896236097      -0.0000000069     1.000000    0.00003632
  522      -16.3896236166      -0.0000000069     1.000000    0.00003622
  523      -16.3896236235      -0.0000000069     1.000000    0.00003613
  524      -16.3896236303      -0.0000000068     1.000000    0.00003604
  525      -16.3896236371      -0.0000000068     1.000000    0.00003594
  526      -16.3896236439      -0.0000000068     1.000000    0.00003585
  527      -16.3896236506      -0.0000000067     1.000000    0.00003576
  528      -16.3896236573      -0.0000000067     1.000000    0.00003567
  529      -16.3896236639      -0.0000000067     1.000000    0.00003558
  530      -16.3896236705      -0.0000000066     1.000000    0.00003549
  531      -16.3896236771      -0.0000000066     1.000000    0.00003540
  532      -16.3896236837      -0.0000000066     1.000000    0.00003531
  533      -16.3896236902      -0.0000000065     1.000000    0.00003522
  534      -16.3896236967      -0.0000000065     1.000000    0.00003513
  535      -16.3896237032      -0.0000000065     1.000000    0.00003504
  536      -16.3896237096      -0.0000000064     1.000000    0.00003495
  537      -16.3896237160      -0.0000000064     1.000000    0.00003487
  538      -16.3896237223      -0.0000000064     1.000000    0.00003478
  539      -16.3896237287      -0.0000000063     1.000000    0.00003469
  540      -16.3896237350      -0.0000000063     1.000000    0.00003461
  541      -16.3896237412      -0.0000000063     1.000000    0.00003452
  542      -16.3896237475      -0.0000000062     1.000000    0.00003444
  543      -16.3896237537      -0.0000000062     1.000000    0.00003435
  544      -16.3896237599      -0.0000000062     1.000000    0.00003427
  545      -16.3896237660      -0.0000000061     1.000000    0.00003419
  546      -16.3896237721      -0.0000000061     1.000000    0.00003410
  547      -16.3896237782      -0.0000000061     1.000000    0.00003402
  548      -16.3896237843      -0.0000000061     1.000000    0.00003394
  549      -16.3896237903      -0.0000000060     1.000000    0.00003386
  550      -16.3896237963      -0.0000000060     1.000000    0.00003377
  551      -16.3896238023      -0.0000000060     1.000000    0.00003369
  552      -16.3896238083      -0.0000000059     1.000000    0.00003361
  553      -16.3896238142      -0.0000000059     1.000000    0.00003353
  554      -16.3896238201      -0.0000000059     1.000000    0.00003345
  555      -16.3896238259      -0.0000000059     1.000000    0.00003337
  556      -16.3896238318      -0.0000000058     1.000000    0.00003329
  557      -16.3896238376      -0.0000000058     1.000000    0.00003321
  558      -16.3896238434      -0.0000000058     1.000000    0.00003314
  559      -16.3896238491      -0.0000000058     1.000000    0.00003306
  560      -16.3896238548      -0.0000000057     1.000000    0.00003298
  561      -16.3896238605      -0.0000000057     1.000000    0.00003290
  562      -16.3896238662      -0.0000000057     1.000000    0.00003283
  563      -16.3896238719      -0.0000000056     1.000000    0.00003275
  564      -16.3896238775      -0.0000000056     1.000000    0.00003267
  565      -16.3896238831      -0.0000000056     1.000000    0.00003260
  566      -16.3896238887      -0.0000000056     1.000000    0.00003252
  567      -16.3896238942      -0.0000000055     1.000000    0.00003245
  568      -16.3896238997      -0.0000000055     1.000000    0.00003237
  569      -16.3896239052      -0.0000000055     1.000000    0.00003230
  570      -16.3896239107      -0.0000000055     1.000000    0.00003223
  571      -16.3896239161      -0.0000000054     1.000000    0.00003215
  572      -16.3896239216      -0.0000000054     1.000000    0.00003208
  573      -16.3896239270      -0.0000000054     1.000000    0.00003201
  574      -16.3896239323      -0.0000000054     1.000000    0.00003193
  575      -16.3896239377      -0.0000000054     1.000000    0.00003186
  576      -16.3896239430      -0.0000000053     1.000000    0.00003179
  577      -16.3896239483      -0.0000000053     1.000000    0.00003172
  578      -16.3896239536      -0.0000000053     1.000000    0.00003165
  579      -16.3896239589      -0.0000000053     1.000000    0.00003158
  580      -16.3896239641      -0.0000000052     1.000000    0.00003151
  581      -16.3896239693      -0.0000000052     1.000000    0.00003144
  582      -16.3896239745      -0.0000000052     1.000000    0.00003137
  583      -16.3896239797      -0.0000000052     1.000000    0.00003130
  584      -16.3896239848      -0.0000000051     1.000000    0.00003123
  585      -16.3896239899      -0.0000000051     1.000000    0.00003116
  586      -16.3896239950      -0.0000000051     1.000000    0.00003109
  587      -16.3896240001      -0.0000000051     1.000000    0.00003102
  588      -16.3896240051      -0.0000000051     1.000000    0.00003096
  589      -16.3896240102      -0.0000000050     1.000000    0.00003089
  590      -16.3896240152      -0.0000000050     1.000000    0.00003082
  591      -16.3896240202      -0.0000000050     1.000000    0.00003076
  592      -16.3896240251      -0.0000000050     1.000000    0.00003069
  593      -16.3896240301      -0.0000000049     1.000000    0.00003062
  594      -16.3896240350      -0.0000000049     1.000000    0.00003056
  595      -16.3896240399      -0.0000000049     1.000000    0.00003049
  596      -16.3896240448      -0.0000000049     1.000000    0.00003043
  597      -16.3896240497      -0.0000000049     1.000000    0.00003036
  598      -16.3896240545      -0.0000000048     1.000000    0.00003030
  599      -16.3896240593      -0.0000000048     1.000000    0.00003023
  600      -16.3896240641      -0.0000000048     1.000000    0.00003017
  601      -16.3896240689      -0.0000000048     1.000000    0.00003011
  602      -16.3896240737      -0.0000000048     1.000000    0.00003004
  603      -16.3896240784      -0.0000000047     1.000000    0.00002998
  604      -16.3896240832      -0.0000000047     1.000000    0.00002992
  605      -16.3896240879      -0.0000000047     1.000000    0.00002986
  606      -16.3896240925      -0.0000000047     1.000000    0.00002979
  607      -16.3896240972      -0.0000000047     1.000000    0.00002973
  608      -16.3896241019      -0.0000000046     1.000000    0.00002967
  609      -16.3896241065      -0.0000000046     1.000000    0.00002961
  610      -16.3896241111      -0.0000000046     1.000000    0.00002955
  611      -16.3896241157      -0.0000000046     1.000000    0.00002949
  612      -16.3896241203      -0.0000000046     1.000000    0.00002943
  613      -16.3896241248      -0.0000000046     1.000000    0.00002937
  614      -16.3896241294      -0.0000000045     1.000000    0.00002931
  615      -16.3896241339      -0.0000000045     1.000000    0.00002925
  616      -16.3896241384      -0.0000000045     1.000000    0.00002919
  617      -16.3896241428      -0.0000000045     1.000000    0.00002913
  618      -16.3896241473      -0.0000000045     1.000000    0.00002907
  619      -16.3896241518      -0.0000000044     1.000000    0.00002901
  620      -16.3896241562      -0.0000000044     1.000000    0.00002895
  621      -16.3896241606      -0.0000000044     1.000000    0.00002890
  622      -16.3896241650      -0.0000000044     1.000000    0.00002884
  623      -16.3896241694      -0.0000000044     1.000000    0.00002878
  624      -16.3896241737      -0.0000000044     1.000000    0.00002872
  625      -16.3896241781      -0.0000000043     1.000000    0.00002867
  626      -16.3896241824      -0.0000000043     1.000000    0.00002861
  627      -16.3896241867      -0.0000000043     1.000000    0.00002855
  628      -16.3896241910      -0.0000000043     1.000000    0.00002850
  629      -16.3896241953      -0.0000000043     1.000000    0.00002844
  630      -16.3896241995      -0.0000000043     1.000000    0.00002839
  631      -16.3896242038      -0.0000000042     1.000000    0.00002833
  632      -16.3896242080      -0.0000000042     1.000000    0.00002828
  633      -16.3896242122      -0.0000000042     1.000000    0.00002822
  634      -16.3896242164      -0.0000000042     1.000000    0.00002817
  635      -16.3896242206      -0.0000000042     1.000000    0.00002811
  636      -16.3896242247      -0.0000000042     1.000000    0.00002806
  637      -16.3896242289      -0.0000000041     1.000000    0.00002800
  638      -16.3896242330      -0.0000000041     1.000000    0.00002795
  639      -16.3896242371      -0.0000000041     1.000000    0.00002790
  640      -16.3896242412      -0.0000000041     1.000000    0.00002785
  641      -16.3896242453      -0.0000000041     1.000000    0.00002779
  642      -16.3896242494      -0.0000000041     1.000000    0.00002774
  643      -16.3896242534      -0.0000000041     1.000000    0.00002769
  644      -16.3896242575      -0.0000000040     1.000000    0.00002764
  645      -16.3896242615      -0.0000000040     1.000000    0.00002758
  646      -16.3896242655      -0.0000000040     1.000000    0.00002753
  647      -16.3896242695      -0.0000000040     1.000000    0.00002748
  648      -16.3896242735      -0.0000000040     1.000000    0.00002743
  649      -16.3896242774      -0.0000000040     1.000000    0.00002738
  650      -16.3896242814      -0.0000000040     1.000000    0.00002733
  651      -16.3896242853      -0.0000000039     1.000000    0.00002728
  652      -16.3896242893      -0.0000000039     1.000000    0.00002723
  653      -16.3896242932      -0.0000000039     1.000000    0.00002718
  654      -16.3896242971      -0.0000000039     1.000000    0.00002713
  655      -16.3896243009      -0.0000000039     1.000000    0.00002708
  656      -16.3896243048      -0.0000000039     1.000000    0.00002703
  657      -16.3896243087      -0.0000000039     1.000000    0.00002698
  658      -16.3896243125      -0.0000000038     1.000000    0.00002693
  659      -16.3896243163      -0.0000000038     1.000000    0.00002688
  660      -16.3896243201      -0.0000000038     1.000000    0.00002683
  661      -16.3896243239      -0.0000000038     1.000000    0.00002678
  662      -16.3896243277      -0.0000000038     1.000000    0.00002674
  663      -16.3896243315      -0.0000000038     1.000000    0.00002669
  664      -16.3896243352      -0.0000000038     1.000000    0.00002664
  665      -16.3896243390      -0.0000000037     1.000000    0.00002659
  666      -16.3896243427      -0.0000000037     1.000000    0.00002655
  667      -16.3896243464      -0.0000000037     1.000000    0.00002650
  668      -16.3896243501      -0.0000000037     1.000000    0.00002645
  669      -16.3896243538      -0.0000000037     1.000000    0.00002641
  670      -16.3896243575      -0.0000000037     1.000000    0.00002636
  671      -16.3896243612      -0.0000000037     1.000000    0.00002631
  672      -16.3896243648      -0.0000000037     1.000000    0.00002627
  673      -16.3896243685      -0.0000000036     1.000000    0.00002622
  674      -16.3896243721      -0.0000000036     1.000000    0.00002618
  675      -16.3896243757      -0.0000000036     1.000000    0.00002613
  676      -16.3896243793      -0.0000000036     1.000000    0.00002609
  677      -16.3896243829      -0.0000000036     1.000000    0.00002604
  678      -16.3896243865      -0.0000000036     1.000000    0.00002600
  679      -16.3896243901      -0.0000000036     1.000000    0.00002595
  680      -16.3896243936      -0.0000000036     1.000000    0.00002591
  681      -16.3896243972      -0.0000000035     1.000000    0.00002586
  682      -16.3896244007      -0.0000000035     1.000000    0.00002582
  683      -16.3896244042      -0.0000000035     1.000000    0.00002578
  684      -16.3896244077      -0.0000000035     1.000000    0.00002573
  685      -16.3896244112      -0.0000000035     1.000000    0.00002569
  686      -16.3896244147      -0.0000000035     1.000000    0.00002565
  687      -16.3896244182      -0.0000000035     1.000000    0.00002560
  688      -16.3896244216      -0.0000000035     1.000000    0.00002556
  689      -16.3896244251      -0.0000000035     1.000000    0.00002552
  690      -16.3896244285      -0.0000000034     1.000000    0.00002548
  691      -16.3896244320      -0.0000000034     1.000000    0.00002543
  692      -16.3896244354      -0.0000000034     1.000000    0.00002539
  693      -16.3896244388      -0.0000000034     1.000000    0.00002535
  694      -16.3896244422      -0.0000000034     1.000000    0.00002531
  695      -16.3896244456      -0.0000000034     1.000000    0.00002527
  696      -16.3896244489      -0.0000000034     1.000000    0.00002522
  697      -16.3896244523      -0.0000000034     1.000000    0.00002518
  698      -16.3896244557      -0.0000000034     1.000000    0.00002514
  699      -16.3896244590      -0.0000000033     1.000000    0.00002510
  700      -16.3896244623      -0.0000000033     1.000000    0.00002506
  701      -16.3896244656      -0.0000000033     1.000000    0.00002502
  702      -16.3896244690      -0.0000000033     1.000000    0.00002498
  703      -16.3896244723      -0.0000000033     1.000000    0.00002494
  704      -16.3896244755      -0.0000000033     1.000000    0.00002490
  705      -16.3896244788      -0.0000000033     1.000000    0.00002486
  706      -16.3896244821      -0.0000000033     1.000000    0.00002482
  707      -16.3896244853      -0.0000000033     1.000000    0.00002478
  708      -16.3896244886      -0.0000000032     1.000000    0.00002474
  709      -16.3896244918      -0.0000000032     1.000000    0.00002470
  710      -16.3896244951      -0.0000000032     1.000000    0.00002466
  711      -16.3896244983      -0.0000000032     1.000000    0.00002463
  712      -16.3896245015      -0.0000000032     1.000000    0.00002459
  713      -16.3896245047      -0.0000000032     1.000000    0.00002455
  714      -16.3896245079      -0.0000000032     1.000000    0.00002451
  715      -16.3896245111      -0.0000000032     1.000000    0.00002447
  716      -16.3896245142      -0.0000000032     1.000000    0.00002444
  717      -16.3896245174      -0.0000000032     1.000000    0.00002440
  718      -16.3896245205      -0.0000000031     1.000000    0.00002436
  719      -16.3896245237      -0.0000000031     1.000000    0.00002432
  720      -16.3896245268      -0.0000000031     1.000000    0.00002429
  721      -16.3896245299      -0.0000000031     1.000000    0.00002425
  722      -16.3896245330      -0.0000000031     1.000000    0.00002421
  723      -16.3896245361      -0.0000000031     1.000000    0.00002417
  724      -16.3896245392      -0.0000000031     1.000000    0.00002414
  725      -16.3896245423      -0.0000000031     1.000000    0.00002410
  726      -16.3896245454      -0.0000000031     1.000000    0.00002407
  727      -16.3896245485      -0.0000000031     1.000000    0.00002403
  728      -16.3896245515      -0.0000000031     1.000000    0.00002399
  729      -16.3896245546      -0.0000000030     1.000000    0.00002396
  730      -16.3896245576      -0.0000000030     1.000000    0.00002392
  731      -16.3896245606      -0.0000000030     1.000000    0.00002389
  732      -16.3896245636      -0.0000000030     1.000000    0.00002385
  733      -16.3896245667      -0.0000000030     1.000000    0.00002382
  734      -16.3896245697      -0.0000000030     1.000000    0.00002378
  735      -16.3896245727      -0.0000000030     1.000000    0.00002375
  736      -16.3896245756      -0.0000000030     1.000000    0.00002371
  737      -16.3896245786      -0.0000000030     1.000000    0.00002368
  738      -16.3896245816      -0.0000000030     1.000000    0.00002364
  739      -16.3896245846      -0.0000000030     1.000000    0.00002361
  740      -16.3896245875      -0.0000000030     1.000000    0.00002357
  741      -16.3896245905      -0.0000000029     1.000000    0.00002354
  742      -16.3896245934      -0.0000000029     1.000000    0.00002351
  743      -16.3896245963      -0.0000000029     1.000000    0.00002347
  744      -16.3896245992      -0.0000000029     1.000000    0.00002344
  745      -16.3896246021      -0.0000000029     1.000000    0.00002341
  746      -16.3896246050      -0.0000000029     1.000000    0.00002337
  747      -16.3896246079      -0.0000000029     1.000000    0.00002334
  748      -16.3896246108      -0.0000000029     1.000000    0.00002331
  749      -16.3896246137      -0.0000000029     1.000000    0.00002327
  750      -16.3896246166      -0.0000000029     1.000000    0.00002324
  751      -16.3896246194      -0.0000000029     1.000000    0.00002321
  752      -16.3896246223      -0.0000000029     1.000000    0.00002318
  753      -16.3896246251      -0.0000000028     1.000000    0.00002314
  754      -16.3896246280      -0.0000000028     1.000000    0.00002311
  755      -16.3896246308      -0.0000000028     1.000000    0.00002308
  756      -16.3896246336      -0.0000000028     1.000000    0.00002305
  757      -16.3896246365      -0.0000000028     1.000000    0.00002302
  758      -16.3896246393      -0.0000000028     1.000000    0.00002298
  759      -16.3896246421      -0.0000000028     1.000000    0.00002295
  760      -16.3896246449      -0.0000000028     1.000000    0.00002292
  761      -16.3896246477      -0.0000000028     1.000000    0.00002289
  762      -16.3896246504      -0.0000000028     1.000000    0.00002286
  763      -16.3896246532      -0.0000000028     1.000000    0.00002283
  764      -16.3896246560      -0.0000000028     1.000000    0.00002280
  765      -16.3896246587      -0.0000000028     1.000000    0.00002277
  766      -16.3896246615      -0.0000000027     1.000000    0.00002274
  767      -16.3896246642      -0.0000000027     1.000000    0.00002271
  768      -16.3896246670      -0.0000000027     1.000000    0.00002268
  769      -16.3896246697      -0.0000000027     1.000000    0.00002265
  770      -16.3896246724      -0.0000000027     1.000000    0.00002262
  771      -16.3896246751      -0.0000000027     1.000000    0.00002259
  772      -16.3896246778      -0.0000000027     1.000000    0.00002256
  773      -16.3896246805      -0.0000000027     1.000000    0.00002253
  774      -16.3896246832      -0.0000000027     1.000000    0.00002250
  775      -16.3896246859      -0.0000000027     1.000000    0.00002247
  776      -16.3896246886      -0.0000000027     1.000000    0.00002244
  777      -16.3896246913      -0.0000000027     1.000000    0.00002241
  778      -16.3896246939      -0.0000000027     1.000000    0.00002238
  779      -16.3896246966      -0.0000000027     1.000000    0.00002235
  780      -16.3896246992      -0.0000000027     1.000000    0.00002232
  781      -16.3896247019      -0.0000000026     1.000000    0.00002229
  782      -16.3896247045      -0.0000000026     1.000000    0.00002227
  783      -16.3896247071      -0.0000000026     1.000000    0.00002224
  784      -16.3896247098      -0.0000000026     1.000000    0.00002221
  785      -16.3896247124      -0.0000000026     1.000000    0.00002218
  786      -16.3896247150      -0.0000000026     1.000000    0.00002215
  787      -16.3896247176      -0.0000000026     1.000000    0.00002212
  788      -16.3896247202      -0.0000000026     1.000000    0.00002210
  789      -16.3896247228      -0.0000000026     1.000000    0.00002207
  790      -16.3896247254      -0.0000000026     1.000000    0.00002204
  791      -16.3896247280      -0.0000000026     1.000000    0.00002201
  792      -16.3896247305      -0.0000000026     1.000000    0.00002199
  793      -16.3896247331      -0.0000000026     1.000000    0.00002196
  794      -16.3896247357      -0.0000000026     1.000000    0.00002193
  795      -16.3896247382      -0.0000000026     1.000000    0.00002191
  796      -16.3896247408      -0.0000000025     1.000000    0.00002188
  797      -16.3896247433      -0.0000000025     1.000000    0.00002185
  798      -16.3896247459      -0.0000000025     1.000000    0.00002183
  799      -16.3896247484      -0.0000000025     1.000000    0.00002180
  800      -16.3896247509      -0.0000000025     1.000000    0.00002177
  801      -16.3896247534      -0.0000000025     1.000000    0.00002175
  802      -16.3896247560      -0.0000000025     1.000000    0.00002172
  803      -16.3896247585      -0.0000000025     1.000000    0.00002169
  804      -16.3896247610      -0.0000000025     1.000000    0.00002167
  805      -16.3896247635      -0.0000000025     1.000000    0.00002164
  806      -16.3896247660      -0.0000000025     1.000000    0.00002162
  807      -16.3896247684      -0.0000000025     1.000000    0.00002159
  808      -16.3896247709      -0.0000000025     1.000000    0.00002157
  809      -16.3896247734      -0.0000000025     1.000000    0.00002154
  810      -16.3896247759      -0.0000000025     1.000000    0.00002152
  811      -16.3896247783      -0.0000000025     1.000000    0.00002149
  812      -16.3896247808      -0.0000000025     1.000000    0.00002147
  813      -16.3896247832      -0.0000000025     1.000000    0.00002144
  814      -16.3896247857      -0.0000000024     1.000000    0.00002142
  815      -16.3896247881      -0.0000000024     1.000000    0.00002139
  816      -16.3896247905      -0.0000000024     1.000000    0.00002137
  817      -16.3896247930      -0.0000000024     1.000000    0.00002134
  818      -16.3896247954      -0.0000000024     1.000000    0.00002132
  819      -16.3896247978      -0.0000000024     1.000000    0.00002129
  820      -16.3896248002      -0.0000000024     1.000000    0.00002127
  821      -16.3896248026      -0.0000000024     1.000000    0.00002124
  822      -16.3896248050      -0.0000000024     1.000000    0.00002122
  823      -16.3896248074      -0.0000000024     1.000000    0.00002120
  824      -16.3896248098      -0.0000000024     1.000000    0.00002117
  825      -16.3896248122      -0.0000000024     1.000000    0.00002115
  826      -16.3896248146      -0.0000000024     1.000000    0.00002113
  827      -16.3896248170      -0.0000000024     1.000000    0.00002110
  828      -16.3896248193      -0.0000000024     1.000000    0.00002108
  829      -16.3896248217      -0.0000000024     1.000000    0.00002106
  830      -16.3896248241      -0.0000000024     1.000000    0.00002103
  831      -16.3896248264      -0.0000000024     1.000000    0.00002101
  832      -16.3896248288      -0.0000000024     1.000000    0.00002099
  833      -16.3896248311      -0.0000000023     1.000000    0.00002096
  834      -16.3896248335      -0.0000000023     1.000000    0.00002094
  835      -16.3896248358      -0.0000000023     1.000000    0.00002092
  836      -16.3896248381      -0.0000000023     1.000000    0.00002090
  837      -16.3896248404      -0.0000000023     1.000000    0.00002087
  838      -16.3896248428      -0.0000000023     1.000000    0.00002085
  839      -16.3896248451      -0.0000000023     1.000000    0.00002083
  840      -16.3896248474      -0.0000000023     1.000000    0.00002081
  841      -16.3896248497      -0.0000000023     1.000000    0.00002078
  842      -16.3896248520      -0.0000000023     1.000000    0.00002076
  843      -16.3896248543      -0.0000000023     1.000000    0.00002074
  844      -16.3896248566      -0.0000000023     1.000000    0.00002072
  845      -16.3896248589      -0.0000000023     1.000000    0.00002070
  846      -16.3896248612      -0.0000000023     1.000000    0.00002068
  847      -16.3896248634      -0.0000000023     1.000000    0.00002065
  848      -16.3896248657      -0.0000000023     1.000000    0.00002063
  849      -16.3896248680      -0.0000000023     1.000000    0.00002061
  850      -16.3896248702      -0.0000000023     1.000000    0.00002059
  851      -16.3896248725      -0.0000000023     1.000000    0.00002057
  852      -16.3896248748      -0.0000000023     1.000000    0.00002055
  853      -16.3896248770      -0.0000000023     1.000000    0.00002053
  854      -16.3896248792      -0.0000000022     1.000000    0.00002051
  855      -16.3896248815      -0.0000000022     1.000000    0.00002049
  856      -16.3896248837      -0.0000000022     1.000000    0.00002046
  857      -16.3896248860      -0.0000000022     1.000000    0.00002044
  858      -16.3896248882      -0.0000000022     1.000000    0.00002042
  859      -16.3896248904      -0.0000000022     1.000000    0.00002040
  860      -16.3896248926      -0.0000000022     1.000000    0.00002038
  861      -16.3896248948      -0.0000000022     1.000000    0.00002036
  862      -16.3896248971      -0.0000000022     1.000000    0.00002034
  863      -16.3896248993      -0.0000000022     1.000000    0.00002032
  864      -16.3896249015      -0.0000000022     1.000000    0.00002030
  865      -16.3896249037      -0.0000000022     1.000000    0.00002028
  866      -16.3896249059      -0.0000000022     1.000000    0.00002026
  867      -16.3896249081      -0.0000000022     1.000000    0.00002024
  868      -16.3896249102      -0.0000000022     1.000000    0.00002022
  869      -16.3896249124      -0.0000000022     1.000000    0.00002020
  870      -16.3896249146      -0.0000000022     1.000000    0.00002019
  871      -16.3896249168      -0.0000000022     1.000000    0.00002017
  872      -16.3896249189      -0.0000000022     1.000000    0.00002015
  873      -16.3896249211      -0.0000000022     1.000000    0.00002013
  874      -16.3896249233      -0.0000000022     1.000000    0.00002011
  875      -16.3896249254      -0.0000000022     1.000000    0.00002009
  876      -16.3896249276      -0.0000000022     1.000000    0.00002007
  877      -16.3896249297      -0.0000000021     1.000000    0.00002005
  878      -16.3896249319      -0.0000000021     1.000000    0.00002003
  879      -16.3896249340      -0.0000000021     1.000000    0.00002001
  880      -16.3896249362      -0.0000000021     1.000000    0.00002000
  881      -16.3896249383      -0.0000000021     1.000000    0.00001998
  882      -16.3896249404      -0.0000000021     1.000000    0.00001996
  883      -16.3896249425      -0.0000000021     1.000000    0.00001994
  884      -16.3896249447      -0.0000000021     1.000000    0.00001992
  885      -16.3896249468      -0.0000000021     1.000000    0.00001990
  886      -16.3896249489      -0.0000000021     1.000000    0.00001989
  887      -16.3896249510      -0.0000000021     1.000000    0.00001987
  888      -16.3896249531      -0.0000000021     1.000000    0.00001985
  889      -16.3896249552      -0.0000000021     1.000000    0.00001983
  890      -16.3896249573      -0.0000000021     1.000000    0.00001982
  891      -16.3896249594      -0.0000000021     1.000000    0.00001980
  892      -16.3896249615      -0.0000000021     1.000000    0.00001978
  893      -16.3896249636      -0.0000000021     1.000000    0.00001976
  894      -16.3896249657      -0.0000000021     1.000000    0.00001975
  895      -16.3896249678      -0.0000000021     1.000000    0.00001973
  896      -16.3896249699      -0.0000000021     1.000000    0.00001971
  897      -16.3896249719      -0.0000000021     1.000000    0.00001969
  898      -16.3896249740      -0.0000000021     1.000000    0.00001968
  899      -16.3896249761      -0.0000000021     1.000000    0.00001966
  900      -16.3896249781      -0.0000000021     1.000000    0.00001964
  901      -16.3896249802      -0.0000000021     1.000000    0.00001963
  902      -16.3896249823      -0.0000000021     1.000000    0.00001961
  903      -16.3896249843      -0.0000000021     1.000000    0.00001959
  904      -16.3896249864      -0.0000000021     1.000000    0.00001958
  905      -16.3896249884      -0.0000000020     1.000000    0.00001956
  906      -16.3896249905      -0.0000000020     1.000000    0.00001954
  907      -16.3896249925      -0.0000000020     1.000000    0.00001953
  908      -16.3896249945      -0.0000000020     1.000000    0.00001951
  909      -16.3896249966      -0.0000000020     1.000000    0.00001949
  910      -16.3896249986      -0.0000000020     1.000000    0.00001948
  911      -16.3896250006      -0.0000000020     1.000000    0.00001946
  912      -16.3896250027      -0.0000000020     1.000000    0.00001945
  913      -16.3896250047      -0.0000000020     1.000000    0.00001943
  914      -16.3896250067      -0.0000000020     1.000000    0.00001941
  915      -16.3896250087      -0.0000000020     1.000000    0.00001940
  916      -16.3896250107      -0.0000000020     1.000000    0.00001938
  917      -16.3896250127      -0.0000000020     1.000000    0.00001937
  918      -16.3896250147      -0.0000000020     1.000000    0.00001935
  919      -16.3896250167      -0.0000000020     1.000000    0.00001934
  920      -16.3896250187      -0.0000000020     1.000000    0.00001932
  921      -16.3896250207      -0.0000000020     1.000000    0.00001931
  922      -16.3896250227      -0.0000000020     1.000000    0.00001929
  923      -16.3896250247      -0.0000000020     1.000000    0.00001928
  924      -16.3896250267      -0.0000000020     1.000000    0.00001926
  925      -16.3896250287      -0.0000000020     1.000000    0.00001925
  926      -16.3896250307      -0.0000000020     1.000000    0.00001923
  927      -16.3896250327      -0.0000000020     1.000000    0.00001922
  928      -16.3896250346      -0.0000000020     1.000000    0.00001920
  929      -16.3896250366      -0.0000000020     1.000000    0.00001919
  930      -16.3896250386      -0.0000000020     1.000000    0.00001917
  931      -16.3896250405      -0.0000000020     1.000000    0.00001916
  932      -16.3896250425      -0.0000000020     1.000000    0.00001914
  933      -16.3896250445      -0.0000000020     1.000000    0.00001913
  934      -16.3896250464      -0.0000000020     1.000000    0.00001911
  935      -16.3896250484      -0.0000000020     1.000000    0.00001910
  936      -16.3896250503      -0.0000000020     1.000000    0.00001908
  937      -16.3896250523      -0.0000000019     1.000000    0.00001907
  938      -16.3896250542      -0.0000000019     1.000000    0.00001906
  939      -16.3896250562      -0.0000000019     1.000000    0.00001904
  940      -16.3896250581      -0.0000000019     1.000000    0.00001903
  941      -16.3896250601      -0.0000000019     1.000000    0.00001901
  942      -16.3896250620      -0.0000000019     1.000000    0.00001900
  943      -16.3896250639      -0.0000000019     1.000000    0.00001899
  944      -16.3896250659      -0.0000000019     1.000000    0.00001897
  945      -16.3896250678      -0.0000000019     1.000000    0.00001896
  946      -16.3896250697      -0.0000000019     1.000000    0.00001895
  947      -16.3896250716      -0.0000000019     1.000000    0.00001893
  948      -16.3896250736      -0.0000000019     1.000000    0.00001892
  949      -16.3896250755      -0.0000000019     1.000000    0.00001891
  950      -16.3896250774      -0.0000000019     1.000000    0.00001889
  951      -16.3896250793      -0.0000000019     1.000000    0.00001888
  952      -16.3896250812      -0.0000000019     1.000000    0.00001887
  953      -16.3896250831      -0.0000000019     1.000000    0.00001885
  954      -16.3896250850      -0.0000000019     1.000000    0.00001884
  955      -16.3896250869      -0.0000000019     1.000000    0.00001883
  956      -16.3896250888      -0.0000000019     1.000000    0.00001882
  957      -16.3896250907      -0.0000000019     1.000000    0.00001880
  958      -16.3896250926      -0.0000000019     1.000000    0.00001879
  959      -16.3896250945      -0.0000000019     1.000000    0.00001878
  960      -16.3896250964      -0.0000000019     1.000000    0.00001876
  961      -16.3896250983      -0.0000000019     1.000000    0.00001875
  962      -16.3896251002      -0.0000000019     1.000000    0.00001874
  963      -16.3896251020      -0.0000000019     1.000000    0.00001873
  964      -16.3896251039      -0.0000000019     1.000000    0.00001871
  965      -16.3896251058      -0.0000000019     1.000000    0.00001870
  966      -16.3896251077      -0.0000000019     1.000000    0.00001869
  967      -16.3896251096      -0.0000000019     1.000000    0.00001868
  968      -16.3896251114      -0.0000000019     1.000000    0.00001867
  969      -16.3896251133      -0.0000000019     1.000000    0.00001865
  970      -16.3896251152      -0.0000000019     1.000000    0.00001864
  971      -16.3896251170      -0.0000000019     1.000000    0.00001863
  972      -16.3896251189      -0.0000000019     1.000000    0.00001862
  973      -16.3896251207      -0.0000000019     1.000000    0.00001861
  974      -16.3896251226      -0.0000000019     1.000000    0.00001860
  975      -16.3896251245      -0.0000000019     1.000000    0.00001858
  976      -16.3896251263      -0.0000000019     1.000000    0.00001857
  977      -16.3896251282      -0.0000000019     1.000000    0.00001856
  978      -16.3896251300      -0.0000000018     1.000000    0.00001855
  979      -16.3896251318      -0.0000000018     1.000000    0.00001854
  980      -16.3896251337      -0.0000000018     1.000000    0.00001853
  981      -16.3896251355      -0.0000000018     1.000000    0.00001852
  982      -16.3896251374      -0.0000000018     1.000000    0.00001850
  983      -16.3896251392      -0.0000000018     1.000000    0.00001849
  984      -16.3896251410      -0.0000000018     1.000000    0.00001848
  985      -16.3896251429      -0.0000000018     1.000000    0.00001847
  986      -16.3896251447      -0.0000000018     1.000000    0.00001846
  987      -16.3896251465      -0.0000000018     1.000000    0.00001845
  988      -16.3896251484      -0.0000000018     1.000000    0.00001844
  989      -16.3896251502      -0.0000000018     1.000000    0.00001843
  990      -16.3896251520      -0.0000000018     1.000000    0.00001842
  991      -16.3896251538      -0.0000000018     1.000000    0.00001841
  992      -16.3896251557      -0.0000000018     1.000000    0.00001840
  993      -16.3896251575      -0.0000000018     1.000000    0.00001839
  994      -16.3896251593      -0.0000000018     1.000000    0.00001838
  995      -16.3896251611      -0.0000000018     1.000000    0.00001836
  996      -16.3896251629      -0.0000000018     1.000000    0.00001835
  997      -16.3896251647      -0.0000000018     1.000000    0.00001834
  998      -16.3896251665      -0.0000000018     1.000000    0.00001833
  999      -16.3896251683      -0.0000000018     1.000000    0.00001832
 1000      -16.3896251701      -0.0000000018     1.000000    0.00001831

Total Energy:                      -16.3896251701 H         -445.9844 eV
Extrapolated to 0:                 -16.3375934778 H         -444.5685 eV

----------------------------------------------------------------------------------
 Solving CP-REKS equation for  1 state vector...
----------------------------------------------------------------------------------
  CG solver: Constructing Y initial guess
  CG solver: Iteration    1    eps =    0.053427897609
  CG solver: Iteration    2    eps =    0.012290548667
  CG solver: Iteration    3    eps =    0.021631870463
  CG solver: Iteration    4    eps =    0.052263206777
  CG solver: Iteration    5    eps =    0.178147076853
  CG solver: Iteration    6    eps =    0.489082619401
  CG solver: Iteration    7    eps =    1.378345520189
  CG solver: Iteration    8    eps =    0.275744165652
  CG solver: Iteration    9    eps =    0.019972242500
  CG solver: Iteration   10    eps =    0.009751164026
  CG solver: Iteration   11    eps =    0.005419282023
  CG solver: Iteration   12    eps =    0.000511774520
  CG solver: Iteration   13    eps =    0.000047024598
  CG solver: Iteration   14    eps =    0.000010686864
  CG solver: Iteration   15    eps =    0.000001088456
  CG solver: Iteration   16    eps =    0.000000030382
  CG solver: Iteration   17    eps =    0.000000002394
  Convergence reached in CG solver after   17 iterations
  CG solver: Calculating converged R, Z, Q2 matrix
----------------------------------------------------------------------------------

----------------------------------------------------------------------------------
 Solving CP-REKS equation for SI between  1 and  2 state vectors...
----------------------------------------------------------------------------------
  CG solver: Constructing Y initial guess
  CG solver: Iteration    1    eps =    0.030745240217
  CG solver: Iteration    2    eps =    0.001438680646
  CG solver: Iteration    3    eps =    0.000356656575
  CG solver: Iteration    4    eps =    0.000935639699
  CG solver: Iteration    5    eps =    0.023289259475
  CG solver: Iteration    6    eps =    0.038994978204
  CG solver: Iteration    7    eps =    0.057227845212
  CG solver: Iteration    8    eps =    0.075878550021
  CG solver: Iteration    9    eps =    0.021804584878
  CG solver: Iteration   10    eps =    0.007517102218
  CG solver: Iteration   11    eps =    0.001044215037
  CG solver: Iteration   12    eps =    0.000083067063
  CG solver: Iteration   13    eps =    0.000008050602
  CG solver: Iteration   14    eps =    0.000001392258
  CG solver: Iteration   15    eps =    0.000000145581
  CG solver: Iteration   16    eps =    0.000000008941
  Convergence reached in CG solver after   16 iterations
  CG solver: Calculating converged R, Z, Q2 matrix
----------------------------------------------------------------------------------

--------------------------------------------------
 Gradient Information
--------------------------------------------------
           1 st state (SSR)
     0.00000000     0.00000000     0.00000000
     0.00000000     0.00000000     0.00000000
     0.00000000     0.00000000     0.00000000
     0.00000000     0.00000000     0.00000000
     0.00000000     0.00000000     0.00000000
     0.00000000     0.00000000     0.00000000
     0.00000000     0.00000000     0.00000000
     0.00000000     0.00000000     0.00000000
     0.00000000     0.00000000     0.00000000
     0.00000000     0.00000000     0.00000000
     0.00000000     0.00000000     0.00000000
     0.00000000     0.00000000     0.00000000
     0.00000000     0.00000000     0.00000000
     0.00000000     0.00000000     0.00000000

           2 st state (SSR)
     0.00000000     0.00000000     0.00000000
     0.00000000     0.00000000     0.00000000
     0.00000000     0.00000000     0.00000000
     0.00000000     0.00000000     0.00000000
     0.00000000     0.00000000     0.00000000
     0.00000000     0.00000000     0.00000000
     0.00000000     0.00000000     0.00000000
     0.00000000     0.00000000     0.00000000
     0.00000000     0.00000000     0.00000000
     0.00000000     0.00000000     0.00000000
     0.00000000     0.00000000     0.00000000
     0.00000000     0.00000000     0.00000000
     0.00000000     0.00000000     0.00000000
     0.00000000     0.00000000     0.00000000
--------------------------------------------------
 Coupling Information
--------------------------------------------------
 between  1 and  2 states
--------------------------------------------------
 g vector - difference gradient
    -1.43137292    -6.92439893    -1.79964620
     3.02828057     8.85752387     3.00256599
     0.66368906    -0.06734817    -0.71978718
    -1.14034781    -0.41879645     0.68871408
    -0.94858516    -0.05794064    -0.05672345
     3.65029295    -2.89625067    -2.36231361
     0.17667676     0.82456495    -0.89133173
    -1.59431266     0.85680345     0.09307659
    -0.54376876     1.89633789    -0.27166859
     2.41504599     0.45393781     2.52819997
    -0.74145415     0.99348059    -1.13175226
    -3.87792675    -3.23570786     0.48667777
     0.05791856    -0.04671853     0.05758374
     0.28586432    -0.23548732     0.37640488

 h vector - derivative coupling
    -0.45832180    -2.11462518    -0.56197093
     0.91485149     2.71564490     0.95352311
     0.17966321    -0.02495993    -0.18912205
    -0.28820780    -0.13375113     0.17419258
    -0.28044837    -0.00804191    -0.04082193
     1.09547297    -0.97271810    -0.74952315
     0.08902092     0.27621062    -0.23479579
    -0.47382706     0.29787941     0.03605735
    -0.18619816     0.62985575    -0.07523626
     0.78610767     0.09762016     0.72875311
    -0.26500381     0.34843835    -0.32959878
    -1.20355826    -1.03007612     0.14177795
    -0.01356750     0.01652148     0.00928983
     0.10401652    -0.09799830     0.13747497

 G vector - GDV
     0.00000000     0.00000000     0.00000000
     0.00000000     0.00000000     0.00000000
     0.00000000     0.00000000     0.00000000
     0.00000000     0.00000000     0.00000000
     0.00000000     0.00000000     0.00000000
     0.00000000     0.00000000     0.00000000
     0.00000000     0.00000000     0.00000000
     0.00000000     0.00000000     0.00000000
     0.00000000     0.00000000     0.00000000
     0.00000000     0.00000000     0.00000000
     0.00000000     0.00000000     0.00000000
     0.00000000     0.00000000     0.00000000
     0.00000000     0.00000000     0.00000000
     0.00000000     0.00000000     0.00000000

 H vector - DCV - non-adiabatic coupling
     0.00000000     0.00000000     0.00000000
     0.00000000     0.00000000     0.00000000
     0.00000000     0.00000000     0.00000000
     0.00000000     0.00000000     0.00000000
     0.00000000     0.00000000     0.00000000
     0.00000000     0.00000000     0.00000000
     0.00000000     0.00000000     0.00000000
     0.00000000     0.00000000     0.00000000
     0.00000000     0.00000000     0.00000000
     0.00000000     0.00000000     0.00000000
     0.00000000     0.00000000     0.00000000
     0.00000000     0.00000000     0.00000000
     0.00000000     0.00000000     0.00000000
     0.00000000     0.00000000     0.00000000
--------------------------------------------------

WARNING!
-> SCC is NOT converged, maximal SCC iterations exceeded

--------------------------------------------------------------------------------
DFTB+ running times                          cpu [s]             wall clock [s]
--------------------------------------------------------------------------------
SCC                                    +     1.59  ( 78.7%)      1.60  ( 78.6%)
      Sparse to dense                        0.08  (  3.7%)      0.09  (  4.2%)
      Dense to sparse                        0.26  ( 12.8%)      0.25  ( 12.1%)
      Range separated Hamiltonian            0.13  (  6.2%)      0.12  (  6.1%)
  Density matrix creation                    0.16  (  7.8%)      0.16  (  7.8%)
  Force calculation                          0.43  ( 21.2%)      0.43  ( 21.1%)
--------------------------------------------------------------------------------
Missing                                +     0.43  ( 21.3%)      0.43  ( 21.4%)
Total                                  =     2.02  (100.0%)      2.03  (100.0%)
--------------------------------------------------------------------------------
