 Fermi distribution function

Calculation with static geometry


********************************************************************************
 iSCC Total electronic   Diff electronic      SCC error    
   13   -0.52907107E+01   -0.22915003E-12    0.12154296E-07
********************************************************************************

 Total charge:     1.00000000

 Atomic gross charges (e)
 Atom           Charge
    1       0.30535168
    2      -0.19061134
    3       0.16892529
    4       0.25832778
    5       0.27445370
    6       0.18355288

Nr. of electrons (up):     12.00000000
Atom populations (up)
 Atom       Population
    1       3.69464832
    2       5.19061134
    3       0.83107471
    4       0.74167222
    5       0.72554630
    6       0.81644712

l-shell populations (up)
 Atom Sh.   l       Population
    1   1   0       1.38796406
    1   2   1       2.30668426
    2   1   0       1.50933294
    2   2   1       3.68127840
    3   1   0       0.83107471
    4   1   0       0.74167222
    5   1   0       0.72554630
    6   1   0       0.81644712

Orbital populations (up)
 Atom Sh.   l   m       Population  Label
    1   1   0   0       1.38796406  s
    1   2   1  -1       0.44020724  p_y
    1   2   1   0       0.86894091  p_z
    1   2   1   1       0.99753611  p_x
    2   1   0   0       1.50933294  s
    2   2   1  -1       1.35662634  p_y
    2   2   1   0       1.08415263  p_z
    2   2   1   1       1.24049943  p_x
    3   1   0   0       0.83107471  s
    4   1   0   0       0.74167222  s
    5   1   0   0       0.72554630  s
    6   1   0   0       0.81644712  s

Fermi level:                        -0.5137470666 H          -13.9798 eV
Band energy:                        -8.7095330116 H         -236.9985 eV
TS:                                  0.0000000000 H            0.0000 eV
Band free energy (E-TS):            -8.7095330116 H         -236.9985 eV
Extrapolated E(0K):                 -8.7095330116 H         -236.9985 eV
Input / Output electrons (q):     12.0000000000     12.0000000000

Energy H0:                          -5.4270425334 H         -147.6773 eV
Energy SCC:                          0.1363318561 H            3.7098 eV
Total Electronic energy:            -5.2907106774 H         -143.9676 eV
Repulsive energy:                    0.1423031378 H            3.8723 eV
Total energy:                       -5.1484075395 H         -140.0953 eV
Extrapolated to 0:                  -5.1484075395 H         -140.0953 eV
Total Mermin free energy:           -5.1484075395 H         -140.0953 eV
Force related energy:               -5.1484075395 H         -140.0953 eV

SCC converged

Excitation Energy:                   0.1027953125 H            2.7972 eV

Total Forces
    1      0.009199990761     -0.001300930782      0.059904846447
    2     -0.000761344244      0.014575474278     -0.061977735380
    3     -0.007023576436      0.006953527835      0.002509527413
    4     -0.006318180734     -0.013829341881      0.001626584486
    5      0.008781945480      0.005137484898      0.001325834641
    6     -0.003878834828     -0.011536214347     -0.003389057608

Maximal derivative component:        0.619777E-01 au


