     6
  Step:     0            Position(A)                                  Velocity(au)
C        -0.04038161     0.00952252     0.02678303    -0.00012356    -0.00015978     0.00028242
N        -0.03125179    -0.04299043     1.28489466     0.00017112     0.00012565    -0.00024233
H         0.92199650     0.05962850    -0.52425589     0.00054806     0.00034189    -0.00032574
H         0.75330850    -0.14744791     1.88762558    -0.00115340    -0.00017851     0.00010209
H        -0.96405198    -0.16074760     1.85681485    -0.00049779    -0.00066614     0.00021860
H        -1.00871585     0.06272779    -0.50263913     0.00019755     0.00066066     0.00000721
     6
  Step:     1            Position(A)                                  Velocity(au)
C        -0.04105983     0.00865068     0.02812634    -0.00012408    -0.00015913     0.00020713
N        -0.03038268    -0.04230532     1.28377168     0.00014592     0.00012500    -0.00016738
H         0.92502773     0.06152345    -0.52622610     0.00055457     0.00035095    -0.00039073
H         0.74744096    -0.14851117     1.88849422    -0.00098374    -0.00021182     0.00022186
H        -0.96625913    -0.16435454     1.85768651    -0.00030562    -0.00065235     0.00009680
H        -1.00766803     0.06637158    -0.50281083     0.00018566     0.00067246    -0.00007010
     6
  Step:     2            Position(A)                                  Velocity(au)
C        -0.04173873     0.00778208     0.02904843    -0.00012388    -0.00015871     0.00012893
N        -0.02965586    -0.04162331     1.28306397     0.00011943     0.00012460    -0.00009088
H         0.92806192     0.06346691    -0.52852940     0.00054966     0.00035982    -0.00044790
H         0.74254912    -0.14976466     1.89005210    -0.00079937    -0.00024795     0.00035254
H        -0.96739459    -0.16788252     1.85787360    -0.00010777    -0.00063786    -0.00003045
H        -1.00668524     0.07008259    -0.50340583     0.00017392     0.00068564    -0.00014755
     6
  Step:     3            Position(A)                                  Velocity(au)
C        -0.04241429     0.00691536     0.02953601    -0.00012296    -0.00015859     0.00004871
N        -0.02907679    -0.04094289     1.28277797     0.00009223     0.00012452    -0.00001349
H         0.93103768     0.06545773    -0.53112346     0.00053389     0.00036855    -0.00049763
H         0.73870067    -0.15122221     1.89234886    -0.00060509    -0.00028636     0.00049045
H        -0.96743750    -0.17132883     1.85735357     0.00009236    -0.00062319    -0.00016073
H        -1.00576643     0.07386838    -0.50442415     0.00016241     0.00070036    -0.00022501
     6
  Step:     4            Position(A)                                  Velocity(au)
C        -0.04308258     0.00604877     0.02958082    -0.00012132    -0.00015881    -0.00003262
N        -0.02864787    -0.04026233     1.28291648     0.00006483     0.00012477     0.00006416
H         0.93389718     0.06749502    -0.53396835     0.00050788     0.00037713    -0.00054034
H         0.73593566    -0.15289444     1.89541252    -0.00040591    -0.00032640     0.00063146
H        -0.96638510    -0.17469376     1.85611689     0.00029160    -0.00060882    -0.00029171
H        -1.00491016     0.07773729    -0.50586514     0.00015118     0.00071664    -0.00030236
     6
  Step:     5            Position(A)                                  Velocity(au)
C        -0.04373969     0.00518036     0.02917961    -0.00011894    -0.00015939    -0.00011415
N        -0.02836852    -0.03957977     1.28347897     0.00003779     0.00012534     0.00014147
H         0.93658636     0.06957787    -0.53702673     0.00047227     0.00038550    -0.00057644
H         0.73426603    -0.15478813     1.89924764    -0.00020692    -0.00036728     0.00077112
H        -0.96425178    -0.17798024     1.85416665     0.00048671    -0.00059515    -0.00042102
H        -1.00411481     0.08169780    -0.50772744     0.00014022     0.00073441    -0.00037940
     6
  Step:     6            Position(A)                                  Velocity(au)
C        -0.04438159     0.00430807     0.02833418    -0.00011581    -0.00016031    -0.00019489
N        -0.02823521    -0.03889342     1.28446152     0.00001164     0.00012622     0.00021775
H         0.93905497     0.07170509    -0.54026375     0.00042773     0.00039354    -0.00060629
H         0.73367582    -0.15690560     1.90383406    -0.00001320    -0.00040810     0.00090477
H        -0.96106961    -0.18119356     1.85151882     0.00067423    -0.00058258    -0.00054614
H        -1.00337879     0.08575794    -0.51000870     0.00012952     0.00075345    -0.00045587
     6
  Step:     7            Position(A)                                  Velocity(au)
C        -0.04500414     0.00342997     0.02705162    -0.00011186    -0.00016153    -0.00027380
N        -0.02824148    -0.03820161     1.28585650    -0.00001307     0.00012735     0.00029221
H         0.94125661     0.07387486    -0.54364674     0.00037494     0.00040108    -0.00063020
H         0.73412194    -0.15924414     1.90912662     0.00017034    -0.00044785     0.00102774
H        -0.95689001    -0.18434127     1.84820342     0.00085022    -0.00057147    -0.00066425
H        -1.00270060     0.08992453    -0.51270501     0.00011906     0.00077341    -0.00053132
     6
  Step:     8            Position(A)                                  Velocity(au)
C        -0.04560297     0.00254438     0.02534464    -0.00010707    -0.00016297    -0.00034973
N        -0.02837788    -0.03750295     1.28765205    -0.00003575     0.00012867     0.00036395
H         0.94314880     0.07608438    -0.54714466     0.00031467     0.00040788    -0.00064835
H         0.73553571    -0.16179557     1.91505561     0.00033905    -0.00048544     0.00113554
H        -0.95178637    -0.18743329     1.84426608     0.00101020    -0.00056228    -0.00077219
H        -1.00207882     0.09420252    -0.51581004     0.00010883     0.00079382    -0.00060515
     6
  Step:     9            Position(A)                                  Velocity(au)
C        -0.04617353     0.00165005     0.02323201    -0.00010141    -0.00016455    -0.00042148
N        -0.02863196    -0.03679633     1.28983137    -0.00005585     0.00013012     0.00043192
H         0.94469328     0.07832955    -0.55072772     0.00024780     0.00041366    -0.00066092
H         0.73782491    -0.16454591     1.92152834     0.00048875    -0.00051976     0.00122405
H        -0.94585718    -0.19048216     1.83976996     0.00114913    -0.00055548    -0.00086648
H        -1.00151203     0.09859423    -0.51931409     0.00009885     0.00081410    -0.00067653
     6
  Step:    10            Position(A)                                  Velocity(au)
C        -0.04671113     0.00074628     0.02073887    -0.00009486    -0.00016612    -0.00048776
N        -0.02898821    -0.03608100     1.29237200    -0.00007279     0.00013164     0.00049497
H         0.94585672     0.08060475    -0.55436702     0.00017539     0.00041810    -0.00066802
H         0.74087661    -0.16747533     1.92843173     0.00061584    -0.00054970     0.00128981
H        -0.93922903    -0.19350344     1.83479745     0.00126150    -0.00055167    -0.00094339
H        -1.00099861     0.10309876    -0.52320296     0.00008919     0.00083356    -0.00074447
     6
  Step:    11            Position(A)                                  Velocity(au)
C        -0.04721104    -0.00016695     0.01789697    -0.00008744    -0.00016757    -0.00054734
N        -0.02942817    -0.03535653     1.29524522    -0.00008605     0.00013315     0.00055186
H         0.94661160     0.08290261    -0.55803440     0.00009867     0.00042088    -0.00066980
H         0.74456081    -0.17055837     1.93563596     0.00071751    -0.00057426     0.00133015
H        -0.93205914    -0.19651623     1.82945142     0.00134166    -0.00055153    -0.00099916
H        -1.00053648     0.10771146    -0.52745696     0.00007996     0.00085146    -0.00080784
     6
  Step:    12            Position(A)                                  Velocity(au)
C        -0.04766874    -0.00108891     0.01474459    -0.00007922    -0.00016876    -0.00059903
N        -0.02993064    -0.03462281     1.29841572    -0.00009517     0.00013461     0.00060137
H         0.94693728     0.08521402    -0.56170249     0.00001910     0.00042170    -0.00066647
H         0.74873455    -0.17376440     1.94299902     0.00079186    -0.00059259     0.00134342
H        -0.92453568    -0.19954358     1.82385504     0.00138421    -0.00055578    -0.00103031
H        -1.00012286     0.11242367    -0.53205013     0.00007134     0.00086708    -0.00086541
     6
  Step:    13            Position(A)                                  Velocity(au)
C        -0.04808001    -0.00201812     0.01132604    -0.00007030    -0.00016956    -0.00064184
N        -0.03047210    -0.03387997     1.30184178    -0.00009979     0.00013599     0.00064242
H         0.94682108     0.08752829    -0.56534504    -0.00006169     0.00042032    -0.00065831
H         0.75324690    -0.17705860     1.95037224     0.00083802    -0.00060406     0.00132914
H        -0.91687545    -0.20261273     1.81814975     0.00138460    -0.00056519    -0.00103399
H        -0.99975396     0.11722271    -0.53694981     0.00006352     0.00087974    -0.00091597
     6
  Step:    14            Position(A)                                  Velocity(au)
C        -0.04844130    -0.00295241     0.00769073    -0.00006082    -0.00016987    -0.00067501
N        -0.03102738    -0.03312830     1.30547597    -0.00009974     0.00013727     0.00067414
H         0.94625928     0.08983337    -0.56893744    -0.00014194     0.00041658    -0.00064578
H         0.75794445    -0.18040314     1.95760641     0.00085624    -0.00060835     0.00128803
H        -0.90931872    -0.20575505     1.81249141     0.00133976    -0.00058043    -0.00100839
H        -0.99942474     0.12209216    -0.54211673     0.00005677     0.00088888    -0.00095843
     6
  Step:    15            Position(A)                                  Velocity(au)
C        -0.04874987    -0.00388899     0.00389167    -0.00005098    -0.00016960    -0.00069816
N        -0.03157063    -0.03236817     1.30926649    -0.00009503     0.00013845     0.00069599
H         0.94525775     0.09211642    -0.57245742    -0.00021987     0.00041045    -0.00062944
H         0.76267719    -0.18375880     1.96455820     0.00084785    -0.00060545     0.00122199
H        -0.90211973    -0.20900537     1.80704373     0.00124868    -0.00060203    -0.00095309
H        -0.99912872     0.12701257    -0.54750564     0.00005135     0.00089413    -0.00099193
     6
  Step:    16            Position(A)                                  Velocity(au)
C        -0.04900405    -0.00482467    -0.00001626    -0.00004098    -0.00016874    -0.00071127
N        -0.03207638    -0.03159995     1.31315903    -0.00008588     0.00013956     0.00070787
H         0.94383213     0.09436430    -0.57588582    -0.00029375     0.00040199    -0.00061004
H         0.76730382    -0.18708669     1.97109599     0.00081516    -0.00059568     0.00113393
H        -0.89553454    -0.21240083     1.80197021     0.00111286    -0.00063026    -0.00086934
H        -0.99885792     0.13196241    -0.55306667     0.00004753     0.00089532    -0.00101595
     6
  Step:    17            Position(A)                                  Velocity(au)
C        -0.04920335    -0.00575607    -0.00397847    -0.00003106    -0.00016728    -0.00071473
N        -0.03252088    -0.03082396     1.31709908    -0.00007277     0.00014062     0.00071012
H         0.94200741     0.09656438    -0.57920744    -0.00036205     0.00039141    -0.00058843
H         0.77169691    -0.19035002     1.97710514     0.00076132    -0.00057972     0.00102758
H        -0.88980600    -0.21597915     1.79742450     0.00093655    -0.00066504    -0.00076009
H        -0.99860279     0.13691931    -0.55874704     0.00004558     0.00089259    -0.00103033
     6
  Step:    18            Position(A)                                  Velocity(au)
C        -0.04934856    -0.00667987    -0.00794287    -0.00002145    -0.00016530    -0.00070935
N        -0.03288340    -0.03004042     1.32103445    -0.00005636     0.00014168     0.00070351
H         0.93981690     0.09870515    -0.58241170    -0.00042352     0.00037905    -0.00056559
H         0.77574711    -0.19351591     1.98249221     0.00069007    -0.00055849     0.00090720
H        -0.88514789    -0.21977638     1.79354056     0.00072660    -0.00070594    -0.00062987
H        -0.99835241     0.14186147    -0.56449334     0.00004572     0.00088629    -0.00103538
     6
  Step:    19            Position(A)                                  Velocity(au)
C        -0.04944172    -0.00759313    -0.01186192    -0.00001234    -0.00016290    -0.00069623
N        -0.03314730    -0.02924939     1.32491766    -0.00003750     0.00014278     0.00068923
H         0.93730055     0.10077694    -0.58549315    -0.00047730     0.00036532    -0.00054251
H         0.77936612    -0.19655688     1.98718738     0.00060547    -0.00053317     0.00077721
H        -0.88173084    -0.22382469     1.79042433     0.00049192    -0.00075214    -0.00048442
H        -0.99809467     0.14676914    -0.57025387     0.00004814     0.00087704    -0.00103181
     6
  Step:    20            Position(A)                                  Velocity(au)
C        -0.04948598    -0.00849348    -0.01569431    -0.00000392    -0.00016022    -0.00067670
N        -0.03330092    -0.02845083     1.32870799    -0.00001710     0.00014395     0.00066871
H         0.93450294     0.10277243    -0.58845174    -0.00052290     0.00035072    -0.00052021
H         0.78248808    -0.19945188     1.99114524     0.00051156    -0.00050500     0.00064191
H        -0.87967113    -0.22815028     1.78814735     0.00024274    -0.00080254    -0.00033012
H        -0.99781649     0.15162594    -0.57598095     0.00005297     0.00086565    -0.00102066
     6
  Step:    21            Position(A)                                  Velocity(au)
C        -0.04948544    -0.00937934    -0.01940610     0.00000368    -0.00015743    -0.00065217
N        -0.03333794    -0.02764456     1.33237279     0.00000390     0.00014524     0.00064351
H         0.93147101     0.10468691    -0.59129268    -0.00056023     0.00033571    -0.00049959
H         0.78506929    -0.20218690     1.99434366     0.00041211    -0.00047525     0.00050509
H        -0.87902462    -0.23277182     1.78674394    -0.00001027    -0.00085584    -0.00017349
H        -0.99750411     0.15641986    -0.58163266     0.00006032     0.00085302    -0.00100317
     6
  Step:    22            Position(A)                                  Velocity(au)
C        -0.04944489    -0.01025001    -0.02297111     0.00001038    -0.00015467    -0.00062400
N        -0.03325740    -0.02683029     1.33588815     0.00002462     0.00014666     0.00061514
H         0.92825203     0.10651819    -0.59402607    -0.00058947     0.00032071    -0.00048143
H         0.78708633    -0.20475462     1.99678093     0.00031046    -0.00044509     0.00036998
H        -0.87978573    -0.23769956     1.78621161    -0.00025702    -0.00091062    -0.00002051
H        -0.99714348     0.16114379    -0.58717413     0.00007024     0.00084005    -0.00098062
     6
  Step:    23            Position(A)                                  Velocity(au)
C        -0.04936956    -0.01110568    -0.02637063     0.00001613    -0.00015211    -0.00059340
N        -0.03306320    -0.02600764     1.33923841     0.00004426     0.00014824     0.00058494
H         0.92489186     0.10826641    -0.59666599    -0.00061103     0.00030609    -0.00046633
H         0.78853440    -0.20715462     1.99847309     0.00020952    -0.00041561     0.00023920
H        -0.88189319    -0.24293536     1.78651501    -0.00048862    -0.00096552     0.00012367
H        -0.99672011     0.16579571    -0.59257748     0.00008282     0.00082755    -0.00095418
     6
  Step:    24            Position(A)                                  Velocity(au)
C        -0.04926489    -0.01194729    -0.02959252     0.00002091    -0.00014983    -0.00056132
N        -0.03276349    -0.02517614     1.34241521     0.00006219     0.00014997     0.00055400
H         0.92143388     0.10993369    -0.59922955    -0.00062533     0.00029209    -0.00045468
H         0.78942425    -0.20939221     1.99945005     0.00011158    -0.00038767     0.00011465
H        -0.88523796    -0.24847331     1.78759158    -0.00069770    -0.00101917     0.00025496
H        -0.99621932     0.17037795    -0.59782129     0.00009808     0.00081614    -0.00092479
     6
  Step:    25            Position(A)                                  Velocity(au)
C        -0.04913642    -0.01277640    -0.03262976     0.00002471    -0.00014792    -0.00052845
N        -0.03236972    -0.02433538     1.34541590     0.00007789     0.00015182     0.00052308
H         0.91791896     0.11152344    -0.60173597    -0.00063276     0.00027885    -0.00044670
H         0.78977865    -0.21147740     1.99975152     0.00001850    -0.00036194    -0.00000229
H        -0.88967309    -0.25429982     1.78935803    -0.00087853    -0.00107022     0.00037033
H        -0.99562650     0.17489628    -0.60288958     0.00011600     0.00080623    -0.00089314
     6
  Step:    26            Position(A)                                  Velocity(au)
C        -0.04898962    -0.01359495    -0.03547907     0.00002756    -0.00014639    -0.00049524
N        -0.03189590    -0.02348504     1.34824187     0.00009095     0.00015374     0.00049266
H         0.91438547     0.11303981    -0.60420545    -0.00063362     0.00026639    -0.00044243
H         0.78963029    -0.21342390     1.99942450    -0.00006819    -0.00033894    -0.00011058
H        -0.89502406    -0.26039471     1.79171678    -0.00102696    -0.00111748     0.00046772
H        -0.99492721     0.17935867    -0.60777014     0.00013655     0.00079799    -0.00085962
     6
  Step:    27            Position(A)                                  Velocity(au)
C        -0.04882985    -0.01440504    -0.03813946     0.00002900    -0.00014179    -0.00049225
N        -0.03135786    -0.02262495     1.35089691     0.00009952     0.00015693     0.00048555
H         0.91086977     0.11448709    -0.60665815    -0.00064826     0.00017332    -0.00041979
H         0.78901999    -0.21524818     1.99852133    -0.00014729    -0.00026159    -0.00020087
H        -0.90109834    -0.26673205     1.79456157    -0.00111449    -0.00124127     0.00052610
H        -0.99410738     0.18377416    -0.61245305     0.00018146     0.00083835    -0.00078724
     6
  Step:    28            Position(A)                                  Velocity(au)
C        -0.04866736    -0.01517035    -0.04094839     0.00002981    -0.00013313    -0.00052948
N        -0.03079013    -0.02174140     1.35363682     0.00010302     0.00015951     0.00051087
H         0.90718275     0.11496550    -0.60886966    -0.00068084     0.00001548    -0.00037133
H         0.78799374    -0.21633036     1.99719265    -0.00022049    -0.00014224    -0.00028781
H        -0.90740706    -0.27418634     1.79756226    -0.00113583    -0.00140742     0.00054252
H        -0.99291103     0.18867349    -0.61651709     0.00025033     0.00090403    -0.00067339
     6
  Step:    29            Position(A)                                  Velocity(au)
C        -0.04849902    -0.01588261    -0.04401578     0.00003064    -0.00012362    -0.00057703
N        -0.03021449    -0.02085466     1.35656676     0.00010280     0.00015965     0.00054658
H         0.90331362     0.11465885    -0.61077927    -0.00071003    -0.00012015    -0.00031856
H         0.78657287    -0.21682677     1.99532707    -0.00028597    -0.00004308    -0.00038223
H        -0.91370414    -0.28235211     1.80058264    -0.00111679    -0.00152271     0.00053767
H        -0.99132919     0.19380735    -0.61992660     0.00031912     0.00094051    -0.00055637
     6
  Step:    30            Position(A)                                  Velocity(au)
C        -0.04832757    -0.01654121    -0.04734713     0.00003090    -0.00011401    -0.00062392
N        -0.02965018    -0.01997103     1.35969783     0.00009910     0.00015877     0.00058271
H         0.89930924     0.11363312    -0.61240222    -0.00072921    -0.00024580    -0.00026963
H         0.78482264    -0.21680809     1.99295415    -0.00033805     0.00004466    -0.00046863
H        -0.91979114    -0.29107171     1.80352454    -0.00106316    -0.00161259     0.00051608
H        -0.98937235     0.19910285    -0.62268670     0.00038512     0.00096605    -0.00044074
     6
  Step:    31            Position(A)                                  Velocity(au)
C        -0.04815660    -0.01714622    -0.05093083     0.00003047    -0.00010438    -0.00066777
N        -0.02911612    -0.01909503     1.36302508     0.00009199     0.00015707     0.00061703
H         0.89523161     0.11193458    -0.61376768    -0.00073605    -0.00036388    -0.00022657
H         0.78282616    -0.21633180     1.99013317    -0.00037379     0.00012254    -0.00054261
H        -0.92548731    -0.30022475     1.80630247    -0.00097816    -0.00168173     0.00047991
H        -0.98706084     0.20451426    -0.62481142     0.00044657     0.00098411    -0.00032803
     6
  Step:    32            Position(A)                                  Velocity(au)
C        -0.04798997    -0.01769782    -0.05474659     0.00002932    -0.00009476    -0.00070727
N        -0.02863081    -0.01823053     1.36653504     0.00008159     0.00015467     0.00064823
H         0.89115325     0.10960108    -0.61491279    -0.00072886    -0.00047541    -0.00019067
H         0.78068079    -0.21545023     1.98694158    -0.00039078     0.00019115    -0.00060127
H        -0.93062992    -0.30970656     1.80884231    -0.00086530    -0.00173240     0.00043128
H        -0.98442400     0.21000757    -0.62632148     0.00050184     0.00099640    -0.00021953
     6
  Step:    33            Position(A)                                  Velocity(au)
C        -0.04783169    -0.01819625    -0.05876837     0.00002745    -0.00008517    -0.00074151
N        -0.02821204    -0.01738103     1.37020839     0.00006805     0.00015163     0.00067538
H         0.88715476     0.10666636    -0.61588059    -0.00070646    -0.00058085    -0.00016290
H         0.77849577    -0.21421361     1.98347021    -0.00038714     0.00025073    -0.00064251
H        -0.93507608    -0.31942223     1.81108165    -0.00072854    -0.00176620     0.00037244
H        -0.98149977     0.21555580    -0.62724413     0.00054937     0.00100404    -0.00011654
     6
  Step:    34            Position(A)                                  Velocity(au)
C        -0.04768565    -0.01864190    -0.06296602     0.00002491    -0.00007565    -0.00076988
N        -0.02787650    -0.01654970     1.37402148     0.00005163     0.00014803     0.00069784
H         0.88332232     0.10316255    -0.61671850    -0.00066814    -0.00068039    -0.00014394
H         0.77638942    -0.21267096     1.97981957    -0.00036161     0.00030141    -0.00066494
H        -0.93870562    -0.32928438     1.81297069    -0.00057227    -0.00178456     0.00030575
H        -0.97833443     0.22113712    -0.62761334     0.00058772     0.00100794    -0.00002035
     6
  Step:    35            Position(A)                                  Velocity(au)
C        -0.04755548    -0.01903525    -0.06730648     0.00002174    -0.00006624    -0.00079198
N        -0.02763940    -0.01573934     1.37794753     0.00003266     0.00014394     0.00071515
H         0.87974492     0.09912074    -0.61747690    -0.00061376    -0.00077416    -0.00013417
H         0.77448543    -0.21087093     1.97609588    -0.00031369     0.00034335    -0.00066796
H        -0.94142269    -0.33921341     1.81447250    -0.00040111    -0.00178905     0.00023359
H        -0.97498182     0.22673405    -0.62746978     0.00061565     0.00100889     0.00006784
     6
  Step:    36            Position(A)                                  Velocity(au)
C        -0.04744444    -0.01937694    -0.07175491     0.00001804    -0.00005697    -0.00080764
N        -0.02751402    -0.01495234     1.38195775     0.00001153     0.00013945     0.00072710
H         0.87651124     0.09457143    -0.61820747    -0.00054376    -0.00086225    -0.00013367
H         0.77290824    -0.20886069     1.97240693    -0.00024385     0.00037689    -0.00065179
H        -0.94315684    -0.34913808     1.81556298    -0.00021969    -0.00178124     0.00015828
H        -0.97150230     0.23233313    -0.62686053     0.00063218     0.00100769     0.00014692
     6
  Step:    37            Position(A)                                  Velocity(au)
C        -0.04735515    -0.01966795    -0.07627583     0.00001394    -0.00004792    -0.00081687
N        -0.02751139    -0.01419070     1.38602250    -0.00001132     0.00013463     0.00073368
H         0.87370612     0.08954485    -0.61896137    -0.00045920    -0.00094480    -0.00014215
H         0.77177728    -0.20668526     1.96885731    -0.00015357     0.00040259    -0.00061750
H        -0.94386245    -0.35899524     1.81623026    -0.00003257    -0.00176283     0.00008199
H        -0.96796106     0.23792512    -0.62583812     0.00063661     0.00100514     0.00021601
     6
  Step:    38            Position(A)                                  Velocity(au)
C        -0.04728951    -0.01990952    -0.08083413     0.00000959    -0.00003912    -0.00081988
N        -0.02763988    -0.01345596     1.39011237    -0.00003537     0.00012958     0.00073505
H         0.87140739     0.08407038    -0.61978740    -0.00036172    -0.00102202    -0.00015900
H         0.77120135    -0.20438605     1.96554365    -0.00004534     0.00042124    -0.00056701
H        -0.94351883    -0.36873128     1.81647421     0.00015581    -0.00173573     0.00000678
H        -0.96442668     0.24350489    -0.62445967     0.00062854     0.00100201     0.00027442
     6
  Step:    39            Position(A)                                  Velocity(au)
C        -0.04724851    -0.02010312    -0.08539601     0.00000515    -0.00003062    -0.00081703
N        -0.02790484    -0.01274929     1.39419906    -0.00006005     0.00012437     0.00073153
H         0.86968240     0.07817611    -0.62073003    -0.00025352    -0.00109427    -0.00018326
H         0.77127294    -0.20199954     1.96255006     0.00007743     0.00043386    -0.00050295
H        -0.94212926    -0.37830305     1.81630566     0.00034128    -0.00170194    -0.00006548
H        -0.96096930     0.24907122    -0.62278553     0.00060796     0.00099902     0.00032174
     6
  Step:    40            Position(A)                                  Velocity(au)
C        -0.04723217    -0.02025044    -0.08992984     0.00000082    -0.00002246    -0.00080878
N        -0.02830842    -0.01207142     1.39825632    -0.00008478     0.00011907     0.00072357
H         0.86858502     0.07188820    -0.62182760    -0.00013726    -0.00116196    -0.00021369
H         0.77206334    -0.19955602     1.95994445     0.00021053     0.00044168    -0.00042854
H        -0.93971946    -0.38767846     1.81574527     0.00052001    -0.00166355    -0.00013313
H        -0.95765849     0.25462669    -0.62087780     0.00057517     0.00099684     0.00035786
     6
  Step:    41            Position(A)                                  Velocity(au)
C        -0.04723941    -0.02035335    -0.09440679    -0.00000323    -0.00001465    -0.00079573
N        -0.02884942    -0.01142271     1.40226047    -0.00010896     0.00011376     0.00071169
H         0.86815316     0.06523051    -0.62311075    -0.00001596    -0.00122559    -0.00024879
H         0.77361851    -0.19707870     1.95777563     0.00034919     0.00044605    -0.00034737
H        -0.93633577    -0.39683695     1.81482245     0.00068855    -0.00162269    -0.00019475
H        -0.95456122     0.26017715    -0.61879857     0.00053088     0.00099602     0.00038295
     6
  Step:    42            Position(A)                                  Velocity(au)
C        -0.04726813    -0.02041380    -0.09880128    -0.00000679    -0.00000721    -0.00077848
N        -0.02952325    -0.01080316     1.40619083    -0.00013201     0.00010849     0.00069646
H         0.86840704     0.05822427    -0.62460135     0.00010713    -0.00128567    -0.00028694
H         0.77595641    -0.19458303     1.95607162     0.00048831     0.00044838    -0.00026320
H        -0.93204293    -0.40576963     1.81357407     0.00084387    -0.00158145    -0.00024913
H        -0.95173980     0.26573123    -0.61660838     0.00047609     0.00099702     0.00039745
     6
  Step:    43            Position(A)                                  Velocity(au)
C        -0.04731521    -0.02043378    -0.10309126    -0.00000972    -0.00000013    -0.00075769
N        -0.03032206    -0.01021241     1.41002992    -0.00015336     0.00010334     0.00067845
H         0.86934832     0.05088799    -0.62631181     0.00022873    -0.00134270    -0.00032643
H         0.77906599    -0.19207667     1.95483943     0.00062280     0.00045005    -0.00017969
H        -0.92692180    -0.41447910     1.81204326     0.00098338    -0.00154185    -0.00029529
H        -0.94925009     0.27129957    -0.61436472     0.00041212     0.00100011     0.00040207
     6
  Step:    44            Position(A)                                  Velocity(au)
C        -0.04737664    -0.02041530    -0.10725829    -0.00001187     0.00000658    -0.00073400
N        -0.03123500    -0.00964976     1.41376342    -0.00017252     0.00009835     0.00065823
H         0.87096003     0.04323760    -0.62824488     0.00034559    -0.00139714    -0.00036558
H         0.78290783    -0.18955978     1.95406596     0.00074780     0.00045232    -0.00010024
H        -0.92106689    -0.42297910     1.81027814     0.00110491    -0.00150581    -0.00033248
H        -0.94713989     0.27689404    -0.61212065     0.00034054     0.00100544     0.00039771
     6