|===============================================================================
|
|  DFTB+ release 20.1
|
|  Copyright (C) 2006 - 2020  DFTB+ developers group
|
|===============================================================================
|
|  When publishing results obtained with DFTB+, please cite the following
|  reference:
|
|  * DFTB+, a software package for efficient approximate density functional
|    theory based atomistic simulations, J. Chem. Phys. 152, 124101 (2020).
|    [doi: 10.1063/1.5143190]
|
|  You should also cite additional publications crediting the parametrization
|  data you use. Please consult the documentation of the SK-files for the
|  references.
|
|===============================================================================

Reading input file 'dftb_in.hsd'
Parser version: 8

--------------------------------------------------------------------------------
Reading SK-files:
Done.


Processed input in HSD format written to 'dftb_pin.hsd'

Starting initialization...
--------------------------------------------------------------------------------
OpenMP threads:              1
Chosen random seed:          508924452
Mode:                        Static calculation
Self consistent charges:     Yes
SCC-tolerance:                 0.100000E-05
Max. scc iterations:                   1000
Shell resolved Hubbard:      No
Spin polarisation:           No
Nr. of up electrons:             6.000000
Nr. of down electrons:           6.000000
Periodic boundaries:         No
Electronic solver:           Relatively robust
Maximal SCC-cycles:                    1000
Initial charges:             Set automatically (system chrg:   0.100E+01)
Included shells:             C:  s, p
                             N:  s, p
                             H:  s
Spin coupling constants:     C   1(s)-1(s):  -0.455900E-01
                             C   1(s)-2(p):  -0.293000E-01
                             C   2(p)-1(s):  -0.293000E-01
                             C   2(p)-2(p):  -0.275500E-01
                             N   1(s)-1(s):  -0.468700E-01
                             N   1(s)-2(p):  -0.317000E-01
                             N   2(p)-1(s):  -0.317000E-01
                             N   2(p)-2(p):  -0.307200E-01
                             H   1(s)-1(s):  -0.792500E-01
Range separated hybrid:      Yes
  Screening parameter omega:   0.300000E+00
  Range separated algorithm:   MatrixBased
Extra options:
                             Mulliken analysis
                             Force calculation
Force type                   original
                             Eigenvector printing


REKS Calcuation:             Yes
SSR(2,2) Calcuation:         Yes
Energy Functional:           (PPS+OSS)/2
Number of Core Orbitals:                  5
Number of Active Orbitals:                2
Number of Basis:                         12
Number of States:                         2
State-Averaging Weight:          0.500000
                                 0.500000
State of Interest:                        1
Initial Guess:               Diagonalize H0 matrix
Newton-Raphson for FON opt:  Yes
NR max. Iterations:                      50
Level Shifting:              Yes
Shift Value:                     0.300000
W Scale Factor:              C  =    3.000000
                             N  =    3.000000
                             H  =    3.000000
Transition Dipole:           No
Gradient of Microstate:      No
CP-REKS Solver:              Preconditioned Conjugate-Gradient
CG max. Iterations:                     100
CG Tolerance:                  0.100000E-07
Memory for A and Hxc:        Direct Updating Without Saving
Non-Adiabatic Coupling:      Yes

--------------------------------------------------------------------------------

***  Geometry step: 0

  iSCC       reks energy        Diff energy         x_a       SCC error   
    1       -6.2554365892       0.0000000000     0.999069    1.18441789
    2       -6.2706213711      -0.0151847819     0.999645    0.11642447
    3       -6.2760616447      -0.0054402736     0.999812    0.05838917
    4       -6.2795043748      -0.0034427301     0.999885    0.03134966
    5       -6.2820946098      -0.0025902350     0.999922    0.01754496
    6       -6.2841100690      -0.0020154593     0.999942    0.01398740
    7       -6.2856369741      -0.0015269051     0.999954    0.01184360
    8       -6.2867387648      -0.0011017907     0.999961    0.00971794
    9       -6.2874942603      -0.0007554954     0.999965    0.00830392
   10       -6.2879898615      -0.0004956012     0.999967    0.00699083
   11       -6.2883039475      -0.0003140860     0.999969    0.00575372
   12       -6.2884981229      -0.0001941754     0.999970    0.00461876
   13       -6.2886162020      -0.0001180791     0.999970    0.00365539
   14       -6.2886872977      -0.0000710958     0.999970    0.00293381
   15       -6.2887298952      -0.0000425974     0.999970    0.00235462
   16       -6.2887553872      -0.0000254920     0.999970    0.00189114
   17       -6.2887706653      -0.0000152781     0.999970    0.00152026
   18       -6.2887798526      -0.0000091873     0.999970    0.00122312
   19       -6.2887854026      -0.0000055500     0.999970    0.00099442
   20       -6.2887887730      -0.0000033704     0.999970    0.00081408
   21       -6.2887908313      -0.0000020582     0.999970    0.00066439
   22       -6.2887920952      -0.0000012640     0.999970    0.00054092
   23       -6.2887928756      -0.0000007804     0.999970    0.00043952
   24       -6.2887933599      -0.0000004843     0.999970    0.00035653
   25       -6.2887936618      -0.0000003019     0.999970    0.00028881
   26       -6.2887938508      -0.0000001890     0.999970    0.00023365
   27       -6.2887939695      -0.0000001187     0.999970    0.00018883
   28       -6.2887940443      -0.0000000748     0.999970    0.00015245
   29       -6.2887940916      -0.0000000473     0.999970    0.00012298
   30       -6.2887941215      -0.0000000299     0.999970    0.00009913
   31       -6.2887941405      -0.0000000190     0.999970    0.00007984
   32       -6.2887941526      -0.0000000121     0.999970    0.00006427
   33       -6.2887941603      -0.0000000077     0.999970    0.00005171
   34       -6.2887941652      -0.0000000049     0.999970    0.00004158
   35       -6.2887941683      -0.0000000031     0.999970    0.00003342
   36       -6.2887941703      -0.0000000020     0.999970    0.00002685
   37       -6.2887941716      -0.0000000013     0.999969    0.00002157
   38       -6.2887941724      -0.0000000008     0.999969    0.00001732
   39       -6.2887941729      -0.0000000005     0.999969    0.00001390
   40       -6.2887941733      -0.0000000003     0.999969    0.00001115
   41       -6.2887941735      -0.0000000002     0.999969    0.00000895
   42       -6.2887941736      -0.0000000001     0.999969    0.00000718
   43       -6.2887941737      -0.0000000001     0.999969    0.00000575
   44       -6.2887941738      -0.0000000001     0.999969    0.00000461
   45       -6.2887941738      -0.0000000000     0.999969    0.00000370
   46       -6.2887941738      -0.0000000000     0.999969    0.00000296
   47       -6.2887941738      -0.0000000000     0.999969    0.00000238
   48       -6.2887941739      -0.0000000000     0.999969    0.00000190
   49       -6.2887941739      -0.0000000000     0.999969    0.00000153
   50       -6.2887941739      -0.0000000000     0.999969    0.00000122
   51       -6.2887941739      -0.0000000000     0.999969    0.00000098
  
--------------------------------------------------
 Final SA-REKS(2,2) energy:      -6.28879417
  
 State     Energy      FON(1)    FON(2)   Spin
  PPS   -6.41831584   1.999939  0.000061  0.00
  OSS   -6.15927251   1.000000  1.000000  0.00
 Trip   -6.23800014   1.000000  1.000000  1.00
--------------------------------------------------

 Lagrangian Wab:  -0.00140108 -0.00140102

--------------------------------------------------
 SSR: 2SI-2SA-REKS(2,2) Hamiltonian matrix
               PPS           OSS
   PPS    -6.41831584   -0.00197045
   OSS    -0.00197045   -6.15927251
--------------------------------------------------

----------------------------------------------------------------
 SSR: 2SI-2SA-REKS(2,2) states
                    E_n       C_{PPS}    C_{OSS}
 SSR state  1   -6.41833083  -0.999971  -0.007606
 SSR state  2   -6.15925752   0.007606  -0.999971
----------------------------------------------------------------

 unrelaxed SSR FONs for S0:  1.999881  0.000119

Total Energy:                       -6.4183308290 H         -174.6517 eV
Extrapolated to 0:                  -6.4183308290 H         -174.6517 eV

----------------------------------------------------------------------------------
 Solving CP-REKS equation for  1 state vector...
----------------------------------------------------------------------------------
  CG solver: Constructing Y initial guess
  CG solver: Iteration    1    eps =    0.000033143912
  CG solver: Iteration    2    eps =    0.000002680670
  CG solver: Iteration    3    eps =    0.000000274806
  CG solver: Iteration    4    eps =    0.000000005206
  Convergence reached in CG solver after    4 iterations
  CG solver: Calculating converged R, Z, Q2 matrix
----------------------------------------------------------------------------------

----------------------------------------------------------------------------------
 Solving CP-REKS equation for SI between  1 and  2 state vectors...
----------------------------------------------------------------------------------
  CG solver: Constructing Y initial guess
  CG solver: Iteration    1    eps =    0.000444287183
  CG solver: Iteration    2    eps =    0.000288077104
  CG solver: Iteration    3    eps =    0.000093521755
  CG solver: Iteration    4    eps =    0.000001316380
  CG solver: Iteration    5    eps =    0.000000139824
  CG solver: Iteration    6    eps =    0.000000006066
  Convergence reached in CG solver after    6 iterations
  CG solver: Calculating converged R, Z, Q2 matrix
----------------------------------------------------------------------------------

--------------------------------------------------
 Gradient Information
--------------------------------------------------
           1 st state (SSR)
    -0.00038795     0.00129547    -0.01962660
     0.00281738     0.00366517     0.01823613
    -0.00146187    -0.00388859    -0.00205752
    -0.00241792     0.00182036     0.00325763
     0.00055695    -0.00573069     0.00134220
     0.00089341     0.00283828    -0.00115183

           2 st state (SSR)
    -0.00147495    -0.00286717     0.07615566
     0.00222890     0.00178619    -0.09721805
    -0.01507476     0.00296448     0.01740297
    -0.00906099    -0.00131451    -0.00688225
     0.00849400     0.00435095    -0.00696650
     0.01488780    -0.00491995     0.01750817
--------------------------------------------------
 Coupling Information
--------------------------------------------------
 between  1 and  2 states
--------------------------------------------------
 g vector - difference gradient
     0.00054042     0.00208306    -0.04792074
     0.00027767     0.00094207     0.05773997
     0.00680761    -0.00351621    -0.00973407
     0.00332679     0.00166284     0.00508555
    -0.00395846    -0.00514114     0.00415232
    -0.00699402     0.00396938    -0.00932302

 h vector - derivative coupling
     0.00020639    -0.00009845     0.00158184
     0.00109168    -0.00016228    -0.00040733
    -0.00002462     0.00586811     0.00017735
    -0.00031997    -0.00625949    -0.00098734
    -0.00069172     0.00655589     0.00016499
    -0.00026176    -0.00590378    -0.00052950

 G vector - GDV
     0.00054350     0.00208132    -0.04789113
     0.00029424     0.00093949     0.05772709
     0.00680645    -0.00342654    -0.00973025
     0.00332153     0.00156743     0.00506994
    -0.00396853    -0.00504082     0.00415435
    -0.00699719     0.00387911    -0.00933000

 H vector - DCV - non-adiabatic coupling
     0.00076482    -0.00050227     0.00891873
     0.00419700    -0.00068163    -0.00496228
    -0.00049474     0.02285421     0.00125600
    -0.00143025    -0.02425590    -0.00410920
    -0.00243725     0.02560408     0.00039296
    -0.00059958    -0.02301850    -0.00149620
--------------------------------------------------


--------------------------------------------------------------------------------
DFTB+ running times                          cpu [s]             wall clock [s]
--------------------------------------------------------------------------------
SCC                                    +     0.02  ( 69.7%)      0.03  ( 66.7%)
Post-SCC processing                    +     0.01  ( 25.9%)      0.01  ( 25.6%)
--------------------------------------------------------------------------------
Missing                                +     0.00  (  4.4%)      0.00  (  7.7%)
Total                                  =     0.03  (100.0%)      0.04  (100.0%)
--------------------------------------------------------------------------------
