     6
  Step:     0            Position(A)                                  Velocity(au)
C        -0.03446730     0.02960095     0.03556039     0.00002194     0.00006782    -0.00012669
N        -0.05361890    -0.07220556     1.28662759     0.00005589    -0.00000064     0.00016458
H         0.89677141     0.01951043    -0.51020254     0.00057093    -0.00013071    -0.00060388
H         0.88466812    -0.03032768     1.81406383    -0.00017061    -0.00028505    -0.00062412
H        -0.87031663    -0.00556516     1.83901833    -0.00115768     0.00000653     0.00035508
H        -0.96823879    -0.00272782    -0.55400750    -0.00028073    -0.00038996     0.00009548
     6
  Step:     1            Position(A)                                  Velocity(au)
C        -0.03436911     0.02999056     0.03445428     0.00001445     0.00007458    -0.00027681
N        -0.05323846    -0.07226413     1.28787175     0.00008173    -0.00002063     0.00028954
H         0.90032514     0.01891025    -0.51358616     0.00072019    -0.00008898    -0.00062793
H         0.88336873    -0.03178016     1.81047467    -0.00029922    -0.00024550    -0.00068379
H        -0.87730838    -0.00530764     1.84129269    -0.00138217     0.00008614     0.00046635
H        -0.96995817    -0.00476101    -0.55341807    -0.00034683    -0.00035359     0.00012028
     6
  Step:     2            Position(A)                                  Velocity(au)
C        -0.03430919     0.03041669     0.03253247     0.00000809     0.00008099    -0.00042476
N        -0.05272486    -0.07243119     1.28979476     0.00010420    -0.00004031     0.00041254
H         0.90464916     0.01853713    -0.51707111     0.00084886    -0.00004695    -0.00064068
H         0.88139514    -0.03301304     1.80658418    -0.00041551    -0.00020423    -0.00073208
H        -0.88543542    -0.00462294     1.84411947    -0.00156923     0.00016283     0.00055656
H        -0.97203257    -0.00659558    -0.55269186    -0.00040847    -0.00031648     0.00014475
     6
  Step:     3            Position(A)                                  Velocity(au)
C        -0.03428064     0.03087665     0.02980695     0.00000308     0.00008676    -0.00056990
N        -0.05209838    -0.07270516     1.29238545     0.00012254    -0.00005954     0.00053286
H         0.90961261     0.01839651    -0.52059597     0.00094912    -0.00000386    -0.00064208
H         0.87882262    -0.03401469     1.80246490    -0.00051604    -0.00016088    -0.00076420
H        -0.89447750    -0.00352611     1.84738214    -0.00171187     0.00023591     0.00062518
H        -0.97442728    -0.00822365    -0.55183433    -0.00046074    -0.00027746     0.00016722
     6
  Step:     4            Position(A)                                  Velocity(au)
C        -0.03427542     0.03136666     0.02629208    -0.00000044     0.00009188    -0.00071102
N        -0.05138311    -0.07308319     1.29562955     0.00013607    -0.00007783     0.00064928
H         0.91504188     0.01849483    -0.52410186     0.00101408     0.00003888    -0.00063299
H         0.87574457    -0.03477470     1.79821629    -0.00059707    -0.00011710    -0.00077531
H        -0.90418023    -0.00203976     1.85096516    -0.00180441     0.00030229     0.00067238
H        -0.97707763    -0.00963369    -0.55086079    -0.00049826    -0.00023727     0.00018583
     6
  Step:     5            Position(A)                                  Velocity(au)
C        -0.03428542     0.03188416     0.02200998    -0.00000258     0.00009663    -0.00084521
N        -0.05060627    -0.07355862     1.29950538     0.00014430    -0.00009430     0.00075927
H         0.92073284     0.01882291    -0.52753719     0.00104142     0.00007753    -0.00061477
H         0.87227525    -0.03529882     1.79396294    -0.00065416    -0.00007646    -0.00076189
H        -0.91426438    -0.00021125     1.85475537    -0.00184368     0.00035687     0.00069798
H        -0.97989110    -0.01082556    -0.54979650    -0.00051814    -0.00019889     0.00019913
     6
  Step:     6            Position(A)                                  Velocity(au)
C        -0.03430373     0.03242860     0.01700339    -0.00000358     0.00010113    -0.00096767
N        -0.04979726    -0.07411952     1.30397378     0.00014695    -0.00010816     0.00085881
H         0.92648679     0.01934687    -0.53085801     0.00103466     0.00010879    -0.00058859
H         0.86855549    -0.03561497     1.78984333    -0.00068235    -0.00004168    -0.00072261
H        -0.92444186     0.00188216     1.85863576    -0.00182962     0.00039593     0.00070117
H        -0.98277183    -0.01181948    -0.54867239    -0.00052205    -0.00016501     0.00020644
     6
  Step:     7            Position(A)                                  Velocity(au)
C        -0.03432487     0.03299884     0.01134444    -0.00000365     0.00010508    -0.00107314
N        -0.04898664    -0.07475078     1.30897111     0.00014392    -0.00011904     0.00094351
H         0.93213678     0.02002195    -0.53402464     0.00099982     0.00013200    -0.00055525
H         0.86475444    -0.03575823     1.78599837    -0.00067741    -0.00001285    -0.00065791
H        -0.93443035     0.00415262     1.86248363    -0.00176462     0.00041912     0.00068180
H        -0.98564508    -0.01264427    -0.54752111    -0.00051422    -0.00013602     0.00020753
     6
  Step:     8            Position(A)                                  Velocity(au)
C        -0.03434413     0.03359096     0.00513240    -0.00000293     0.00010798    -0.00115754
N        -0.04820523    -0.07543639     1.31441084     0.00013539    -0.00012690     0.00100994
H         0.93754678     0.02080707    -0.53700012     0.00094231     0.00014822    -0.00051546
H         0.86106205    -0.03575712     1.78256558    -0.00063721     0.00001144    -0.00056938
H        -0.94396200     0.00651843     1.86617781    -0.00165310     0.00042812     0.00064138
H        -0.98846008    -0.01332417    -0.54637669    -0.00049858    -0.00011088     0.00020225
     6
  Step:     9            Position(A)                                  Velocity(au)
C        -0.03435737     0.03419830    -0.00151386    -0.00000150     0.00010947    -0.00121866
N        -0.04748266    -0.07616048     1.32018982     0.00012186    -0.00013187     0.00105626
H         0.94260428     0.02166844    -0.53975052     0.00086692     0.00015878    -0.00047047
H         0.85767604    -0.03563114     1.77967353    -0.00056252     0.00003263    -0.00045992
H        -0.95279356     0.00890831     1.86960834    -0.00150185     0.00042509     0.00058317
H        -0.99118345    -0.01387591    -0.54527450    -0.00047808    -0.00008841     0.00019063
     6
  Step:    10            Position(A)                                  Velocity(au)
C        -0.03436091     0.03481246    -0.00846541     0.00000050     0.00010944    -0.00125654
N        -0.04684548    -0.07690780     1.32619662     0.00010416    -0.00013422     0.00108261
H         0.94721990     0.02257869    -0.54224966     0.00077866     0.00016486    -0.00042229
H         0.85478540    -0.03539308     1.77743375    -0.00045706     0.00005174    -0.00033383
H        -0.96071962     0.01126164     1.87268484    -0.00131997     0.00041235     0.00051170
H        -0.99379451    -0.01431066    -0.54424966    -0.00045509    -0.00006787     0.00017314
     6
  Step:    11            Position(A)                                  Velocity(au)
C        -0.03435174     0.03542470    -0.01559500     0.00000297     0.00010801    -0.00127366
N        -0.04631538    -0.07766453     1.33232180     0.00008338    -0.00013439     0.00109121
H         0.95133017     0.02351589    -0.54448281     0.00068286     0.00016756    -0.00037332
H         0.85255409    -0.03505136     1.77593250    -0.00032700     0.00006948    -0.00019635
H        -0.96758544     0.01352917     1.87534257    -0.00111811     0.00039235     0.00043215
H        -0.99628331    -0.01463644    -0.54333424    -0.00043177    -0.00004883     0.00015060
     6
  Step:    12            Position(A)                                  Velocity(au)
C        -0.03432751     0.03602717    -0.02278995     0.00000578     0.00010549    -0.00127448
N        -0.04590776    -0.07841923     1.33846923     0.00006069    -0.00013298     0.00108604
H         0.95489982     0.02446317    -0.54644835     0.00058465     0.00016791    -0.00032597
H         0.85110775    -0.03461163     1.77522547    -0.00017983     0.00008639    -0.00005277
H        -0.97329468     0.01567436     1.87754510    -0.00090688     0.00036767     0.00034955
H        -0.99865047    -0.01485981    -0.54255586    -0.00041012    -0.00003106     0.00012397
     6
  Step:    13            Position(A)                                  Velocity(au)
C        -0.03428663     0.03661395    -0.02996269     0.00000881     0.00010230    -0.00126441
N        -0.04563120    -0.07916364     1.34456511     0.00003719    -0.00013061     0.00107182
H         0.95792115     0.02540880    -0.54815758     0.00048834     0.00016687    -0.00028222
H         0.85052680    -0.03407748     1.77533761    -0.00002308     0.00010291     0.00009241
H        -0.97780901     0.01767406     1.87928319    -0.00069524     0.00034064     0.00026811
H        -1.00090675    -0.01498654    -0.54193672    -0.00039184    -0.00001434     0.00009413
     6
  Step:    14            Position(A)                                  Velocity(au)
C        -0.03422808     0.03718138    -0.03705545     0.00001200     0.00009879    -0.00124838
N        -0.04548816    -0.07989287     1.35056180     0.00001375    -0.00012784     0.00105284
H         0.96040946     0.02634585    -0.54963248     0.00039688     0.00016520    -0.00024342
H         0.85084738    -0.03345061     1.77626812     0.00013666     0.00011942     0.00023595
H        -0.98113864     0.01951762     1.88056998    -0.00048946     0.00031309     0.00019080
H        -1.00307135    -0.01502163    -0.54149382    -0.00037803     0.00000156     0.00006179
     6
  Step:    15            Position(A)                                  Velocity(au)
C        -0.03415136     0.03772782    -0.04403763     0.00002442     0.00015239    -0.00196850
N        -0.04547623    -0.08060495     1.35643541    -0.00001440    -0.00020009     0.00165202
H         0.96239577     0.02727137    -0.55090207     0.00049915     0.00026153    -0.00033652
H         0.85206755    -0.03273107     1.77799787     0.00047026     0.00021798     0.00060117
H        -0.98332751     0.02120407     1.88143432    -0.00046939     0.00045805     0.00019123
H        -1.00516890    -0.01496891    -0.54124009    -0.00059082     0.00002715     0.00004377
     6
  Step:    16            Position(A)                                  Velocity(au)
C        -0.03401021     0.03856340    -0.05467430     0.00002545     0.00014248    -0.00178704
N        -0.04561896    -0.08169567     1.36538704    -0.00003498    -0.00018505     0.00150832
H         0.96521853     0.02868748    -0.55302282     0.00049880     0.00023920    -0.00041095
H         0.85516684    -0.03152284     1.78175966     0.00061587     0.00020875     0.00072091
H        -0.98542917     0.02370360     1.88233180    -0.00028022     0.00042550     0.00013049
H        -1.00868771    -0.01489224    -0.54142663    -0.00065151     0.00000035    -0.00010608
     6
  Step:    17            Position(A)                                  Velocity(au)
C        -0.03386290     0.03934284    -0.06429446     0.00002653     0.00013266    -0.00161080
N        -0.04587280    -0.08270255     1.37353276    -0.00005335    -0.00017057     0.00136848
H         0.96804985     0.02998284    -0.55556036     0.00050111     0.00021893    -0.00048304
H         0.85904866    -0.03036481     1.78616965     0.00074349     0.00019997     0.00082851
H        -0.98650394     0.02602727     1.88291353    -0.00010781     0.00039619     0.00007994
H        -1.01255397    -0.01496491    -0.54244253    -0.00071159    -0.00002559    -0.00024793
     6
  Step:    18            Position(A)                                  Velocity(au)
C        -0.03370946     0.04006715    -0.07293263     0.00002765     0.00012349    -0.00144601
N        -0.04622366    -0.08362905     1.38089866    -0.00006926    -0.00015725     0.00123781
H         0.97089863     0.03116909    -0.55849803     0.00050566     0.00020137    -0.00055352
H         0.86359426    -0.02925623     1.79115084     0.00085072     0.00019165     0.00092453
H        -0.98665124     0.02819435     1.88323793     0.00004661     0.00037162     0.00003986
H        -1.01675356    -0.01518228    -0.54423692    -0.00077005    -0.00005091    -0.00038129
     6
  Step:    19            Position(A)                                  Velocity(au)
C        -0.03355001     0.04074011    -0.08065633     0.00002873     0.00011503    -0.00129337
N        -0.04665645    -0.08448182     1.38753887    -0.00008251    -0.00014513     0.00111695
H         0.97377152     0.03226136    -0.56182351     0.00051088     0.00018648    -0.00062230
H         0.86867472    -0.02819620     1.79663095     0.00093491     0.00018332     0.00100839
H        -0.98597659     0.03023228     1.88336453     0.00018299     0.00035211     0.00001006
H        -1.02126724    -0.01554091    -0.54675690    -0.00082463    -0.00007585    -0.00050590
     6
  Step:    20            Position(A)                                  Velocity(au)
C        -0.03338503     0.04136595    -0.08753589     0.00002969     0.00010722    -0.00115154
N        -0.04715523    -0.08526766     1.39351004    -0.00009288    -0.00013405     0.00100476
H         0.97666693     0.03327461    -0.56552431     0.00051479     0.00017401    -0.00068866
H         0.87415021    -0.02718635     1.80253646     0.00099347     0.00017433     0.00107885
H        -0.98458510     0.03217003     1.88335150     0.00030124     0.00033749    -0.00000968
H        -1.02606429    -0.01603875    -0.54994901    -0.00087249    -0.00010059    -0.00062121
     6
  Step:    21            Position(A)                                  Velocity(au)
C        -0.03321546     0.04194835    -0.09363348     0.00003043     0.00009992    -0.00101902
N        -0.04770319    -0.08599244     1.39886189    -0.00010021    -0.00012383     0.00089993
H         0.97957284     0.03422238    -0.56958430     0.00051549     0.00016370    -0.00075169
H         0.87987042    -0.02623167     1.80878887     0.00102453     0.00016409     0.00113475
H        -0.98258178     0.03403557     1.88325542     0.00040102     0.00032752    -0.00001956
H        -1.03109963    -0.01667453    -0.55375752    -0.00091096    -0.00012518    -0.00072646
     6
  Step:    22            Position(A)                                  Velocity(au)
C        -0.03304267     0.04249031    -0.09900240     0.00003089     0.00009306    -0.00089472
N        -0.04828289    -0.08666102     1.40363639    -0.00010441    -0.00011434     0.00080146
H         0.98246746     0.03511669    -0.57398260     0.00051146     0.00015534    -0.00081053
H         0.88567871    -0.02533997     1.81530514     0.00102745     0.00015221     0.00117548
H        -0.98007269     0.03585543     1.88313145     0.00048196     0.00032204    -0.00001979
H        -1.03631485    -0.01744729    -0.55812342    -0.00093793    -0.00014961    -0.00082100
     6
  Step:    23            Position(A)                                  Velocity(au)
C        -0.03286832     0.04299432    -0.10368951     0.00003103     0.00008659    -0.00077794
N        -0.04887671    -0.08727752     1.40786972    -0.00010549    -0.00010550     0.00070871
H         0.98532128     0.03596829    -0.57869407     0.00050157     0.00014875    -0.00086458
H         0.89141820    -0.02452098     1.82200046     0.00100275     0.00013846     0.00120110
H        -0.97716491     0.03765507     1.88303304     0.00054395     0.00032094    -0.00001069
H        -1.04164135    -0.01835600    -0.56298498    -0.00095198    -0.00017385    -0.00090447
     6
  Step:    24            Position(A)                                  Velocity(au)
C        -0.03269430     0.04346255    -0.10773740     0.00003082     0.00008046    -0.00066820
N        -0.04946741    -0.08784560     1.41159414    -0.00010357    -0.00009726     0.00062125
H         0.98809934     0.03678691    -0.58369053     0.00048510     0.00014378    -0.00091348
H         0.89693798    -0.02378527     1.82879160     0.00095202     0.00012280     0.00121223
H        -0.97396499     0.03945911     1.88301140     0.00058724     0.00032412     0.00000727
H        -1.04700412    -0.01939940    -0.56827918    -0.00095236    -0.00019788    -0.00097681
     6
  Step:    25            Position(A)                                  Velocity(au)
C        -0.03252254     0.04389698    -0.11118577     0.00003027     0.00007466    -0.00056513
N        -0.05003863    -0.08836864     1.41483924    -0.00009884    -0.00008959     0.00053870
H         0.99076343     0.03758126    -0.58894211     0.00046164     0.00014025    -0.00095708
H         0.90209849    -0.02314338     1.83560003     0.00087761     0.00010529     0.00120995
H        -0.97057694     0.04129128     1.88311462     0.00061246     0.00033144     0.00003350
H        -1.05232552    -0.02057590    -0.57394345    -0.00093890    -0.00022162    -0.00103828
     6
  Step:    26            Position(A)                                  Velocity(au)
C        -0.03235495     0.04429946    -0.11407197     0.00002939     0.00006918    -0.00046836
N        -0.05057533    -0.08884986     1.41763248    -0.00009156    -0.00008248     0.00046076
H         0.99327383     0.03835900    -0.59441841     0.00043105     0.00013799    -0.00099536
H         0.90677513    -0.02260508     1.84235395     0.00078234     0.00008612     0.00119556
H        -0.96709992     0.04317422     1.88338695     0.00062066     0.00034269     0.00006727
H        -1.05752833    -0.02188350    -0.57991730    -0.00091190    -0.00024500    -0.00108936
     6
  Step:    27            Position(A)                                  Velocity(au)
C        -0.03219338     0.04467175    -0.11643107     0.00002819     0.00006399    -0.00037749
N        -0.05106403    -0.08929231     1.41999942    -0.00008202    -0.00007588     0.00038709
H         0.99559083     0.03912663    -0.60008939     0.00039341     0.00013678    -0.00102847
H         0.91086008    -0.02217886     1.84898942     0.00066925     0.00006556     0.00117052
H        -0.96362602     0.04512913     1.88386795     0.00061324     0.00035759     0.00010768
H        -1.06253813    -0.02331975    -0.58614348    -0.00087197    -0.00026795    -0.00113070
     6
  Step:    28            Position(A)                                  Velocity(au)
C        -0.03203954     0.04501549    -0.11829575     0.00002669     0.00005908    -0.00029208
N        -0.05149308    -0.08969891     1.42196367    -0.00007056    -0.00006978     0.00031734
H         0.99767572     0.03988938    -0.60592595     0.00034896     0.00013638    -0.00105658
H         0.91426340    -0.02187154     1.85545092     0.00054149     0.00004390     0.00113629
H        -0.96023837     0.04717533     1.88459183     0.00059191     0.00037579     0.00015375
H        -1.06728484    -0.02488164    -0.59256867    -0.00081994    -0.00029037    -0.00116299
     6
  Step:    29            Position(A)                                  Velocity(au)
C        -0.03189501     0.04533223    -0.11969607     0.00002493     0.00005443    -0.00021164
N        -0.05185274    -0.09007238     1.42354685    -0.00005751    -0.00006414     0.00025116
H         0.99949167     0.04065118    -0.61190029     0.00029805     0.00013657    -0.00107991
H         0.91691315    -0.02168813     1.86169138     0.00040221     0.00002147     0.00109432
H        -0.95700938     0.04932986     1.88558668     0.00055868     0.00039684     0.00020434
H        -1.07170383    -0.02656563    -0.59914394    -0.00075679    -0.00031215    -0.00118699
     6
  Step:    30            Position(A)                                  Velocity(au)
C        -0.03176118     0.04562339    -0.12065933     0.00002291     0.00005002    -0.00013571
N        -0.05213532    -0.09041523     1.42476854    -0.00004324    -0.00005892     0.00018818
H         1.00100421     0.04141461    -0.61798603     0.00024109     0.00013712    -0.00109867
H         0.91875513    -0.02163174     1.86767194     0.00025445    -0.00000139     0.00104598
H        -0.95399922     0.05160715     1.88687381     0.00051581     0.00042026     0.00025817
H        -1.07573639    -0.02836765    -0.60582463    -0.00068349    -0.00033320    -0.00120338
     6
  Step:    31            Position(A)                                  Velocity(au)
C        -0.03163937     0.04589025    -0.12121014     0.00002067     0.00004581    -0.00006380
N        -0.05233517    -0.09072972     1.42564634    -0.00002812    -0.00005407     0.00012807
H         1.00218152     0.04218106    -0.62415810     0.00017857     0.00013782    -0.00111305
H         0.91975202    -0.02170367     1.87336133     0.00010113    -0.00002439     0.00099255
H        -0.95125455     0.05401864     1.88846708     0.00046575     0.00044547     0.00031388
H        -1.07932950    -0.03028311    -0.61257003    -0.00060103    -0.00035341    -0.00121279
     6
  Step:    32            Position(A)                                  Velocity(au)
C        -0.03153075     0.04613399    -0.12137053     0.00001823     0.00004179     0.00000449
N        -0.05244875    -0.09101787     1.42619606    -0.00001252    -0.00004954     0.00007054
H         1.00299459     0.04295081    -0.63039260     0.00011097     0.00013848    -0.00112319
H         0.91988242    -0.02190359     1.87873534    -0.00005496    -0.00004723     0.00093521
H        -0.94880770     0.05657258     1.89037241     0.00041111     0.00047189     0.00036998
H        -1.08243578    -0.03230696    -0.61934296    -0.00051040    -0.00037271    -0.00121576
     6
  Step:    33            Position(A)                                  Velocity(au)
C        -0.03143636     0.04635565    -0.12116018     0.00001560     0.00003794     0.00006954
N        -0.05247457    -0.09128138     1.42643195     0.00000320    -0.00004528     0.00001535
H         1.00341735     0.04372320    -0.63666648     0.00003885     0.00013894    -0.00112919
H         0.91914000    -0.02222969     1.88377625    -0.00021116    -0.00006968     0.00087505
H        -0.94667626     0.05927387     1.89258736     0.00035450     0.00049890     0.00042495
H        -1.08501351    -0.03443381    -0.62610934    -0.00041255    -0.00039102    -0.00121276
     6
  Step:    34            Position(A)                                  Velocity(au)
C        -0.03135715     0.04655617    -0.12059673     0.00001280     0.00003424     0.00013168
N        -0.05241314    -0.09152170     1.42636685     0.00001867    -0.00004124    -0.00003772
H         1.00342688     0.04449678    -0.64295736    -0.00003721     0.00013907    -0.00113110
H         0.91753276    -0.02267891     1.88847227    -0.00036492    -0.00009150     0.00081312
H        -0.94486307     0.06212391     1.89510090     0.00029854     0.00052584     0.00047721
H        -1.08702634    -0.03665798    -0.63283768    -0.00030845    -0.00040829    -0.00120418
     6
  Step:    35            Position(A)                                  Velocity(au)
C        -0.03129398     0.04673639    -0.11969607     0.00000986     0.00003068     0.00019115
N        -0.05226695    -0.09173996     1.42601257     0.00003355    -0.00003738    -0.00008881
H         1.00300357     0.04526950    -0.64924316    -0.00011660     0.00013878    -0.00112894
H         0.91508246    -0.02324710     1.89281725    -0.00051373    -0.00011252     0.00075038
H        -0.94335675     0.06512062     1.89789346     0.00024572     0.00055207     0.00052522
H        -1.08844319    -0.03897353    -0.63949856    -0.00019905    -0.00042444    -0.00119031
     6
  Step:    36            Position(A)                                  Velocity(au)
C        -0.03124762     0.04689706    -0.11847271     0.00000678     0.00002724     0.00024814
N        -0.05204035    -0.09193704     1.42538004     0.00004750    -0.00003364    -0.00013803
H         1.00213126     0.04603884    -0.65550194    -0.00019864     0.00013798    -0.00112266
H         0.91182430    -0.02392921     1.89681037    -0.00065511    -0.00013256     0.00068780
H        -0.94213270     0.06825841     1.90093708     0.00019829     0.00057695     0.00056748
H        -1.08923813    -0.04137432    -0.64606425    -0.00008530    -0.00043944    -0.00117139
     6
  Step:    37            Position(A)                                  Velocity(au)
C        -0.03121873     0.04703888    -0.11694017     0.00000358     0.00002391     0.00030277
N        -0.05173946    -0.09211355     1.42447960     0.00006020    -0.00002998    -0.00018544
H         1.00079749     0.04680193    -0.66171163    -0.00028261     0.00013663    -0.00111223
H         0.90780665    -0.02471935     1.90045606    -0.00078666    -0.00015148     0.00062633
H        -0.94115447     0.07152831     1.90419594     0.00015827     0.00059987     0.00060259
H        -1.08939049    -0.04385403    -0.65250825     0.00003182    -0.00045324    -0.00114761
     6
  Step:    38            Position(A)                                  Velocity(au)
C        -0.03120790     0.04716247    -0.11511133     0.00000028     0.00002068     0.00035509
N        -0.05137202    -0.09226988     1.42332128     0.00007137    -0.00002637    -0.00023106
H         0.99899374     0.04755570    -0.66784991    -0.00036775     0.00013469    -0.00109757
H         0.90309077    -0.02561096     1.90376386    -0.00090600    -0.00016915     0.00056691
H        -0.94037563     0.07491812     1.90762706     0.00012726     0.00062024     0.00062934
H        -1.08888483    -0.04640615    -0.65880502     0.00015130    -0.00046578    -0.00111911
     6
  Step:    39            Position(A)                                  Velocity(au)
C        -0.03121561     0.04726845    -0.11299880    -0.00000309     0.00001756     0.00040509
N        -0.05094724    -0.09240624     1.42191495     0.00008077    -0.00002278    -0.00027486
H         0.99671568     0.04829692    -0.67389410    -0.00045323     0.00013214    -0.00107861
H         0.89775048    -0.02659682     1.90674846    -0.00101085    -0.00018545     0.00051048
H        -0.93974195     0.07841271     1.91118125     0.00010649     0.00063757     0.00064668
H        -1.08771114    -0.04902395    -0.66492977     0.00027207    -0.00047702    -0.00108601
     6
  Step:    40            Position(A)                                  Velocity(au)
C        -0.03124223     0.04735740    -0.11061534    -0.00000652     0.00001455     0.00045268
N        -0.05047559    -0.09252267     1.42027063     0.00008817    -0.00001918    -0.00031678
H         0.99396347     0.04902233    -0.67982120    -0.00053818     0.00012900    -0.00105533
H         0.89187160    -0.02766919     1.90942954    -0.00109908    -0.00020028     0.00045795
H        -0.93919378     0.08199435     1.91480438     0.00009670     0.00065140     0.00065384
H        -1.08586518    -0.05170051    -0.67085837     0.00039302    -0.00048692    -0.00104846
     6
  Step:    41            Position(A)                                  Velocity(au)
C        -0.03128802     0.04742994    -0.10797415    -0.00000998     0.00001165     0.00049773
N        -0.04996854    -0.09261914     1.41839869     0.00009343    -0.00001557    -0.00035672
H         0.99074199     0.04972874    -0.68560803    -0.00062168     0.00012526    -0.00102770
H         0.88555087    -0.02881989     1.91183162    -0.00116882    -0.00021357     0.00041018
H        -0.93866859     0.08564318     1.91843871     0.00009819     0.00066141     0.00065031
H        -1.08334873    -0.05442873    -0.67656745     0.00051296    -0.00049545    -0.00100662
     6
  Step:    42            Position(A)                                  Velocity(au)
C        -0.03135306     0.04748672    -0.10508923    -0.00001344     0.00000887     0.00054006
N        -0.04943830    -0.09269557     1.41631007     0.00009643    -0.00001195    -0.00039455
H         0.98706114     0.05041306    -0.69123141    -0.00070279     0.00012097    -0.00099579
H         0.87889457    -0.03004043     1.91398368    -0.00121853    -0.00022528     0.00036795
H        -0.93810364     0.08933772     1.92202451     0.00011076     0.00066734     0.00063589
H        -1.08017000    -0.05720138    -0.68203459     0.00063066    -0.00050259    -0.00096074
     6
  Step:    43            Position(A)                                  Velocity(au)
C        -0.03143728     0.04752843    -0.10197553    -0.00001686     0.00000622     0.00057949
N        -0.04889746    -0.09275189     1.41401637     0.00009715    -0.00000832    -0.00043011
H         0.98293587     0.05107242    -0.69666848    -0.00078058     0.00011618    -0.00095971
H         0.87201634    -0.03132214     1.91591857    -0.00124715    -0.00023539     0.00033188
H        -0.93743840     0.09305550     1.92550170     0.00013378     0.00066910     0.00061070
H        -1.07634382    -0.06001114    -0.68723858     0.00074488    -0.00050834    -0.00091108
     6
  Step:    44            Position(A)                                  Velocity(au)
C        -0.03154042     0.04755588    -0.09864912    -0.00002021     0.00000373     0.00061580
N        -0.04835868    -0.09278809     1.41153003     0.00009560    -0.00000471    -0.00046327
H         0.97838625     0.05170421    -0.70189711    -0.00085411     0.00011094    -0.00091968
H         0.86503444    -0.03265643     1.91767203    -0.00125419    -0.00024394     0.00030240
H        -0.93661685     0.09677368     1.92881149     0.00016626     0.00066669     0.00057516
H        -1.07189182    -0.06285077    -0.69215981     0.00085437    -0.00051272    -0.00085802
     6