 Fermi distribution function

Calculation with static geometry


********************************************************************************
 iSCC Total electronic   Diff electronic      SCC error    
   10   -0.53976014E+01   -0.96544994E-12    0.78225479E-07
********************************************************************************

 Total charge:     1.00000000

 Atomic gross charges (e)
 Atom           Charge
    1       0.15971272
    2      -0.05346130
    3       0.14615822
    4       0.27227908
    5       0.27863145
    6       0.19667984

Nr. of electrons (up):     12.00000000
Atom populations (up)
 Atom       Population
    1       3.84028728
    2       5.05346130
    3       0.85384178
    4       0.72772092
    5       0.72136855
    6       0.80332016

l-shell populations (up)
 Atom Sh.   l       Population
    1   1   0       1.32443573
    1   2   1       2.51585155
    2   1   0       1.43046238
    2   2   1       3.62299892
    3   1   0       0.85384178
    4   1   0       0.72772092
    5   1   0       0.72136855
    6   1   0       0.80332016

Orbital populations (up)
 Atom Sh.   l   m       Population  Label
    1   1   0   0       1.32443573  s
    1   2   1  -1       0.60410622  p_y
    1   2   1   0       0.87171231  p_z
    1   2   1   1       1.04003302  p_x
    2   1   0   0       1.43046238  s
    2   2   1  -1       1.33509042  p_y
    2   2   1   0       1.09760107  p_z
    2   2   1   1       1.19030743  p_x
    3   1   0   0       0.85384178  s
    4   1   0   0       0.72772092  s
    5   1   0   0       0.72136855  s
    6   1   0   0       0.80332016  s

Fermi level:                        -0.4970111898 H          -13.5244 eV
Band energy:                        -8.9149005240 H         -242.5868 eV
TS:                                  0.0000000000 H            0.0000 eV
Band free energy (E-TS):            -8.9149005240 H         -242.5868 eV
Extrapolated E(0K):                 -8.9149005240 H         -242.5868 eV
Input / Output electrons (q):     12.0000000000     12.0000000000

Energy H0:                          -5.5309569591 H         -150.5050 eV
Energy SCC:                          0.1333556048 H            3.6288 eV
Total Electronic energy:            -5.3976013544 H         -146.8762 eV
Repulsive energy:                    0.1841114175 H            5.0099 eV
Total energy:                       -5.2134899368 H         -141.8663 eV
Extrapolated to 0:                  -5.2134899368 H         -141.8663 eV
Total Mermin free energy:           -5.2134899368 H         -141.8663 eV
Force related energy:               -5.2134899368 H         -141.8663 eV

SCC converged

Excitation Energy:                   0.1299535053 H            3.5362 eV

Total Forces
    1     -0.005171667295      0.010637718226      0.041587614872
    2     -0.019385490165     -0.009072758597     -0.049328088477
    3     -0.002377178755     -0.007052356388      0.001154471354
    4      0.003017293651      0.006889226823      0.006527394857
    5      0.015783553357     -0.002746606607     -0.000386825553
    6      0.008133489206      0.001344776543      0.000445432947

Maximal derivative component:        0.493281E-01 au


