 Fermi distribution function

Calculation with static geometry


********************************************************************************
 iSCC Total electronic   Diff electronic      SCC error    
    9   -0.53879969E+01   -0.28981262E-11    0.68998371E-06
********************************************************************************

 Total charge:     1.00000000

 Atomic gross charges (e)
 Atom           Charge
    1       0.15090161
    2      -0.04365797
    3       0.20354444
    4       0.27797476
    5       0.26795916
    6       0.14327801

Nr. of electrons (up):     12.00000000
Atom populations (up)
 Atom       Population
    1       3.84909839
    2       5.04365797
    3       0.79645556
    4       0.72202524
    5       0.73204084
    6       0.85672199

l-shell populations (up)
 Atom Sh.   l       Population
    1   1   0       1.32919946
    1   2   1       2.51989893
    2   1   0       1.44395126
    2   2   1       3.59970672
    3   1   0       0.79645556
    4   1   0       0.72202524
    5   1   0       0.73204084
    6   1   0       0.85672199

Orbital populations (up)
 Atom Sh.   l   m       Population  Label
    1   1   0   0       1.32919946  s
    1   2   1  -1       0.58934115  p_y
    1   2   1   0       0.87611046  p_z
    1   2   1   1       1.05444732  p_x
    2   1   0   0       1.44395126  s
    2   2   1  -1       1.29921231  p_y
    2   2   1   0       1.10858364  p_z
    2   2   1   1       1.19191077  p_x
    3   1   0   0       0.79645556  s
    4   1   0   0       0.72202524  s
    5   1   0   0       0.73204084  s
    6   1   0   0       0.85672199  s

Fermi level:                        -0.5013448592 H          -13.6423 eV
Band energy:                        -8.9142068456 H         -242.5679 eV
TS:                                  0.0000000000 H            0.0000 eV
Band free energy (E-TS):            -8.9142068456 H         -242.5679 eV
Extrapolated E(0K):                 -8.9142068456 H         -242.5679 eV
Input / Output electrons (q):     12.0000000000     12.0000000000

Energy H0:                          -5.5218666655 H         -150.2576 eV
Energy SCC:                          0.1338697677 H            3.6428 eV
Total Electronic energy:            -5.3879968978 H         -146.6149 eV
Repulsive energy:                    0.1792365427 H            4.8773 eV
Total energy:                       -5.2087603551 H         -141.7376 eV
Extrapolated to 0:                  -5.2087603551 H         -141.7376 eV
Total Mermin free energy:           -5.2087603551 H         -141.7376 eV
Force related energy:               -5.2087603551 H         -141.7376 eV

SCC converged

Excitation Energy:                   0.1271842946 H            3.4609 eV

Total Forces
    1      0.001546571381     -0.016353289846      0.045015336848
    2     -0.001774980483      0.015405239717     -0.035095521026
    3     -0.003605247004     -0.002705281620     -0.003117617073
    4     -0.009018315926      0.001894931255      0.002600508153
    5      0.014172812833     -0.004544153801     -0.007139000749
    6     -0.001320840800      0.006302554294     -0.002263706153

Maximal derivative component:        0.450153E-01 au


