 Fermi distribution function

Calculation with static geometry


********************************************************************************
 iSCC Total electronic   Diff electronic      SCC error    
   10   -0.53923961E+01   -0.91571195E-12    0.26370936E-06
********************************************************************************

 Total charge:     1.00000000

 Atomic gross charges (e)
 Atom           Charge
    1       0.17610204
    2      -0.07721370
    3       0.13896202
    4       0.28062163
    5       0.27953769
    6       0.20199032

Nr. of electrons (up):     12.00000000
Atom populations (up)
 Atom       Population
    1       3.82389796
    2       5.07721370
    3       0.86103798
    4       0.71937837
    5       0.72046231
    6       0.79800968

l-shell populations (up)
 Atom Sh.   l       Population
    1   1   0       1.31920765
    1   2   1       2.50469031
    2   1   0       1.42303394
    2   2   1       3.65417976
    3   1   0       0.86103798
    4   1   0       0.71937837
    5   1   0       0.72046231
    6   1   0       0.79800968

Orbital populations (up)
 Atom Sh.   l   m       Population  Label
    1   1   0   0       1.31920765  s
    1   2   1  -1       0.60367075  p_y
    1   2   1   0       0.87934425  p_z
    1   2   1   1       1.02167531  p_x
    2   1   0   0       1.42303394  s
    2   2   1  -1       1.34155936  p_y
    2   2   1   0       1.09564275  p_z
    2   2   1   1       1.21697766  p_x
    3   1   0   0       0.86103798  s
    4   1   0   0       0.71937837  s
    5   1   0   0       0.72046231  s
    6   1   0   0       0.79800968  s

Fermi level:                        -0.4931150157 H          -13.4183 eV
Band energy:                        -8.8977803121 H         -242.1209 eV
TS:                                  0.0000000000 H            0.0000 eV
Band free energy (E-TS):            -8.8977803121 H         -242.1209 eV
Extrapolated E(0K):                 -8.8977803121 H         -242.1209 eV
Input / Output electrons (q):     12.0000000000     12.0000000000

Energy H0:                          -5.5253465090 H         -150.3523 eV
Energy SCC:                          0.1329503700 H            3.6178 eV
Total Electronic energy:            -5.3923961390 H         -146.7346 eV
Repulsive energy:                    0.1870674920 H            5.0904 eV
Total energy:                       -5.2053286470 H         -141.6442 eV
Extrapolated to 0:                  -5.2053286470 H         -141.6442 eV
Total Mermin free energy:           -5.2053286470 H         -141.6442 eV
Force related energy:               -5.2053286470 H         -141.6442 eV

SCC converged

Excitation Energy:                   0.1151548495 H            3.1335 eV

Total Forces
    1     -0.003769134817      0.016051640467      0.035337148255
    2      0.001992589913     -0.003570485154     -0.042993075639
    3     -0.004340152353     -0.009395924244      0.001747363392
    4     -0.010034075424      0.005470149509     -0.000569081157
    5      0.006932198034     -0.007844009788      0.005966885984
    6      0.009218574646     -0.000711370790      0.000510759165

Maximal derivative component:        0.429931E-01 au


