 Fermi distribution function

Calculation with static geometry


********************************************************************************
 iSCC Total electronic   Diff electronic      SCC error    
   10   -0.54090756E+01   -0.59152683E-12    0.22374344E-06
********************************************************************************

 Total charge:     1.00000000

 Atomic gross charges (e)
 Atom           Charge
    1       0.18698029
    2      -0.07719884
    3       0.14985179
    4       0.27357144
    5       0.28156922
    6       0.18522611

Nr. of electrons (up):     12.00000000
Atom populations (up)
 Atom       Population
    1       3.81301971
    2       5.07719884
    3       0.85014821
    4       0.72642856
    5       0.71843078
    6       0.81477389

l-shell populations (up)
 Atom Sh.   l       Population
    1   1   0       1.31928712
    1   2   1       2.49373260
    2   1   0       1.42746804
    2   2   1       3.64973080
    3   1   0       0.85014821
    4   1   0       0.72642856
    5   1   0       0.71843078
    6   1   0       0.81477389

Orbital populations (up)
 Atom Sh.   l   m       Population  Label
    1   1   0   0       1.31928712  s
    1   2   1  -1       0.58098720  p_y
    1   2   1   0       0.87900043  p_z
    1   2   1   1       1.03374497  p_x
    2   1   0   0       1.42746804  s
    2   2   1  -1       1.32918885  p_y
    2   2   1   0       1.09911337  p_z
    2   2   1   1       1.22142858  p_x
    3   1   0   0       0.85014821  s
    4   1   0   0       0.72642856  s
    5   1   0   0       0.71843078  s
    6   1   0   0       0.81477389  s

Fermi level:                        -0.4934037038 H          -13.4262 eV
Band energy:                        -8.9126263047 H         -242.5249 eV
TS:                                  0.0000000000 H            0.0000 eV
Band free energy (E-TS):            -8.9126263047 H         -242.5249 eV
Extrapolated E(0K):                 -8.9126263047 H         -242.5249 eV
Input / Output electrons (q):     12.0000000000     12.0000000000

Energy H0:                          -5.5418241083 H         -150.8007 eV
Energy SCC:                          0.1327485039 H            3.6123 eV
Total Electronic energy:            -5.4090756045 H         -147.1884 eV
Repulsive energy:                    0.1854420687 H            5.0461 eV
Total energy:                       -5.2236335358 H         -142.1423 eV
Extrapolated to 0:                  -5.2236335358 H         -142.1423 eV
Total Mermin free energy:           -5.2236335358 H         -142.1423 eV
Force related energy:               -5.2236335358 H         -142.1423 eV

SCC converged

Excitation Energy:                   0.1391702744 H            3.7870 eV

Total Forces
    1     -0.009637779992     -0.008125439702      0.041557538063
    2     -0.012683246553      0.013250133178     -0.051959923461
    3     -0.001621416848      0.006275430086      0.000602088029
    4     -0.001043184897     -0.009096556286      0.005519059353
    5      0.014079765604      0.003293228382      0.002769776077
    6      0.010905862686     -0.005596795659      0.001511461938

Maximal derivative component:        0.519599E-01 au


