 Fermi distribution function

Calculation with static geometry


********************************************************************************
 iSCC Total electronic   Diff electronic      SCC error    
    9   -0.54554590E+01   -0.20339286E-11    0.40336372E-06
********************************************************************************

 Total charge:     1.00000000

 Atomic gross charges (e)
 Atom           Charge
    1       0.21198591
    2      -0.09057418
    3       0.16064632
    4       0.28220357
    5       0.28721157
    6       0.14852682

Nr. of electrons (up):     12.00000000
Atom populations (up)
 Atom       Population
    1       3.78801409
    2       5.09057418
    3       0.83935368
    4       0.71779643
    5       0.71278843
    6       0.85147318

l-shell populations (up)
 Atom Sh.   l       Population
    1   1   0       1.26802588
    1   2   1       2.51998821
    2   1   0       1.39457723
    2   2   1       3.69599695
    3   1   0       0.83935368
    4   1   0       0.71779643
    5   1   0       0.71278843
    6   1   0       0.85147318

Orbital populations (up)
 Atom Sh.   l   m       Population  Label
    1   1   0   0       1.26802588  s
    1   2   1  -1       0.59093736  p_y
    1   2   1   0       0.89436623  p_z
    1   2   1   1       1.03468461  p_x
    2   1   0   0       1.39457723  s
    2   2   1  -1       1.32652655  p_y
    2   2   1   0       1.08518717  p_z
    2   2   1   1       1.28428323  p_x
    3   1   0   0       0.83935368  s
    4   1   0   0       0.71779643  s
    5   1   0   0       0.71278843  s
    6   1   0   0       0.85147318  s

Fermi level:                        -0.4753601910 H          -12.9352 eV
Band energy:                        -8.9775682019 H         -244.2921 eV
TS:                                  0.0000000000 H            0.0000 eV
Band free energy (E-TS):            -8.9775682019 H         -244.2921 eV
Extrapolated E(0K):                 -8.9775682019 H         -244.2921 eV
Input / Output electrons (q):     12.0000000000     12.0000000000

Energy H0:                          -5.5887663001 H         -152.0781 eV
Energy SCC:                          0.1333072758 H            3.6275 eV
Total Electronic energy:            -5.4554590243 H         -148.4506 eV
Repulsive energy:                    0.2319771254 H            6.3124 eV
Total energy:                       -5.2234818990 H         -142.1382 eV
Extrapolated to 0:                  -5.2234818990 H         -142.1382 eV
Total Mermin free energy:           -5.2234818990 H         -142.1382 eV
Force related energy:               -5.2234818990 H         -142.1382 eV

SCC converged

Excitation Energy:                   0.1311212668 H            3.5680 eV

Total Forces
    1      0.006517256712      0.000689409066     -0.062655874780
    2     -0.010048481578      0.003869084765      0.057010834034
    3     -0.000672091135      0.015469808315      0.002658925498
    4     -0.006925401325     -0.012583825761      0.001915779845
    5      0.013629842547      0.007498074787     -0.001195139420
    6     -0.002501125222     -0.014942551172      0.002265474823

Maximal derivative component:        0.626559E-01 au


