 Fermi distribution function

Calculation with static geometry


********************************************************************************
 iSCC Total electronic   Diff electronic      SCC error    
   13   -0.52794599E+01   -0.19402258E-10    0.60436434E-08
********************************************************************************

 Total charge:     1.00000000

 Atomic gross charges (e)
 Atom           Charge
    1       0.28211864
    2      -0.19221853
    3       0.18085829
    4       0.27010505
    5       0.27595309
    6       0.18318346

Nr. of electrons (up):     12.00000000
Atom populations (up)
 Atom       Population
    1       3.71788136
    2       5.19221853
    3       0.81914171
    4       0.72989495
    5       0.72404691
    6       0.81681654

l-shell populations (up)
 Atom Sh.   l       Population
    1   1   0       1.40401564
    1   2   1       2.31386572
    2   1   0       1.50906608
    2   2   1       3.68315245
    3   1   0       0.81914171
    4   1   0       0.72989495
    5   1   0       0.72404691
    6   1   0       0.81681654

Orbital populations (up)
 Atom Sh.   l   m       Population  Label
    1   1   0   0       1.40401564  s
    1   2   1  -1       0.46708955  p_y
    1   2   1   0       0.84113403  p_z
    1   2   1   1       1.00564214  p_x
    2   1   0   0       1.50906608  s
    2   2   1  -1       1.42607539  p_y
    2   2   1   0       1.05241608  p_z
    2   2   1   1       1.20466098  p_x
    3   1   0   0       0.81914171  s
    4   1   0   0       0.72989495  s
    5   1   0   0       0.72404691  s
    6   1   0   0       0.81681654  s

Fermi level:                        -0.5029708470 H          -13.6865 eV
Band energy:                        -8.6167812833 H         -234.4745 eV
TS:                                  0.0000000000 H            0.0000 eV
Band free energy (E-TS):            -8.6167812833 H         -234.4745 eV
Extrapolated E(0K):                 -8.6167812833 H         -234.4745 eV
Input / Output electrons (q):     12.0000000000     12.0000000000

Energy H0:                          -5.4109016100 H         -147.2381 eV
Energy SCC:                          0.1314416697 H            3.5767 eV
Total Electronic energy:            -5.2794599403 H         -143.6614 eV
Repulsive energy:                    0.1304531787 H            3.5498 eV
Total energy:                       -5.1490067616 H         -140.1116 eV
Extrapolated to 0:                  -5.1490067616 H         -140.1116 eV
Total Mermin free energy:           -5.1490067616 H         -140.1116 eV
Force related energy:               -5.1490067616 H         -140.1116 eV

SCC converged

Excitation Energy:                   0.1178112314 H            3.2058 eV

Total Forces
    1      0.014094846316     -0.002837788137      0.046094119107
    2     -0.014665020711      0.008274157774     -0.026437714400
    3     -0.008481724792      0.008640749572      0.004656844770
    4     -0.008699400404     -0.006089565910     -0.005491225160
    5      0.024885439862     -0.001034459210     -0.013108763844
    6     -0.007134140272     -0.006953094090     -0.005713260473

Maximal derivative component:        0.460941E-01 au


