     6
  Step:     0            Position(A)                                  Velocity(au)
C        -0.04023182     0.00766963     0.04128381     0.00020746    -0.00007717     0.00005137
N        -0.04185214    -0.06421607     1.27464526     0.00008775    -0.00003936    -0.00006928
H         0.94012531     0.05584478    -0.50668625    -0.00106612     0.00052579     0.00007834
H         0.78117923    -0.04028437     1.83600245    -0.00210669     0.00014792    -0.00118619
H        -0.89796194     0.03259991     1.90955907    -0.00032967     0.00055478     0.00081887
H        -0.97528338     0.08303966    -0.55169276    -0.00018910     0.00023800     0.00063968
     6
  Step:     1            Position(A)                                  Velocity(au)
C        -0.03795738     0.00690407     0.04069721     0.00020556    -0.00006311    -0.00015587
N        -0.04109168    -0.06473039     1.27494159     0.00004141    -0.00005471     0.00011771
H         0.92836621     0.06167640    -0.50637416    -0.00105220     0.00054321    -0.00003860
H         0.75999452    -0.03856421     1.82427886    -0.00164121     0.00017010    -0.00087049
H        -0.90053590     0.03871350     1.91747323    -0.00012410     0.00056065     0.00060816
H        -0.97743632     0.08564357    -0.54532245    -0.00020751     0.00023833     0.00052272
     6
  Step:     2            Position(A)                                  Velocity(au)
C        -0.03573472     0.00628894     0.03787380     0.00019817    -0.00005002    -0.00035201
N        -0.04094624    -0.06541297     1.27722029    -0.00002214    -0.00006993     0.00028891
H         0.91710650     0.06772845    -0.50753077    -0.00097358     0.00056649    -0.00019106
H         0.74527470    -0.03656313     1.81695886    -0.00095018     0.00019941    -0.00039915
H        -0.90067679     0.04486527     1.92286379     0.00010283     0.00056289     0.00036902
H        -0.97982305     0.08825359    -0.54025717    -0.00023285     0.00023909     0.00040100
     6
  Step:     3            Position(A)                                  Velocity(au)
C        -0.03362208     0.00580972     0.03299632     0.00018584    -0.00003853    -0.00052699
N        -0.04157603    -0.06626035     1.28126213    -0.00009586    -0.00008464     0.00043808
H         0.90706718     0.07406951    -0.51055389    -0.00083092     0.00059628    -0.00037880
H         0.73920758    -0.03420172     1.81554672    -0.00011205     0.00023490     0.00017163
H        -0.89828634     0.05102781     1.92554626     0.00032709     0.00056406     0.00012445
H        -0.98253036     0.09087410    -0.53654991    -0.00026655     0.00024014     0.00027473
     6
  Step:     4            Position(A)                                  Velocity(au)
C        -0.03166906     0.00544597     0.02634481     0.00016961    -0.00002906    -0.00067348
N        -0.04304341    -0.06726474     1.28680420    -0.00016970    -0.00009846     0.00056307
H         0.89892845     0.08077315    -0.51581778    -0.00063189     0.00063271    -0.00059717
H         0.74282347    -0.03142435     1.82071360     0.00075219     0.00027310     0.00075539
H        -0.89352117     0.05720524     1.92558647     0.00052540     0.00056756    -0.00010258
H        -0.98565443     0.09350714    -0.53424698    -0.00030866     0.00024113     0.00014506
     6
  Step:     5            Position(A)                                  Velocity(au)
C        -0.02991158     0.00517388     0.01826269     0.00015089    -0.00002179    -0.00078733
N        -0.04528847    -0.06841429     1.29358029    -0.00023281    -0.00011107     0.00066437
H         0.89324336     0.08791121    -0.52361804    -0.00039195     0.00067521    -0.00083644
H         0.75566326    -0.02822721     1.83207236     0.00151216     0.00030865     0.00126087
H        -0.88679210     0.06344422     1.92330223     0.00067436     0.00057790    -0.00028907
H        -0.98928282     0.09614938    -0.53337647    -0.00035739     0.00024141     0.00001424
     6
  Step:     6            Position(A)                                  Velocity(au)
C        -0.02836807     0.00496923     0.00912055     0.00013137    -0.00001663    -0.00086751
N        -0.04813661    -0.06969470     1.30133851    -0.00027638    -0.00012241     0.00074312
H         0.89035385     0.09554473    -0.53411651    -0.00013335     0.00072232    -0.00108239
H         0.77590475    -0.02467203     1.84829760     0.00206681     0.00033597     0.00162038
H        -0.87876820     0.06984781     1.91926252     0.00075080     0.00060084    -0.00041287
H        -0.99347297     0.09878854    -0.53393538    -0.00040902     0.00024000    -0.00011437
     6
  Step:     7            Position(A)                                  Velocity(au)
C        -0.02703755     0.00481013    -0.00071570     0.00011279    -0.00001325    -0.00091560
N        -0.05133490    -0.07109220     1.30983737    -0.00029543    -0.00013266     0.00079985
H         0.89032612     0.10371331    -0.54729747     0.00011768     0.00077166    -0.00131798
H         0.80087861    -0.02087714     1.86752125     0.00236745     0.00035106     0.00180509
H        -0.87036700     0.07658870     1.91426983     0.00073435     0.00064305    -0.00045515
H        -0.99823089     0.10139975    -0.53587849    -0.00045812     0.00023559    -0.00023662
     6
  Step:     8            Position(A)                                  Velocity(au)
C        -0.02590057     0.00467938    -0.01090987     0.00009666    -0.00001116    -0.00093504
N        -0.05459974    -0.07259693     1.31883683    -0.00028912    -0.00014230     0.00083464
H         0.89292830     0.11242638    -0.56294992     0.00033516     0.00082039    -0.00152595
H         0.82769719    -0.01699194     1.88778731     0.00241644     0.00035232     0.00182216
H        -0.86270278     0.08391581     1.90930517     0.00061257     0.00071114    -0.00040455
H        -1.00349531     0.10394245    -0.53911189    -0.00049823     0.00022651    -0.00034805
     6
  Step:     9            Position(A)                                  Velocity(au)
C        -0.02492302     0.00456600    -0.02117159     0.00008400    -0.00000975    -0.00093042
N        -0.05765999    -0.07420523     1.32809680    -0.00025998    -0.00015189     0.00084797
H         0.89765829     0.12166087    -0.58068061     0.00049764     0.00086563    -0.00169141
H         0.85374289    -0.01316946     1.90738458     0.00224983     0.00034031     0.00170094
H        -0.85696595     0.09214632     1.90541958     0.00038683     0.00081018    -0.00026174
H        -1.00913062     0.10635517    -0.54349268    -0.00052260     0.00021085    -0.00044440
     6
  Step:    10            Position(A)                                  Velocity(au)
C        -0.02406281     0.00446597    -0.03126468     0.00006627    -0.00000108    -0.00100748
N        -0.06028727    -0.07591988     1.33738775    -0.00020646    -0.00016866     0.00092474
H         0.90381520     0.13136372    -0.59995281     0.00056028     0.00097739    -0.00171401
H         0.87691645    -0.00954709     1.92499864     0.00185290     0.00023729     0.00144458
H        -0.85424011     0.10163997     1.90357920     0.00010073     0.00104388    -0.00011011
H        -1.01492812     0.10855521    -0.54883394    -0.00043454     0.00009805    -0.00046571
     6
  Step:    11            Position(A)                                  Velocity(au)
C        -0.02347326     0.00454243    -0.04321211     0.00004342     0.00001478    -0.00116863
N        -0.06217677    -0.07789505     1.34832723    -0.00013397    -0.00019217     0.00106770
H         0.90991552     0.14304316    -0.61817787     0.00052617     0.00113045    -0.00159775
H         0.89427870    -0.00797839     1.93898756     0.00127227     0.00007133     0.00108388
H        -0.85476239     0.11498317     1.90301075    -0.00021661     0.00137780     0.00001772
H        -1.01863701     0.10850015    -0.55368108    -0.00023760    -0.00008524    -0.00041543
     6
  Step:    12            Position(A)                                  Velocity(au)
C        -0.02311293     0.00478940    -0.05683071     0.00002452     0.00002990    -0.00130828
N        -0.06321811    -0.08012406     1.36074570    -0.00005488    -0.00021478     0.00119150
H         0.91532625     0.15609438    -0.63490661     0.00044124     0.00124088    -0.00144657
H         0.90474987    -0.00798669     1.94871060     0.00061888    -0.00006286     0.00068478
H        -0.85897878     0.13178189     1.90396694    -0.00055050     0.00168574     0.00015667
H        -1.02012599     0.10669048    -0.55792233    -0.00003922    -0.00023534    -0.00036285
     6
  Step:    13            Position(A)                                  Velocity(au)
C        -0.02293678     0.00519652    -0.07183314     0.00000998     0.00004398    -0.00142100
N        -0.06337742    -0.08259388     1.37439361     0.00002391    -0.00023580     0.00129278
H         0.91956843     0.17018989    -0.64982436     0.00031906     0.00132641    -0.00127212
H         0.90781785    -0.00935362     1.95396838    -0.00006031    -0.00018047     0.00028151
H        -0.86680570     0.15186204     1.90643814    -0.00085106     0.00197564     0.00027975
H        -1.01949509     0.10335158    -0.56161920     0.00014117    -0.00036893    -0.00032121
     6
  Step:    14            Position(A)                                  Velocity(au)
C        -0.02289470     0.00575151    -0.08791782     0.00000024     0.00005689    -0.00150678
N        -0.06269510    -0.08528259     1.38902763     0.00009579    -0.00025438     0.00137294
H         0.92230621     0.18511208    -0.66273675     0.00017268     0.00139497    -0.00108526
H         0.90343053    -0.01193478     1.95486926    -0.00072275    -0.00028544    -0.00009879
H        -0.87759745     0.17500290     1.91008691    -0.00107071     0.00223935     0.00036017
H        -1.01703771     0.09861945    -0.56494935     0.00028670    -0.00049182    -0.00029999
     6
  Step:    15            Position(A)                                  Velocity(au)
C        -0.02293147     0.00644113    -0.10479688    -0.00000425     0.00006855    -0.00156738
N        -0.06128184    -0.08815901     1.40442926     0.00015460    -0.00026977     0.00143405
H         0.92334611     0.20070761    -0.67356654     0.00001489     0.00145160    -0.00089626
H         0.89200640    -0.01559809     1.95180710    -0.00132133    -0.00037745    -0.00042864
H        -0.89022964     0.20085207     1.91431752    -0.00117365     0.00246432     0.00038048
H        -1.01322297     0.09259198    -0.56818198     0.00038229    -0.00060656    -0.00030663
     6
  Step:    16            Position(A)                                  Velocity(au)
C        -0.02298773     0.00725123    -0.12220717    -0.00000329     0.00007890    -0.00160514
N        -0.05931288    -0.09118429     1.42040021     0.00019465    -0.00028146     0.00147728
H         0.92263187     0.21686851    -0.68234426    -0.00014194     0.00150017    -0.00071464
H         0.87452393    -0.02019232     1.94549199    -0.00179818    -0.00045363    -0.00067635
H        -0.90327319     0.22891456     1.91841060    -0.00114143     0.00263908     0.00033567
H        -1.00867447     0.08534975    -0.57165749     0.00041576    -0.00071454    -0.00034638
     6
  Step:    17            Position(A)                                  Velocity(au)
C        -0.02300343     0.00816713    -0.13991242     0.00000294     0.00008787    -0.00162242
N        -0.05702353    -0.09431642     1.43674748     0.00021064    -0.00028939     0.00150236
H         0.92024099     0.23352667    -0.68920075    -0.00028586     0.00154429    -0.00054909
H         0.85266781    -0.02552219     1.93701056    -0.00208273    -0.00050917    -0.00080551
H        -0.91520055     0.25858697     1.92166090    -0.00097351     0.00275635     0.00023185
H        -1.00412740     0.07696007    -0.57575978     0.00037994    -0.00081707    -0.00042162
     6
  Step:    18            Position(A)                                  Velocity(au)
C        -0.02292345     0.00917361    -0.15770069     0.00001365     0.00009542    -0.00162121
N        -0.05470481    -0.09751533     1.45326711     0.00019798    -0.00029394     0.00150787
H         0.91637807     0.25065280    -0.69435656    -0.00040583     0.00158753    -0.00040711
H         0.82896022    -0.03133150     1.92786989    -0.00209911    -0.00053845    -0.00077968
H        -0.92457056     0.28921498     1.92348277    -0.00068378     0.00281423     0.00008257
H        -1.00036246     0.06747485    -0.58088127     0.00027477    -0.00091567    -0.00053122
     6
  Step:    19            Position(A)                                  Velocity(au)
C        -0.02270487     0.01025467    -0.17537947     0.00002735     0.00010148    -0.00160315
N        -0.05269224    -0.10074695     1.46973505     0.00015399    -0.00029573     0.00149232
H         0.91136261     0.26825686    -0.69810712    -0.00049213     0.00163355    -0.00029483
H         0.80674567    -0.03730184     1.91995346    -0.00178739    -0.00053700    -0.00057421
H        -0.93015953     0.32015364     1.92346734    -0.00029547     0.00281600    -0.00009540
H        -0.99811625     0.05692793    -0.58738114     0.00010918    -0.00101232    -0.00067015
     6
  Step:    20            Position(A)                                  Velocity(au)
C        -0.02232523     0.01139370    -0.19277261     0.00004187     0.00010600    -0.00156990
N        -0.05133597    -0.10398491     1.48591453     0.00007998    -0.00029541     0.00145590
H         0.90561170     0.28638979    -0.70080643    -0.00053729     0.00168594    -0.00021645
H         0.78985755    -0.04307930     1.91530789    -0.00113789    -0.00050427    -0.00019327
H        -0.93103458     0.35082042     1.92139580     0.00016315     0.00276940    -0.00028516
H        -0.99797399     0.04532852    -0.59554218    -0.00009848    -0.00110911    -0.00082978
     6
  Step:    21            Position(A)                                  Velocity(au)
C        -0.02178882     0.01257365    -0.20972400     0.00005469     0.00010895    -0.00152346
N        -0.05094243    -0.10720959     1.50158569    -0.00001656    -0.00029348     0.00140188
H         0.89960836     0.30514009    -0.70284239    -0.00053740     0.00174772    -0.00017369
H         0.78185214    -0.04833365     1.91572541    -0.00022334    -0.00044598     0.00031669
H        -0.92659033     0.38073959     1.91722887     0.00066154     0.00268593    -0.00047133
H        -1.00027072     0.03266406    -0.60553427    -0.00032235    -0.00120769    -0.00099889
     6
  Step:    22            Position(A)                                  Velocity(au)
C        -0.02112888     0.01377721    -0.22610131     0.00006330     0.00011033    -0.00146611
N        -0.05169829    -0.11040530     1.51658327    -0.00012204    -0.00029023     0.00133640
H         0.89385515     0.32462452    -0.70460633    -0.00049330     0.00182070    -0.00016533
H         0.78497163    -0.05283593     1.92223615     0.00079932    -0.00037390     0.00087058
H        -0.91656212     0.40958030     1.91108450     0.00116857     0.00258040    -0.00064065
H        -1.00502600     0.01890791    -0.61739471    -0.00053301    -0.00130874    -0.00116539
     6
  Step:    23            Position(A)                                  Velocity(au)
C        -0.02040404     0.01498723    -0.24179792     0.00006581     0.00011016    -0.00140017
N        -0.05361229    -0.11355891     1.53082199    -0.00022002    -0.00028600     0.00126664
H         0.88881646     0.34497143    -0.70645928    -0.00041142     0.00190483    -0.00018704
H         0.79933884    -0.05651339     1.93477094     0.00173344    -0.00030223     0.00137018
H        -0.90102554     0.43719077     1.90321341     0.00165371     0.00247058    -0.00078201
H        -1.01193134     0.00403279    -0.63102942    -0.00070251    -0.00141161    -0.00131823
     6
  Step:    24            Position(A)                                  Velocity(au)
C        -0.01968922     0.01618728    -0.25673278     0.00006130     0.00010859    -0.00132792
N        -0.05651158    -0.11666205     1.54429351    -0.00029638    -0.00028146     0.00119834
H         0.88485445     0.36629642    -0.70869827    -0.00030385     0.00199763    -0.00023168
H         0.82289389    -0.05944774     1.95221138     0.00241246    -0.00024261     0.00173798
H        -0.88038397     0.46362905     1.89397649     0.00208847     0.00237666    -0.00088645
H        -1.02039476    -0.01197387    -0.64623360    -0.00080891    -0.00151436    -0.00144880
     6
  Step:    25            Position(A)                                  Velocity(au)
C        -0.01906302     0.01736274    -0.27084874     0.00005002     0.00010582    -0.00125140
N        -0.06009627    -0.11971638     1.55703806    -0.00034318    -0.00027774     0.00113434
H         0.88216920     0.38867338    -0.71152773    -0.00018721     0.00209404    -0.00029001
H         0.85211601    -0.06182088     1.97279255     0.00275039    -0.00020111     0.00193793
H        -0.85533618     0.48918478     1.88382055     0.00244876     0.00231980    -0.00094756
H        -1.02962769    -0.02909665    -0.66272479    -0.00083908    -0.00161409    -0.00155170
     6
  Step:    26            Position(A)                                  Velocity(au)
C        -0.01859504     0.01850218    -0.28410962     0.00003320     0.00010219    -0.00117238
N        -0.06401921    -0.12273816     1.56910938    -0.00035913    -0.00027619     0.00107477
H         0.88075878     0.41210762    -0.71504273    -0.00008041     0.00218699    -0.00035196
H         0.88306403    -0.06384730     1.99460738     0.00274655    -0.00017862     0.00197383
H        -0.82681260     0.51437918     1.87324672     0.00271804     0.00231950    -0.00096234
H        -1.03875113    -0.04728513    -0.68018000    -0.00078916    -0.00170761    -0.00162468
     6
  Step:    27            Position(A)                                  Velocity(au)
C        -0.01833675     0.01959844    -0.29649679     0.00001270     0.00009813    -0.00109228
N        -0.06795300    -0.12575858     1.58055068    -0.00034785    -0.00027789     0.00101830
H         0.88041011     0.43651790    -0.71922759    -0.00000162     0.00226838    -0.00040805
H         0.91220203    -0.06572850     2.01597376     0.00245619    -0.00017331     0.00187348
H        -0.79587395     0.53992839     1.86276762     0.00289103     0.00238918    -0.00093229
H        -1.04689216    -0.06645391    -0.69826770    -0.00066311    -0.00179199    -0.00166804
     6
  Step:    28            Position(A)                                  Velocity(au)
C        -0.01831713     0.02064907    -0.30800528    -0.00000942     0.00009404    -0.00101216
N        -0.07162919    -0.12881754     1.59138657    -0.00031544    -0.00028308     0.00096338
H         0.88072324     0.46173267    -0.72396953     0.00003442     0.00233047    -0.00045050
H         0.93679786    -0.06763876     2.03559332     0.00195515    -0.00018302     0.00167223
H        -0.76356585     0.56664708     1.85285099     0.00297665     0.00253065    -0.00086424
H        -1.05325793    -0.08648823    -0.71667158    -0.00047049    -0.00186494    -0.00168391
     6
  Step:    29            Position(A)                                  Velocity(au)
C        -0.01854290     0.02165580    -0.31863976    -0.00003131     0.00009024    -0.00093274
N        -0.07485389    -0.13195152     1.60162644    -0.00026878    -0.00029073     0.00090895
H         0.88116310     0.48750146    -0.72908320     0.00001831     0.00236710    -0.00047399
H         0.95497474    -0.06973243     2.05255694     0.00131607    -0.00020664     0.00140276
H        -0.73075407     0.59529113     1.84386081     0.00299793     0.00272944    -0.00076976
H        -1.05718496    -0.10725311    -0.73510636    -0.00022417    -0.00192508    -0.00167544
     6
  Step:    30            Position(A)                                  Velocity(au)
C        -0.01900220     0.02262322    -0.32841083    -0.00005148     0.00008691    -0.00085442
N        -0.07750923    -0.13517790     1.61127164    -0.00021451    -0.00029846     0.00085454
H         0.88112383     0.51351754    -0.73433894    -0.00005351     0.00237440    -0.00047566
H         0.96558937    -0.07215931     2.06628128     0.00059889    -0.00024439     0.00109160
H        -0.69798044     0.62635872     1.83601102     0.00298753     0.00295374    -0.00066326
H        -1.05816197    -0.12860312    -0.75332497     0.00006148    -0.00197191    -0.00164631
     6
  Step:    31            Position(A)                                  Velocity(au)
C        -0.01966921     0.02355714    -0.33733179    -0.00006887     0.00008409    -0.00077731
N        -0.07954677    -0.13848089     1.62032115    -0.00015847    -0.00030288     0.00079997
H         0.87999246     0.53944597    -0.73948911    -0.00017923     0.00235117    -0.00045481
H         0.96807660    -0.07507885     2.07643769    -0.00014879    -0.00029763     0.00075982
H        -0.66539622     0.65990979     1.82935064     0.00297926     0.00315927    -0.00055876
H        -1.05584006    -0.15039245    -0.77112248     0.00037158    -0.00200587    -0.00160044
     6
  Step:    32            Position(A)                                  Velocity(au)
C        -0.02050896     0.02446286    -0.34541590    -0.00008283     0.00008168    -0.00070132
N        -0.08097606    -0.14180408     1.62877256    -0.00010536    -0.00030040     0.00074498
H         0.87720292     0.56495382    -0.74428881    -0.00035281     0.00229866    -0.00041233
H         0.96233422    -0.07867056     2.08290385    -0.00088676    -0.00036833     0.00042555
H        -0.63280348     0.69547387     1.82378712     0.00299901     0.00329901    -0.00046682
H        -1.05003302    -0.17248527    -0.78833775     0.00069153    -0.00202826    -0.00154184
     6
  Step:    33            Position(A)                                  Velocity(au)
C        -0.02148118     0.02534402    -0.35267458    -0.00009298     0.00007950    -0.00062624
N        -0.08185165    -0.14505262     1.63661901    -0.00005881    -0.00028797     0.00068887
H         0.87227413     0.58973360    -0.74850956    -0.00056543     0.00222009    -0.00035004
H         0.94867709    -0.08313679     2.08574752    -0.00157561    -0.00045854     0.00010698
H        -0.59978711     0.73208205     1.81913817     0.00305887     0.00333415    -0.00039287
H        -1.04071146    -0.19476452    -0.80485308     0.00100736    -0.00204125    -0.00147446
     6
  Step:    34            Position(A)                                  Velocity(au)
C        -0.02254313     0.02620198    -0.35911609    -0.00009921     0.00007732    -0.00055173
N        -0.08226265    -0.14810400     1.64384288    -0.00002181    -0.00026376     0.00063032
H         0.86483301     0.61352252    -0.75194654    -0.00080664     0.00212020    -0.00027026
H         0.92786478    -0.08870198     2.08524433    -0.00217044    -0.00057011    -0.00017474
H        -0.56588495     0.76841480     1.81519229     0.00315647     0.00324179    -0.00033735
H        -1.02799516    -0.21714157    -0.82059440     0.00130585    -0.00204787    -0.00140232
     6
  Step:    35            Position(A)                                  Velocity(au)
C        -0.02365156     0.02703548    -0.36474466    -0.00010154     0.00007491    -0.00047739
N        -0.08232885    -0.15082294     1.65040846     0.00000271    -0.00022726     0.00056735
H         0.85462744     0.63611702    -0.75442206    -0.00106511     0.00200484    -0.00017553
H         0.90119447    -0.09560905     2.08192485    -0.00261631    -0.00070465    -0.00039338
H        -0.53073323     0.80300231     1.81175793     0.00327883     0.00301711    -0.00029707
H        -1.01214360    -0.23956563    -0.83553145     0.00157480    -0.00205190    -0.00132940
     6
  Step:    36            Position(A)                                  Velocity(au)
C        -0.02476443     0.02784088    -0.36955995    -0.00010015     0.00007207    -0.00040283
N        -0.08220339    -0.15307580     1.65625472     0.00001151    -0.00017905     0.00049744
H         0.84153162     0.65738221    -0.75578651    -0.00132938     0.00188067    -0.00006840
H         0.87062809    -0.10411759     2.07663840    -0.00284837    -0.00086398    -0.00051750
H        -0.49415419     0.83441995     1.80869336     0.00340752     0.00267050    -0.00026703
H        -0.99354340    -0.26203088    -0.84967762     0.00180355    -0.00205790    -0.00125955
     6
  Step:    37            Position(A)                                  Velocity(au)
C        -0.02584246     0.02861223    -0.37355724    -0.00009540     0.00006859    -0.00032764
N        -0.08207701    -0.15474002     1.66129098     0.00000137    -0.00012037     0.00041795
H         0.82554478     0.67726029    -0.75591837    -0.00158807     0.00175500     0.00004852
H         0.83888098    -0.11451024     2.07060354    -0.00280133    -0.00105134    -0.00051427
H        -0.45618718     0.86142464     1.80591604     0.00352339     0.00222262    -0.00024193
H        -0.97268752    -0.28458622    -0.86308644     0.00198371    -0.00207094    -0.00119612
     6
  Step:    38            Position(A)                                  Velocity(au)
C        -0.02685148     0.02934136    -0.37672768    -0.00008790     0.00006424    -0.00025148
N        -0.08217343    -0.15570904     1.66539827    -0.00002954    -0.00005269     0.00032685
H         0.80678955     0.69577620    -0.75472495    -0.00183009     0.00163562     0.00017251
H         0.80934362    -0.12711774     2.06538773    -0.00243170    -0.00127313    -0.00035919
H        -0.41707330     0.88304393     1.80340063     0.00360969     0.00170013    -0.00021692
H        -0.95014597    -0.30733669    -0.87584503     0.00211003    -0.00209600    -0.00114167
     6
  Step:    39            Position(A)                                  Velocity(au)
C        -0.02776548     0.03001759    -0.37905893    -0.00007857     0.00005877    -0.00017410
N        -0.08272334    -0.15589262     1.66844147    -0.00007944     0.00002253     0.00022379
H         0.78550812     0.71304266    -0.75214438    -0.00204480     0.00153071     0.00030065
H         0.78568297    -0.14236233     2.06274567    -0.00174970    -0.00153949    -0.00005056
H        -0.37721826     0.89861831     1.80117046     0.00365326     0.00113281    -0.00018796
H        -0.92652653    -0.33044030    -0.88806256     0.00218136    -0.00213738    -0.00109732
     6
  Step:    40            Position(A)                                  Velocity(au)
C        -0.02857033     0.03062698    -0.38053650    -0.00006868     0.00005180    -0.00009545
N        -0.08391136    -0.15521619     1.67029414    -0.00014105     0.00010373     0.00011103
H         0.76205565     0.72926331    -0.74814757    -0.00222237     0.00144844     0.00043014
H         0.77106563    -0.16079713     2.06428159    -0.00084495    -0.00186186     0.00037791
H        -0.33715130     0.90782625     1.79928856     0.00364421     0.00055243    -0.00015159
H        -0.90242451    -0.35409600    -0.89985112     0.00220145    -0.00219777    -0.00106198
     6
  Step:    41            Position(A)                                  Velocity(au)
C        -0.02926795     0.03115085    -0.38114702    -0.00005991     0.00004283    -0.00001602
N        -0.08580899    -0.15362337     1.67087053    -0.00020171     0.00018896    -0.00000662
H         0.73688959     0.74473010    -0.74273421    -0.00235380     0.00139594     0.00055962
H         0.76719811    -0.18309411     2.07101316     0.00011835    -0.00224715     0.00085822
H        -0.29749418     0.91070381     1.79785413     0.00357348    -0.00000776    -0.00010392
H        -0.87836557    -0.37852070    -0.91129539     0.00217885    -0.00227739    -0.00103086
     6
  Step:    42            Position(A)                                  Velocity(au)
C        -0.02988107     0.03156408    -0.38088707    -0.00003951     0.00002675     0.00009721
N        -0.08832408    -0.15108228     1.67014927    -0.00028366     0.00024482    -0.00012013
H         0.71056173     0.75980214    -0.73590488    -0.00256489     0.00151403     0.00054409
H         0.77365471    -0.20995784     2.08305679     0.00102073    -0.00247497     0.00120015
H        -0.25897448     0.90765656     1.79701519     0.00378695    -0.00038224    -0.00011547
H        -0.85475791    -0.40391828    -0.92240312     0.00216979    -0.00237767    -0.00111765
     6
  Step:    43            Position(A)                                  Velocity(au)
C        -0.03027268     0.03189536    -0.37918433    -0.00003125     0.00004980     0.00024513
N        -0.09173904    -0.14811667     1.66827681    -0.00034926     0.00026491    -0.00020452
H         0.68269350     0.77569614    -0.73016673    -0.00241769     0.00129773     0.00034688
H         0.78953939    -0.23808158     2.09704037     0.00187053    -0.00243121     0.00106159
H        -0.21828177     0.90112655     1.79549929     0.00365980    -0.00072362    -0.00025466
H        -0.83134576    -0.43031770    -0.93487746     0.00211317    -0.00241771    -0.00123256
     6
  Step:    44            Position(A)                                  Velocity(au)
C        -0.03064825     0.03239831    -0.37608128    -0.00003991     0.00004192     0.00032501
N        -0.09554954    -0.14479830     1.66548803    -0.00033586     0.00033123    -0.00029819
H         0.65672751     0.78960097    -0.72572317    -0.00229842     0.00125447     0.00044151
H         0.81220101    -0.26713182     2.10983129     0.00211379    -0.00283159     0.00116818
H        -0.18022419     0.89112536     1.79314120     0.00328470    -0.00102203    -0.00017800
H        -0.80867194    -0.45727817    -0.94797521     0.00204264    -0.00250341    -0.00116067
     6