|===============================================================================
|
|  DFTB+ release 20.1
|
|  Copyright (C) 2006 - 2020  DFTB+ developers group
|
|===============================================================================
|
|  When publishing results obtained with DFTB+, please cite the following
|  reference:
|
|  * DFTB+, a software package for efficient approximate density functional
|    theory based atomistic simulations, J. Chem. Phys. 152, 124101 (2020).
|    [doi: 10.1063/1.5143190]
|
|  You should also cite additional publications crediting the parametrization
|  data you use. Please consult the documentation of the SK-files for the
|  references.
|
|===============================================================================

Reading input file 'dftb_in.hsd'
Parser version: 8

--------------------------------------------------------------------------------
Reading SK-files:
Done.


Processed input in HSD format written to 'dftb_pin.hsd'

Starting initialization...
--------------------------------------------------------------------------------
OpenMP threads:              1
Chosen random seed:          511513608
Mode:                        Static calculation
Self consistent charges:     Yes
SCC-tolerance:                 0.100000E-05
Max. scc iterations:                   1000
Shell resolved Hubbard:      No
Spin polarisation:           No
Nr. of up electrons:             6.000000
Nr. of down electrons:           6.000000
Periodic boundaries:         No
Electronic solver:           Relatively robust
Maximal SCC-cycles:                    1000
Initial charges:             Set automatically (system chrg:   0.100E+01)
Included shells:             C:  s, p
                             N:  s, p
                             H:  s
Spin coupling constants:     C   1(s)-1(s):  -0.455900E-01
                             C   1(s)-2(p):  -0.293000E-01
                             C   2(p)-1(s):  -0.293000E-01
                             C   2(p)-2(p):  -0.275500E-01
                             N   1(s)-1(s):  -0.468700E-01
                             N   1(s)-2(p):  -0.317000E-01
                             N   2(p)-1(s):  -0.317000E-01
                             N   2(p)-2(p):  -0.307200E-01
                             H   1(s)-1(s):  -0.792500E-01
Range separated hybrid:      Yes
  Screening parameter omega:   0.300000E+00
  Range separated algorithm:   MatrixBased
Extra options:
                             Mulliken analysis
                             Force calculation
Force type                   original
                             Eigenvector printing


REKS Calcuation:             Yes
SSR(2,2) Calcuation:         Yes
Energy Functional:           (PPS+OSS)/2
Number of Core Orbitals:                  5
Number of Active Orbitals:                2
Number of Basis:                         12
Number of States:                         2
State-Averaging Weight:          0.500000
                                 0.500000
State of Interest:                        1
Initial Guess:               Diagonalize H0 matrix
Newton-Raphson for FON opt:  Yes
NR max. Iterations:                      50
Level Shifting:              Yes
Shift Value:                     0.300000
W Scale Factor:              C  =    3.000000
                             N  =    3.000000
                             H  =    3.000000
Transition Dipole:           No
Gradient of Microstate:      No
CP-REKS Solver:              Preconditioned Conjugate-Gradient
CG max. Iterations:                     100
CG Tolerance:                  0.100000E-07
Memory for A and Hxc:        Direct Updating Without Saving
Non-Adiabatic Coupling:      Yes

--------------------------------------------------------------------------------

***  Geometry step: 0

  iSCC       reks energy        Diff energy         x_a       SCC error   
    1       -6.2651196252       0.0000000000     0.999805    1.19756161
    2       -6.2758273213      -0.0107076960     0.999909    0.07177643
    3       -6.2798241620      -0.0039968407     0.999946    0.02659486
    4       -6.2819402034      -0.0021160414     0.999963    0.01104985
    5       -6.2830859781      -0.0011457747     0.999971    0.00991507
    6       -6.2836958306      -0.0006098525     0.999975    0.00815303
    7       -6.2840143597      -0.0003185291     0.999977    0.00635525
    8       -6.2841784435      -0.0001640838     0.999978    0.00478793
    9       -6.2842622423      -0.0000837988     0.999978    0.00352804
   10       -6.2843048476      -0.0000426052     0.999979    0.00256194
   11       -6.2843264807      -0.0000216332     0.999979    0.00184234
   12       -6.2843374785      -0.0000109978     0.999979    0.00131618
   13       -6.2843430883      -0.0000056097     0.999979    0.00093611
   14       -6.2843459646      -0.0000028764     0.999979    0.00066378
   15       -6.2843474497      -0.0000014851     0.999979    0.00046973
   16       -6.2843482230      -0.0000007733     0.999979    0.00033198
   17       -6.2843486297      -0.0000004067     0.999979    0.00023444
   18       -6.2843488459      -0.0000002162     0.999979    0.00017381
   19       -6.2843489623      -0.0000001164     0.999979    0.00013512
   20       -6.2843490257      -0.0000000634     0.999979    0.00010520
   21       -6.2843490607      -0.0000000350     0.999979    0.00008266
   22       -6.2843490803      -0.0000000196     0.999979    0.00006537
   23       -6.2843490914      -0.0000000111     0.999979    0.00005165
   24       -6.2843490977      -0.0000000063     0.999979    0.00004077
   25       -6.2843491014      -0.0000000037     0.999979    0.00003217
   26       -6.2843491035      -0.0000000021     0.999979    0.00002536
   27       -6.2843491048      -0.0000000013     0.999979    0.00001998
   28       -6.2843491056      -0.0000000007     0.999979    0.00001573
   29       -6.2843491060      -0.0000000004     0.999979    0.00001238
   30       -6.2843491063      -0.0000000003     0.999979    0.00000974
   31       -6.2843491064      -0.0000000002     0.999979    0.00000766
   32       -6.2843491065      -0.0000000001     0.999979    0.00000602
   33       -6.2843491066      -0.0000000001     0.999979    0.00000473
   34       -6.2843491066      -0.0000000000     0.999979    0.00000371
   35       -6.2843491066      -0.0000000000     0.999979    0.00000292
   36       -6.2843491067      -0.0000000000     0.999979    0.00000229
   37       -6.2843491067      -0.0000000000     0.999979    0.00000180
   38       -6.2843491067      -0.0000000000     0.999979    0.00000141
   39       -6.2843491067      -0.0000000000     0.999979    0.00000111
   40       -6.2843491067      -0.0000000000     0.999979    0.00000087
  
--------------------------------------------------
 Final SA-REKS(2,2) energy:      -6.28434911
  
 State     Energy      FON(1)    FON(2)   Spin
  PPS   -6.41810952   1.999958  0.000042  0.00
  OSS   -6.15058869   1.000000  1.000000  0.00
 Trip   -6.22811886   1.000000  1.000000  1.00
--------------------------------------------------

 Lagrangian Wab:  -0.00115229 -0.00115224

--------------------------------------------------
 SSR: 2SI-2SA-REKS(2,2) Hamiltonian matrix
               PPS           OSS
   PPS    -6.41810952   -0.00162211
   OSS    -0.00162211   -6.15058869
--------------------------------------------------

----------------------------------------------------------------
 SSR: 2SI-2SA-REKS(2,2) states
                    E_n       C_{PPS}    C_{OSS}
 SSR state  1   -6.41811936  -0.999982  -0.006063
 SSR state  2   -6.15057885   0.006063  -0.999982
----------------------------------------------------------------

 unrelaxed SSR FONs for S0:  1.999921  0.000079

Total Energy:                       -6.4181193590 H         -174.6459 eV
Extrapolated to 0:                  -6.4181193590 H         -174.6459 eV

----------------------------------------------------------------------------------
 Solving CP-REKS equation for  1 state vector...
----------------------------------------------------------------------------------
  CG solver: Constructing Y initial guess
  CG solver: Iteration    1    eps =    0.000033685117
  CG solver: Iteration    2    eps =    0.000002618774
  CG solver: Iteration    3    eps =    0.000000242203
  CG solver: Iteration    4    eps =    0.000000002958
  Convergence reached in CG solver after    4 iterations
  CG solver: Calculating converged R, Z, Q2 matrix
----------------------------------------------------------------------------------

----------------------------------------------------------------------------------
 Solving CP-REKS equation for SI between  1 and  2 state vectors...
----------------------------------------------------------------------------------
  CG solver: Constructing Y initial guess
  CG solver: Iteration    1    eps =    0.000349946761
  CG solver: Iteration    2    eps =    0.000124125576
  CG solver: Iteration    3    eps =    0.000043826001
  CG solver: Iteration    4    eps =    0.000000785722
  CG solver: Iteration    5    eps =    0.000000062598
  CG solver: Iteration    6    eps =    0.000000002639
  Convergence reached in CG solver after    6 iterations
  CG solver: Calculating converged R, Z, Q2 matrix
----------------------------------------------------------------------------------

--------------------------------------------------
 Gradient Information
--------------------------------------------------
           1 st state (SSR)
     0.00078320     0.00254560     0.03115950
    -0.00483043    -0.00657217    -0.03131576
    -0.00166000     0.00257809    -0.00098559
     0.00170257    -0.00065816     0.00296761
     0.00320621     0.00581323    -0.00291956
     0.00079844    -0.00370659     0.00109380

           2 st state (SSR)
    -0.00261568    -0.01043266     0.14264120
    -0.00355574     0.01441322    -0.16377385
    -0.01552419    -0.00177047     0.01869194
    -0.00529467     0.00121486    -0.00631313
     0.01026695    -0.00529783    -0.01161662
     0.01672333     0.00187288     0.02037047
--------------------------------------------------
 Coupling Information
--------------------------------------------------
 between  1 and  2 states
--------------------------------------------------
 g vector - difference gradient
     0.00172493     0.00649139    -0.05574628
    -0.00067159    -0.01049495     0.06623147
     0.00693287     0.00224010    -0.00983706
     0.00350084    -0.00100714     0.00464403
    -0.00350906     0.00562895     0.00435093
    -0.00797799    -0.00285834    -0.00964310

 h vector - derivative coupling
    -0.00209136    -0.00014697     0.00010955
     0.00281985     0.00012257     0.00020200
    -0.00002151    -0.00541451    -0.00020040
    -0.00016176     0.00581881    -0.00027404
    -0.00177894    -0.00602046    -0.00017148
     0.00123371     0.00564056     0.00033438

 G vector - GDV
     0.00169944     0.00648913    -0.05574085
    -0.00063734    -0.01049269     0.06622904
     0.00693210     0.00217428    -0.00983876
     0.00349862    -0.00093651     0.00464037
    -0.00353037     0.00555553     0.00434853
    -0.00796244    -0.00278974    -0.00963833

 H vector - DCV - non-adiabatic coupling
    -0.00789458    -0.00084353     0.00293609
     0.01056958     0.00093378    -0.00224694
    -0.00039460    -0.02033813    -0.00030314
    -0.00076326     0.02179333    -0.00123470
    -0.00648971    -0.02275645    -0.00083812
     0.00497257     0.02121100     0.00168681
--------------------------------------------------


--------------------------------------------------------------------------------
DFTB+ running times                          cpu [s]             wall clock [s]
--------------------------------------------------------------------------------
SCC                                    +     0.02  ( 63.7%)      0.02  ( 59.4%)
Post-SCC processing                    +     0.01  ( 32.1%)      0.01  ( 31.2%)
--------------------------------------------------------------------------------
Missing                                +     0.00  (  4.1%)      0.00  (  9.4%)
Total                                  =     0.03  (100.0%)      0.03  (100.0%)
--------------------------------------------------------------------------------
