     6
  Step:     0            Position(A)                                  Velocity(au)
C        -0.03999720     0.00574514     0.00935782    -0.00005204    -0.00005278    -0.00016503
N        -0.05100032    -0.06420879     1.30792960    -0.00007921     0.00013279     0.00031141
H         0.90939092     0.06639709    -0.46952583     0.00083069    -0.00004192    -0.00086231
H         0.92511157    -0.06371051     1.82929089     0.00016065    -0.00043992    -0.00025568
H        -0.88649673     0.01316158     1.82181666     0.00079648    -0.00100298    -0.00114184
H        -0.97561575     0.13818312    -0.57649891    -0.00006703     0.00026846    -0.00010102
     6
  Step:     1            Position(A)                                  Velocity(au)
C        -0.04031051     0.00544741     0.00814149    -0.00006151    -0.00005607    -0.00027899
N        -0.05134452    -0.06351978     1.30989676    -0.00004510     0.00011922     0.00040551
H         0.91433969     0.06633482    -0.47446028     0.00096482     0.00001752    -0.00093332
H         0.92533014    -0.06599709     1.82762791    -0.00008040    -0.00039597    -0.00035027
H        -0.88279417     0.00788468     1.81601063     0.00053706    -0.00092596    -0.00096750
H        -0.97596941     0.13978194    -0.57693733    -0.00006180     0.00031587    -0.00005941
     6
  Step:     2            Position(A)                                  Velocity(au)
C        -0.04067011     0.00513173     0.00630572    -0.00006883    -0.00005930    -0.00039080
N        -0.05149373    -0.06290456     1.31236575    -0.00000839     0.00010581     0.00049433
H         0.91994579     0.06658874    -0.47973603     0.00106967     0.00007349    -0.00098658
H         0.92423205    -0.06804234     1.82545900    -0.00031823    -0.00035157    -0.00043906
H        -0.88062150     0.00303187     1.81123248     0.00024119    -0.00084811    -0.00076823
H        -0.97629187     0.14163859    -0.57714879    -0.00005598     0.00036242    -0.00001855
     6
  Step:     3            Position(A)                                  Velocity(au)
C        -0.04106369     0.00479849     0.00386475    -0.00007378    -0.00006240    -0.00049914
N        -0.05143633    -0.06236186     1.31530641     0.00002980     0.00009267     0.00057704
H         0.92604561     0.06713901    -0.48525684     0.00114383     0.00012557    -0.00102222
H         0.92184759    -0.06984442     1.82282311    -0.00054745    -0.00030687    -0.00051897
H        -0.88015472    -0.00139652     1.80760358    -0.00008098    -0.00077059    -0.00055013
H        -0.97658203     0.14374811    -0.57714031    -0.00005033     0.00040769     0.00002045
     6
  Step:     4            Position(A)                                  Velocity(au)
C        -0.04147808     0.00444844     0.00083991    -0.00007625    -0.00006529    -0.00060244
N        -0.05116742    -0.06188981     1.31868460     0.00006808     0.00007990     0.00065275
H         0.93247121     0.06796376    -0.49092976     0.00118676     0.00017332    -0.00104095
H         0.91823728    -0.07140270     1.81977601    -0.00076188    -0.00026217    -0.00058672
H        -0.88150830    -0.00540643     1.80520827    -0.00041666    -0.00069449    -0.00032081
H        -0.97684303     0.14610297    -0.57692481    -0.00004566     0.00045102     0.00005648
     6
  Step:     5            Position(A)                                  Velocity(au)
C        -0.04189955     0.00408276    -0.00273904    -0.00007616    -0.00006789    -0.00069886
N        -0.05069009    -0.06148599     1.32246166     0.00010485     0.00006762     0.00072040
H         0.93905455     0.06903895    -0.49666747     0.00119872     0.00021628    -0.00104377
H         0.91349606    -0.07271823     1.81639159    -0.00095457    -0.00021784    -0.00063882
H        -0.88472209    -0.00900931     1.80408696    -0.00075087    -0.00062073    -0.00008898
H        -0.97708251     0.14869208    -0.57652122    -0.00004278     0.00049160     0.00008840
     6
  Step:     6            Position(A)                                  Velocity(au)
C        -0.04231422     0.00370316    -0.00683245    -0.00007352    -0.00007007    -0.00078636
N        -0.05001636    -0.06114747     1.32659343     0.00013840     0.00005592     0.00077881
H         0.94563117     0.07033812    -0.50238868     0.00118061     0.00025391    -0.00103164
H         0.90775763    -0.07379425     1.81276284    -0.00111792    -0.00017439    -0.00067172
H        -0.88975166    -0.01222108     1.80423141    -0.00106737    -0.00055011     0.00013600
H        -0.97731266     0.15149993    -0.57595429    -0.00004250     0.00052850     0.00011516
     6
  Step:     7            Position(A)                                  Velocity(au)
C        -0.04270835     0.00331189    -0.01138971    -0.00006842    -0.00007176    -0.00086280
N        -0.04916761    -0.06087080     1.33102926     0.00016701     0.00004491     0.00082668
H         0.95204240     0.07183221    -0.50801644     0.00113385     0.00028572    -0.00100512
H         0.90119790    -0.07463665     1.80900201    -0.00124392    -0.00013237    -0.00068206
H        -0.89646421    -0.01506099     1.80558314    -0.00134999    -0.00048319     0.00034491
H        -0.97755000     0.15450605    -0.57525430    -0.00004553     0.00056076     0.00013582
     6
  Step:     8            Position(A)                                  Velocity(au)
C        -0.04306882     0.00291170    -0.01634896    -0.00006103    -0.00007286    -0.00092627
N        -0.04817433    -0.06065207     1.33571144     0.00018913     0.00003470     0.00086284
H         0.95813720     0.07348953    -0.51347485     0.00106065     0.00031129    -0.00096483
H         0.89403752    -0.07525429     1.80523991    -0.00132499    -0.00009241    -0.00066701
H        -0.90464170    -0.01755052     1.80803563    -0.00158421    -0.00042041     0.00052942
H        -0.97781485     0.15768501    -0.57445622    -0.00005246     0.00058757     0.00014965
     6
  Step:     9            Position(A)                                  Velocity(au)
C        -0.04338362     0.00250575    -0.02163819    -0.00005166    -0.00007334    -0.00097531
N        -0.04707504    -0.06048690     1.34057595     0.00020356     0.00002535     0.00088654
H         0.96377769     0.07527646    -0.51869153     0.00096447     0.00033047    -0.00091214
H         0.88653788    -0.07565914     1.80162201    -0.00135528    -0.00005510    -0.00062494
H        -0.91399234    -0.01971248     1.81144081    -0.00175886    -0.00036206     0.00068304
H        -0.97813038     0.16100708    -0.57359849    -0.00006361     0.00060836     0.00015626
     6
  Step:    10            Position(A)                                  Velocity(au)
C        -0.04364238     0.00209735    -0.02717790    -0.00004067    -0.00007322    -0.00100932
N        -0.04591417    -0.06037057     1.34555480     0.00020963     0.00001694     0.00089771
H         0.96884576     0.07715881    -0.52360239     0.00084990     0.00034343    -0.00084927
H         0.87898975    -0.07586611     1.79830111    -0.00133182    -0.00002095    -0.00055582
H        -0.92417040    -0.02157052     1.81561949    -0.00186754    -0.00030837     0.00080177
H        -0.97852116     0.16443968    -0.57272121    -0.00007906     0.00062301     0.00015565
     6
  Step:    11            Position(A)                                  Velocity(au)
C        -0.04383687     0.00168976    -0.03288566    -0.00002853    -0.00007258    -0.00102883
N        -0.04473898    -0.06029810     1.35057966     0.00020731     0.00000950     0.00089716
H         0.97324864     0.07910351    -0.52815550     0.00072234     0.00035073    -0.00077913
H         0.87169656    -0.07589261     1.79542818    -0.00125517     0.00000970    -0.00046130
H        -0.93480349    -0.02314887     1.82037547    -0.00190959    -0.00025950     0.00088465
H        -0.97901137     0.16794967    -0.57186397    -0.00009855     0.00063196     0.00014826
     6
  Step:    12            Position(A)                                  Velocity(au)
C        -0.04396138     0.00128578    -0.03868241    -0.00001569    -0.00007154    -0.00103565
N        -0.04359600    -0.06026439     1.35558692     0.00019721     0.00000300     0.00088671
H         0.97692300     0.08108070    -0.53231470     0.00058746     0.00035335    -0.00070506
H         0.86495429    -0.07575765     1.79314276    -0.00112956     0.00003674    -0.00034458
H        -0.94552362    -0.02447225     1.82551176    -0.00188992    -0.00021552     0.00093373
H        -0.97962317     0.17150629    -0.57106341    -0.00012164     0.00063624     0.00013491
     6
  Step:    13            Position(A)                                  Velocity(au)
C        -0.04401277     0.00088750    -0.04449934    -0.00000428    -0.00011691    -0.00171734
N        -0.04252748    -0.06026445     1.36052306     0.00030011    -0.00000433     0.00144511
H         0.97983634     0.08306588    -0.53606192     0.00074929     0.00058634    -0.00104847
H         0.85902987    -0.07548059     1.79156408    -0.00160022     0.00010036    -0.00034893
H        -0.95599678    -0.02556565     1.83084623    -0.00302287    -0.00029333     0.00158570
H        -0.98037540     0.17508439    -0.57035113    -0.00024573     0.00106002     0.00019406
     6
  Step:    14            Position(A)                                  Velocity(au)
C        -0.04401493     0.00022765    -0.05376860     0.00000195    -0.00006490    -0.00086842
N        -0.04090883    -0.06028209     1.36832386     0.00014937    -0.00000097     0.00073095
H         0.98392809     0.08633024    -0.54201294     0.00038761     0.00031619    -0.00058601
H         0.85067231    -0.07494436     1.79005909    -0.00074016     0.00004959    -0.00009557
H        -0.97257035    -0.02718820     1.83969969    -0.00156286    -0.00015696     0.00085020
H        -0.98200409     0.18101447    -0.56969740    -0.00018359     0.00057793     0.00002216
     6
  Step:    15            Position(A)                                  Velocity(au)
C        -0.04396511    -0.00013428    -0.05863110     0.00001546    -0.00006349    -0.00085443
N        -0.04014735    -0.06030029     1.37237596     0.00011933    -0.00000520     0.00070526
H         0.98571151     0.08809998    -0.54510109     0.00024771     0.00031104    -0.00051121
H         0.84718999    -0.07460971     1.78999935    -0.00048722     0.00006795     0.00007657
H        -0.98092873    -0.02798142     1.84441653    -0.00139011    -0.00012609     0.00081566
H        -0.98312246     0.18426894    -0.56963364    -0.00021285     0.00057595    -0.00000009
     6
  Step:    16            Position(A)                                  Velocity(au)
C        -0.04384060    -0.00048847    -0.06340583     0.00002854    -0.00006263    -0.00084396
N        -0.03956290    -0.06034076     1.37627860     0.00008789    -0.00000898     0.00068341
H         0.98672202     0.08983851    -0.54777886     0.00011528     0.00030765    -0.00044419
H         0.84517693    -0.07417794     1.79092269    -0.00022617     0.00008486     0.00025236
H        -0.98824948    -0.02861035     1.84889963    -0.00120742    -0.00009914     0.00077491
H        -0.98440480     0.18751066    -0.56969842    -0.00024311     0.00057774    -0.00002327
     6
  Step:    17            Position(A)                                  Velocity(au)
C        -0.04364451    -0.00083788    -0.06811284     0.00004114    -0.00006224    -0.00083669
N        -0.03915992    -0.06040122     1.38005397     0.00005574    -0.00001245     0.00066511
H         0.98700664     0.09155639    -0.55009152    -0.00000998     0.00030611    -0.00038436
H         0.84464900    -0.07365637     1.79283458     0.00003637     0.00010082     0.00042904
H        -0.99449392    -0.02909522     1.85312251    -0.00101746    -0.00007509     0.00072991
H        -0.98585381     0.19075979    -0.56989513    -0.00027373     0.00058281    -0.00004711
     6
  Step:    18            Position(A)                                  Velocity(au)
C        -0.04338017    -0.00118511    -0.07277039     0.00005314    -0.00006222    -0.00083152
N        -0.03893905    -0.06048007     1.38372279     0.00002354    -0.00001569     0.00064952
H         0.98661033     0.09326463    -0.55208080    -0.00012806     0.00030623    -0.00033094
H         0.84558397    -0.07304952     1.79572461     0.00029310     0.00011616     0.00060303
H        -0.99963727    -0.02945084     1.85706906    -0.00082170    -0.00005305     0.00068163
H        -0.98746850     0.19403368    -0.57022567    -0.00030372     0.00059010    -0.00007126
     6
  Step:    19            Position(A)                                  Velocity(au)
C        -0.04305154    -0.00153214    -0.07739058     0.00006437    -0.00006245    -0.00082715
N        -0.03889731    -0.06057623     1.38730109    -0.00000798    -0.00001876     0.00063573
H         0.98557783     0.09497319    -0.55378404    -0.00023835     0.00030776    -0.00028338
H         0.84791934    -0.07236032     1.79956299     0.00053584     0.00013101     0.00077007
H        -1.00366210    -0.02968717     1.86072788    -0.00062179    -0.00003229     0.00063077
H        -0.98924262     0.19734385    -0.57069021    -0.00033194     0.00059839    -0.00009533
     6
  Step:    20            Position(A)                                  Velocity(au)
C        -0.04266359    -0.00188028    -0.08197838     0.00007459    -0.00006280    -0.00082244
N        -0.03902784    -0.06068894     1.39079982    -0.00003798    -0.00002172     0.00062296
H         0.98395698     0.09669069    -0.55523540    -0.00033972     0.00031052    -0.00024143
H         0.85154899    -0.07159111     1.80429720     0.00075601     0.00014538     0.00092556
H        -1.00655913    -0.02981027     1.86409089    -0.00042004    -0.00001224     0.00057812
H        -0.99116372     0.20069508    -0.57128688    -0.00035720     0.00060653    -0.00011887
     6
  Step:    21            Position(A)                                  Velocity(au)
C        -0.04222249    -0.00223025    -0.08653244     0.00008354    -0.00006320    -0.00081649
N        -0.03931954    -0.06081763     1.39422566    -0.00006567    -0.00002457     0.00061068
H         0.98180164     0.09842475    -0.55646765    -0.00043070     0.00031441    -0.00020513
H         0.85632282    -0.07074437     1.80985105     0.00094560     0.00015917     0.00106511
H        -1.00833105    -0.02982318     1.86715394    -0.00021943     0.00000754     0.00052468
H        -0.99321304     0.20408575    -0.57201152    -0.00037837     0.00061349    -0.00014144
     6
  Step:    22            Position(A)                                  Velocity(au)
C        -0.04173575    -0.00258224    -0.09104644     0.00009100    -0.00006358    -0.00080867
N        -0.03975721    -0.06096183     1.39758208    -0.00009029    -0.00002733     0.00059849
H         0.97917355     0.10018252    -0.55751358    -0.00050969     0.00031944    -0.00017466
H         0.86205094    -0.06982332     1.81612640     0.00109789     0.00017221     0.00118498
H        -1.00899620    -0.02972654     1.86991807    -0.00002345     0.00002739     0.00047167
H        -0.99536593     0.20750862    -0.57285771    -0.00039449     0.00061843    -0.00016262
     6
  Step:    23            Position(A)                                  Velocity(au)
C        -0.04121215    -0.00293612    -0.09551058     0.00009675    -0.00006388    -0.00079857
N        -0.04032194    -0.06112111     1.40087032    -0.00011119    -0.00003001     0.00058615
H         0.97614290     0.10197129    -0.55840684    -0.00057512     0.00032572    -0.00015030
H         0.86851190    -0.06883241     1.82300710     0.00120805     0.00018425     0.00128239
H        -1.00859139    -0.02951906     1.87239062     0.00016417     0.00004762     0.00042044
H        -0.99759277     0.21095174    -0.57381697    -0.00040478     0.00062063    -0.00018207
     6
  Step:    24            Position(A)                                  Velocity(au)
C        -0.04066158    -0.00329145    -0.09991273     0.00010060    -0.00006407    -0.00078596
N        -0.04099178    -0.06129504     1.40408997    -0.00012792    -0.00003260     0.00057349
H         0.97278814     0.10379888    -0.55918235    -0.00062561     0.00033340    -0.00013230
H         0.87546362    -0.06777764     1.83036439     0.00127349     0.00019499     0.00135564
H        -1.00717341    -0.02919778     1.87458614     0.00033965     0.00006851     0.00037242
H        -0.99986009     0.21439930    -0.57487922    -0.00040871     0.00061955    -0.00019956
     6
  Step:    25            Position(A)                                  Velocity(au)
C        -0.04009483    -0.00364764    -0.10423954     0.00010244    -0.00006413    -0.00077078
N        -0.04174265    -0.06148318     1.40723955    -0.00014017    -0.00003510     0.00056039
H         0.96919478     0.10567405    -0.55987624    -0.00066007     0.00034271    -0.00012088
H         0.88265548    -0.06666683     1.83806299     0.00129385     0.00020410     0.00140421
H        -1.00481922    -0.02875816     1.87652672     0.00049931     0.00009032     0.00032903
H        -1.00213199     0.21783251    -0.57603334    -0.00040602     0.00061478    -0.00021496
     6
  Step:    26            Position(A)                                  Velocity(au)
C        -0.03952329    -0.00400400    -0.10847729     0.00010220    -0.00006406    -0.00075313
N        -0.04254925    -0.06168505     1.41031672    -0.00014781    -0.00003751     0.00054679
H         0.96545380     0.10760687    -0.56052546    -0.00067779     0.00035392    -0.00011612
H         0.88984026    -0.06550974     1.84596730     0.00127080     0.00021125     0.00142867
H        -1.00162528    -0.02819415     1.87824216     0.00063984     0.00011334     0.00029168
H        -1.00437157     0.22123037    -0.57726778    -0.00039671     0.00060605    -0.00022828
     6
  Step:    27            Position(A)                                  Velocity(au)
C        -0.03895861    -0.00435982    -0.11261265     0.00009986    -0.00006387    -0.00073318
N        -0.04338593    -0.06190020     1.41331866    -0.00015086    -0.00003983     0.00053267
H         0.96165929     0.10960891    -0.56116720    -0.00067852     0.00036737    -0.00011800
H         0.89678392    -0.06431815     1.85394660     0.00120761     0.00021610     0.00143043
H        -0.99770561    -0.02749808     1.87976961     0.00075836     0.00013786     0.00026166
H        -1.00654248     0.22457049    -0.57857133    -0.00038104     0.00059324    -0.00023966
     6
  Step:    28            Position(A)                                  Velocity(au)
C        -0.03841239    -0.00471448    -0.11663331     0.00009549    -0.00006358    -0.00071120
N        -0.04422745    -0.06212815     1.41624227    -0.00014949    -0.00004207     0.00051803
H         0.95790584     0.11169358    -0.56183809    -0.00066247     0.00038341    -0.00012634
H         0.90327394    -0.06310576     1.86187977     0.00110878     0.00021832     0.00141167
H        -0.99318907    -0.02666054     1.88115292     0.00085264     0.00016424     0.00024007
H        -1.00861035     0.22782972    -0.57993384    -0.00035954     0.00057630    -0.00024938
     6
  Step:    29            Position(A)                                  Velocity(au)
C        -0.03789578    -0.00506747    -0.12052835     0.00008919    -0.00006323    -0.00068750
N        -0.04504972    -0.06236847     1.41908436    -0.00014395    -0.00004424     0.00050288
H         0.95428592     0.11387633    -0.56257337    -0.00063031     0.00040246    -0.00014083
H         0.90912476    -0.06188820     1.86965863     0.00097955     0.00021758     0.00137501
H        -0.98821570    -0.02567011     1.88244156     0.00092113     0.00019286     0.00022777
H        -1.01054413     0.23098477    -0.58134695    -0.00033290     0.00055528    -0.00025784
     6
  Step:    30            Position(A)                                  Velocity(au)
C        -0.03741923    -0.00541848    -0.12428845     0.00008112    -0.00006284    -0.00066238
N        -0.04583026    -0.06262075     1.42184173    -0.00013458    -0.00004635     0.00048724
H         0.95088753     0.11617489    -0.56340622    -0.00058306     0.00042497    -0.00016104
H         0.91418095    -0.06068305     1.87719012     0.00082549     0.00021354     0.00132333
H        -0.98293253    -0.02451314     1.88368912     0.00096308     0.00022416     0.00022536
H        -1.01231712     0.23401260    -0.58280479    -0.00030201     0.00053025    -0.00026556
     6
  Step:    31            Position(A)                                  Velocity(au)
C        -0.03699224    -0.00576742    -0.12790582     0.00007147    -0.00006249    -0.00063606
N        -0.04654867    -0.06288467     1.42451118    -0.00012179    -0.00004840     0.00047108
H         0.94779193     0.11860959    -0.56436703    -0.00052210     0.00045145    -0.00018643
H         0.91831894    -0.05950987     1.88439769     0.00065228     0.00020581     0.00125966
H        -0.97748905    -0.02317342     1.88495162     0.00097850     0.00025866     0.00023310
H        -1.01390784     0.23689060    -0.58430467    -0.00026785     0.00050130    -0.00027318
     6
  Step:    32            Position(A)                                  Velocity(au)
C        -0.03662313    -0.00611451    -0.13137366     0.00006045    -0.00006220    -0.00060867
N        -0.04718693    -0.06315992     1.42708912    -0.00010601    -0.00005042     0.00045429
H         0.94507183     0.12120367    -0.56548284    -0.00044904     0.00048247    -0.00021638
H         0.92144673    -0.05839055     1.89122159     0.00046534     0.00019394     0.00118692
H        -0.97203285    -0.02163186     1.88628569     0.00096812     0.00029692     0.00025094
H        -1.01530079     0.23959664    -0.58584777    -0.00023155     0.00046850    -0.00028147
     6
  Step:    33            Position(A)                                  Velocity(au)
C        -0.03631893    -0.00646028    -0.13468553     0.00004830    -0.00006207    -0.00058016
N        -0.04772951    -0.06344623     1.42957131    -0.00008769    -0.00005238     0.00043670
H         0.94279020     0.12398366    -0.56677715    -0.00036566     0.00051869    -0.00025028
H         0.92350214    -0.05734970     1.89761830     0.00026970     0.00017737     0.00110788
H        -0.96670551    -0.01986615     1.88774672     0.00093332     0.00033954     0.00027849
H        -1.01648700     0.24210899    -0.58743987    -0.00019432     0.00043188    -0.00029135
     6
  Step:    34            Position(A)                                  Velocity(au)
C        -0.03608528    -0.00680570    -0.13783452     0.00003526    -0.00006216    -0.00055033
N        -0.04816347    -0.06374325     1.43195234    -0.00006728    -0.00005428     0.00041804
H         0.94099968     0.12697995    -0.56827005    -0.00027373     0.00056086    -0.00028761
H         0.92445026    -0.05641527     1.90355936     0.00006995     0.00015543     0.00102507
H        -0.96163901    -0.01785058     1.88938712     0.00087610     0.00038715     0.00031508
H        -1.01746483     0.24440626    -0.58909234    -0.00015754     0.00039151    -0.00030392
     6
  Step:    35            Position(A)                                  Velocity(au)
C        -0.03592639    -0.00715224    -0.14081218     0.00002160    -0.00006258    -0.00051876
N        -0.04847851    -0.06405051     1.43422517    -0.00004526    -0.00005607     0.00039793
H         0.93974284     0.13022749    -0.56997900    -0.00017493     0.00060986    -0.00032804
H         0.92428083    -0.05561933     1.90903012    -0.00012979     0.00012730     0.00094080
H        -0.95695215    -0.01555611     1.89125443     0.00079906     0.00044029     0.00035969
H        -1.01824087     0.24646753    -0.59082336    -0.00012281     0.00034750    -0.00032056
     6
  Step:    36            Position(A)                                  Velocity(au)
C        -0.03584497    -0.00750212    -0.14360723     0.00000758    -0.00006350    -0.00048471
N        -0.04866706    -0.06436721     1.43638042    -0.00002211    -0.00005768     0.00037580
H         0.93905308     0.13376631    -0.57192037    -0.00007073     0.00066660    -0.00037162
H         0.92300596    -0.05499865     1.91402846    -0.00032567     0.00009214     0.00085719
H        -0.95274724    -0.01295107     1.89338969     0.00070534     0.00049927     0.00041104
H        -1.01883139     0.24827322    -0.59265952    -0.00009202     0.00030028    -0.00034296
     6
  Step:    37            Position(A)                                  Velocity(au)
C        -0.03584213    -0.00785855    -0.14620316    -0.00000650    -0.00006514    -0.00044695
N        -0.04872440    -0.06469205     1.43840482     0.00000163    -0.00005898     0.00035075
H         0.93895618     0.13764154    -0.57411220     0.00003771     0.00073186    -0.00041901
H         0.92065874    -0.05459453     1.91856383    -0.00051399     0.00004931     0.00077616
H        -0.94910725    -0.01000319     1.89582609     0.00059858     0.00056377     0.00046766
H        -1.01926433     0.24980733    -0.59463780    -0.00006749     0.00025090    -0.00037312
     6
  Step:    38            Position(A)                                  Velocity(au)
C        -0.03591720    -0.00822616    -0.14857546    -0.00002027    -0.00006776    -0.00040384
N        -0.04864898    -0.06502287     1.44027935     0.00002534    -0.00005980     0.00032162
H         0.93947221     0.14190160    -0.57657802     0.00014941     0.00080569    -0.00047154
H         0.91729247    -0.05445057     1.92265626    -0.00069112    -0.00000107     0.00069952
H        -0.94609344    -0.00668428     1.89858821     0.00048283     0.00063230     0.00052795
H        -1.01958157     0.25106220    -0.59680712    -0.00005179     0.00020154    -0.00041313
     6
  Step:    39            Position(A)                                  Velocity(au)
C        -0.03606732    -0.00861132    -0.15068963    -0.00003986    -0.00008575    -0.00042315
N        -0.04844284    -0.06535644     1.44197791     0.00005785    -0.00007172     0.00034360
H         0.94061613     0.14659248    -0.57935088     0.00031491     0.00106093    -0.00063533
H         0.91298061    -0.05460642     1.92633520    -0.00102112    -0.00006858     0.00075230
H        -0.94374322    -0.00297852     1.90169147     0.00043373     0.00083955     0.00070618
H        -1.01983970     0.25204637    -0.59922750    -0.00005653     0.00018653    -0.00055568
     6
  Step:    40            Position(A)                                  Velocity(au)
C        -0.03629495    -0.00910151    -0.15287550    -0.00004198    -0.00008965    -0.00037191
N        -0.04808438    -0.06575105     1.44377011     0.00007074    -0.00007113     0.00030698
H         0.94261789     0.15234350    -0.58316620     0.00039224     0.00100877    -0.00072508
H         0.90696083    -0.05476858     1.93027799    -0.00113882     0.00001003     0.00067066
H        -0.94164990     0.00147334     1.90581617     0.00032166     0.00076980     0.00077607
H        -1.02018399     0.25333045    -0.60233757    -0.00005790     0.00026816    -0.00055578
     6
  Step:    41            Position(A)                                  Velocity(au)
C        -0.03653347    -0.00960680    -0.15481922    -0.00004396    -0.00009131    -0.00033512
N        -0.04765734    -0.06614623     1.44538650     0.00008255    -0.00007188     0.00027974
H         0.94497140     0.15779345    -0.58740194     0.00044279     0.00095621    -0.00078704
H         0.90033554    -0.05449504     1.93378201    -0.00123886     0.00008471     0.00059567
H        -0.94017157     0.00556908     1.91030871     0.00021399     0.00071456     0.00083790
H        -1.02048265     0.25502396    -0.60539868    -0.00004117     0.00033141    -0.00054053
     6
  Step:    42            Position(A)                                  Velocity(au)
C        -0.03678299    -0.01011517    -0.15659577    -0.00004597    -0.00009109    -0.00030976
N        -0.04716801    -0.06654897     1.44687558     0.00009307    -0.00007369     0.00025981
H         0.94753338     0.16295859    -0.59190332     0.00046987     0.00090870    -0.00082346
H         0.89320797    -0.05382815     1.93689060    -0.00131905     0.00014979     0.00052953
H        -0.93927435     0.00940586     1.91511783     0.00011384     0.00067720     0.00088995
H        -1.02064098     0.25700949    -0.60833811    -0.00001013     0.00037376    -0.00051528
     6
  Step:    43            Position(A)                                  Velocity(au)
C        -0.03704371    -0.01061782    -0.15825709    -0.00004791    -0.00008958    -0.00029188
N        -0.04662444    -0.06696406     1.44827001     0.00010190    -0.00007617     0.00024448
H         0.95018630     0.16787882    -0.59654123     0.00047782     0.00086862    -0.00083936
H         0.88569587    -0.05283254     1.93965905    -0.00137664     0.00020329     0.00047411
H        -0.93890808     0.01308515     1.92018594     0.00002400     0.00065652     0.00093133
H        -1.02059513     0.25917225    -0.61111764     0.00002976     0.00039751    -0.00048536
     6
  Step:    44            Position(A)                                  Velocity(au)
C        -0.03731466    -0.01110916    -0.15983450    -0.00004956    -0.00008725    -0.00027845
N        -0.04603734    -0.06739420     1.44958834     0.00010857    -0.00007902     0.00023168
H         0.95283541     0.17259709    -0.60121708     0.00047009     0.00083561    -0.00083960
H         0.87793235    -0.05157233     1.94215148    -0.00140916     0.00024623     0.00043076
H        -0.93900804     0.01669083     1.92545213    -0.00005314     0.00064896     0.00096152
H        -1.02031074     0.26142039    -0.61372381     0.00007404     0.00040694    -0.00045416
     6