     6
  Step:     0            Position(A)                                  Velocity(au)
C        -0.03628599     0.00832654     0.00638146     0.00005630     0.00015225     0.00010860
N        -0.04804128    -0.05455891     1.31721746    -0.00033258    -0.00017007    -0.00004658
H         0.95631614     0.07456281    -0.57046100     0.00037376    -0.00028251    -0.00022672
H         0.89243422    -0.07242293     1.78945681     0.00144209     0.00051920    -0.00000025
H        -0.97059549    -0.10820171     1.82595037     0.00213254     0.00094623    -0.00032297
H        -0.99110802     0.09523440    -0.53346451     0.00000240    -0.00063370    -0.00009682
     6
  Step:     1            Position(A)                                  Velocity(au)
C        -0.03595723     0.00915994     0.00690079     0.00006417     0.00015252     0.00008086
N        -0.04985676    -0.05549096     1.31703580    -0.00032843    -0.00017067    -0.00002004
H         0.95812318     0.07301163    -0.57167760     0.00028404    -0.00028474    -0.00021640
H         0.90003249    -0.06958900     1.78953312     0.00132126     0.00051721     0.00002051
H        -0.95861879    -0.10303981     1.82418465     0.00222214     0.00093985    -0.00030913
H        -0.99117898     0.09181152    -0.53422226    -0.00002813    -0.00061808    -0.00018000
     6
  Step:     2            Position(A)                                  Velocity(au)
C        -0.03558385     0.00999545     0.00726621     0.00007244     0.00015282     0.00005241
N        -0.05163493    -0.05642634     1.31699821    -0.00031852    -0.00017107     0.00000577
H         0.95942408     0.07144720    -0.57282888     0.00018911    -0.00028694    -0.00020293
H         0.90689151    -0.06676358     1.78968119     0.00117236     0.00051529     0.00002696
H        -0.94628080    -0.09791783     1.82256781     0.00225941     0.00093066    -0.00026666
H        -0.99141581     0.08847133    -0.53543409    -0.00005774    -0.00060277    -0.00026208
     6
  Step:     3            Position(A)                                  Velocity(au)
C        -0.03516411     0.01083320     0.00747459     0.00008093     0.00015316     0.00002359
N        -0.05334423    -0.05736397     1.31709902    -0.00030295    -0.00017130     0.00003021
H         0.96019372     0.06986994    -0.57389940     0.00009049    -0.00028906    -0.00018703
H         0.91286849    -0.06394711     1.78982832     0.00099999     0.00051325     0.00002120
H        -0.93388069    -0.09285013     1.82126506     0.00224064     0.00091927    -0.00019297
H        -0.99181115     0.08521181    -0.53709177    -0.00008553    -0.00058800    -0.00034211
     6
  Step:     4            Position(A)                                  Velocity(au)
C        -0.03469726     0.01167334     0.00752468     0.00008947     0.00015355    -0.00000525
N        -0.05495380    -0.05830294     1.31732917    -0.00028195    -0.00017141     0.00005271
H         0.96041540     0.06828057    -0.57487786    -0.00001029    -0.00029104    -0.00016951
H         0.91784647    -0.06114096     1.78991341     0.00080898     0.00051095     0.00000537
H        -0.92173455    -0.08784725     1.82045380     0.00216401     0.00090650    -0.00008648
H        -0.99235277     0.08202981    -0.53918195    -0.00011066    -0.00057398    -0.00041925
     6
  Step:     5            Position(A)                                  Velocity(au)
C        -0.03418354     0.01251611     0.00741704     0.00009787     0.00015401    -0.00003382
N        -0.05643446    -0.05924269     1.31767672    -0.00025592    -0.00017148     0.00007284
H         0.96008092     0.06668006    -0.57575723    -0.00011172    -0.00029288    -0.00015114
H         0.92173499    -0.05834702     1.78988713     0.00060409     0.00050837    -0.00001839
H        -0.91016300    -0.08291481     1.82031728     0.00203010     0.00089335     0.00005316
H        -0.99302400     0.07892096    -0.54168673    -0.00013239    -0.00056094    -0.00049275
     6
  Step:     6            Position(A)                                  Velocity(au)
C        -0.03362421     0.01336184     0.00715388     0.00010597     0.00015455    -0.00006184
N        -0.05775963    -0.06018303     1.31812772    -0.00022541    -0.00017158     0.00009031
H         0.95919052     0.06506946    -0.57653491    -0.00021232    -0.00029456    -0.00013272
H         0.92446960    -0.05556729     1.78971174     0.00038989     0.00050550    -0.00004802
H        -0.89947695    -0.07805271     1.82103668     0.00184215     0.00088089     0.00022473
H        -0.99380425     0.07587975    -0.54458437    -0.00015007    -0.00054908    -0.00056203
     6
  Step:     7            Position(A)                                  Velocity(au)
C        -0.03302146     0.01421097     0.00673887     0.00011359     0.00015521    -0.00008908
N        -0.05890635    -0.06112427     1.31866707    -0.00019117    -0.00017180     0.00010503
H         0.95775258     0.06344983    -0.57721262    -0.00031066    -0.00029609    -0.00011503
H         0.92601054    -0.05280359     1.78936057     0.00017067     0.00050239    -0.00008153
H        -0.88996168    -0.07325479     1.82278171     0.00160624     0.00087019     0.00042524
H        -0.99466964     0.07289969    -0.54785007    -0.00016315    -0.00053853    -0.00062661
     6
  Step:     8            Position(A)                                  Velocity(au)
C        -0.03237844     0.01506406     0.00617689     0.00012056     0.00015598    -0.00011534
N        -0.05985628    -0.06206718     1.31927957    -0.00015411    -0.00017221     0.00011705
H         0.95578344     0.06182221    -0.57779646    -0.00040533    -0.00029744    -0.00009885
H         0.92634133    -0.05005742     1.78881757    -0.00004952     0.00049909    -0.00011705
H        -0.88186094    -0.06850911     1.82570035     0.00133111     0.00086219     0.00064985
H        -0.99559361     0.06997352    -0.55145658    -0.00017122    -0.00052940    -0.00068610
     6
  Step:     9            Position(A)                                  Velocity(au)
C        -0.03169925     0.01592169     0.00547390     0.00012670     0.00015687    -0.00014043
N        -0.06059658    -0.06301292     1.31995080    -0.00011528    -0.00017286     0.00012660
H         0.95330722     0.06018771    -0.57829677    -0.00049490    -0.00029860    -0.00008495
H         0.92546744    -0.04732986     1.78807687    -0.00026679     0.00049565    -0.00015274
H        -0.87536290    -0.06379889     1.82990882     0.00102787     0.00085758     0.00089193
H        -0.99654745     0.06709356    -0.55537474    -0.00017391    -0.00052170    -0.00074014
     6
  Step:    10            Position(A)                                  Velocity(au)
C        -0.03098893     0.01678443     0.00463679     0.00013183     0.00015785    -0.00016418
N        -0.06112060    -0.06396291     1.32066801    -0.00007585    -0.00017377     0.00013402
H         0.95035583     0.05854749    -0.57872809    -0.00057793    -0.00029951    -0.00007406
H         0.92341546    -0.04462161     1.78714252    -0.00047731     0.00049210    -0.00018678
H        -0.87058833    -0.05910405     1.83548211     0.00070938     0.00085673     0.00114323
H        -0.99750083     0.06425205    -0.55957371    -0.00017096    -0.00051536    -0.00078840
     6
  Step:    11            Position(A)                                  Velocity(au)
C        -0.03025350     0.01765276     0.00367337     0.00013576     0.00015888    -0.00018640
N        -0.06142844    -0.06491863     1.32142059    -0.00003706    -0.00017492     0.00013972
H         0.94696915     0.05690298    -0.57910898    -0.00065288    -0.00030012    -0.00006691
H         0.92023287    -0.04193308     1.78602847    -0.00067717     0.00048845    -0.00021735
H        -0.86758322    -0.05440327     1.84244647     0.00038953     0.00085960     0.00139434
H        -0.99842230     0.06144164    -0.56402103    -0.00016221    -0.00051026    -0.00083053
     6
  Step:    12            Position(A)                                  Velocity(au)
C        -0.02949999     0.01852690     0.00259245     0.00013829     0.00015990    -0.00020689
N        -0.06152705    -0.06588137     1.32220042    -0.00000015    -0.00017625     0.00014414
H         0.94319534     0.05525596    -0.57946197    -0.00071815    -0.00030031    -0.00006420
H         0.91598855    -0.03926448     1.78475869    -0.00086229     0.00048471    -0.00024258
H        -0.86631614    -0.04967633     1.85077453     0.00008224     0.00086573     0.00163517
H        -0.99927983     0.05865578    -0.56868254    -0.00014759    -0.00050617    -0.00086612
     6
  Step:    13            Position(A)                                  Velocity(au)
C        -0.02873645     0.01940679     0.00140388     0.00013925     0.00016084    -0.00022541
N        -0.06143012    -0.06685205     1.32300179     0.00003366    -0.00017766     0.00014768
H         0.93909121     0.05360869    -0.57981327    -0.00077208    -0.00029997    -0.00006658
H         0.91077373    -0.03661591     1.78336745    -0.00102837     0.00048087    -0.00026053
H        -0.86668103    -0.04490641     1.86038385    -0.00019945     0.00087427     0.00185570
H        -1.00004137     0.05588911    -0.57352214    -0.00012718    -0.00050282    -0.00089476
     6
  Step:    14            Position(A)                                  Velocity(au)
C        -0.02797189     0.02029195     0.00011875     0.00013844     0.00016161    -0.00024173
N        -0.06115761    -0.06783102     1.32382109     0.00006331    -0.00017903     0.00015067
H         0.93472244     0.05196402    -0.58019260    -0.00081305    -0.00029901    -0.00007461
H         0.90470318    -0.03398732     1.78189956    -0.00117095     0.00047697    -0.00026929
H        -0.86850492    -0.04008205     1.87113917    -0.00044433     0.00088407     0.00204672
H        -1.00067551     0.05313779    -0.57850172    -0.00010117    -0.00049991    -0.00091606
     6
  Step:    15            Position(A)                                  Velocity(au)
C        -0.02721622     0.02118145    -0.00125051     0.00013575     0.00016214    -0.00025559
N        -0.06073492    -0.06881792     1.32465625     0.00008789    -0.00018023     0.00015332
H         0.93016324     0.05032536    -0.58063259    -0.00083959    -0.00029731    -0.00008875
H         0.89791575    -0.03137837     1.78041037    -0.00128566     0.00047307    -0.00026701
H        -0.87156014    -0.03519859     1.88285858    -0.00064374     0.00089383     0.00220052
H        -1.00115228     0.05039965    -0.58358123    -0.00006992    -0.00049713    -0.00092969
     6
  Step:    16            Position(A)                                  Velocity(au)
C        -0.02647999     0.02207390    -0.00269020     0.00012851     0.00016561    -0.00032994
N        -0.06019174    -0.06981171     1.32550609     0.00010979    -0.00018477     0.00020522
H         0.92549527     0.04869658    -0.58116797    -0.00087326    -0.00031063    -0.00005959
H         0.89057366    -0.02878821     1.77896511    -0.00140789     0.00049051    -0.00026053
H        -0.87557965    -0.03025878     1.89532300    -0.00078419     0.00088824     0.00228546
H        -1.00144390     0.04767427    -0.58871906     0.00000831    -0.00047384    -0.00088557
     6
  Step:    17            Position(A)                                  Velocity(au)
C        -0.02580236     0.02300348    -0.00488052     0.00011641     0.00017200    -0.00046277
N        -0.05952698    -0.07085075     1.32691411     0.00012861    -0.00019230     0.00030498
H         0.92055556     0.04690781    -0.58128821    -0.00091077    -0.00031798     0.00001282
H         0.88242607    -0.02598178     1.77754404    -0.00153163     0.00050459    -0.00024867
H        -0.88018786    -0.02542609     1.90800326    -0.00086369     0.00088691     0.00229833
H        -1.00106080     0.04518646    -0.59332430     0.00013183    -0.00045075    -0.00078621
     6
  Step:    18            Position(A)                                  Velocity(au)
C        -0.02519746     0.02396898    -0.00778885     0.00010200     0.00017770    -0.00058726
N        -0.05877479    -0.07193042     1.32886628     0.00014087    -0.00019882     0.00040021
H         0.91546055     0.04519312    -0.58102672    -0.00092551    -0.00030047     0.00007648
H         0.87369851    -0.02322874     1.77622534    -0.00161009     0.00049110    -0.00022109
H        -0.88509555    -0.02048705     1.92064545    -0.00089197     0.00090449     0.00226514
H        -0.99999138     0.04270800    -0.59738138     0.00025452    -0.00044965    -0.00068419
     6
  Step:    19            Position(A)                                  Velocity(au)
C        -0.02467644     0.02496491    -0.01136277     0.00008570     0.00018214    -0.00070037
N        -0.05797205    -0.07304532     1.33133172     0.00014632    -0.00020414     0.00048833
H         0.91033965     0.04359121    -0.58044405    -0.00091536    -0.00027846     0.00012781
H         0.86465366    -0.02056090     1.77510358    -0.00163775     0.00047494    -0.00017572
H        -0.89003354    -0.01544224     1.93300614    -0.00087329     0.00091820     0.00218826
H        -0.99825143     0.04022315    -0.60087646     0.00037184    -0.00044825    -0.00058074
     6
  Step:    20            Position(A)                                  Velocity(au)
C        -0.02424931     0.02598401    -0.01553705     0.00006778     0.00018508    -0.00079983
N        -0.05715606    -0.07418879     1.33426872     0.00014504    -0.00020806     0.00056738
H         0.90533383     0.04211255    -0.57961273    -0.00087887    -0.00025493     0.00016499
H         0.85558002    -0.01797451     1.77428139    -0.00161121     0.00045993    -0.00011167
H        -0.89475684    -0.01032895     1.94485426    -0.00081306     0.00092400     0.00207126
H        -0.99587767     0.03774900    -0.60380613     0.00047998    -0.00044313    -0.00047821
     6
  Step:    21            Position(A)                                  Velocity(au)
C        -0.02392467     0.02701780    -0.02023450     0.00004856     0.00018637    -0.00088384
N        -0.05636326    -0.07535307     1.33762509     0.00013740    -0.00021044     0.00063571
H         0.90059127     0.04076356    -0.57861403    -0.00081567    -0.00023038     0.00018685
H         0.84678211    -0.01545936     1.77386492    -0.00152971     0.00044686    -0.00002916
H        -0.89905205    -0.00519322     1.95598051    -0.00071800     0.00092112     0.00191953
H        -0.99292744     0.03530795    -0.60618076     0.00057536    -0.00043391    -0.00037933
     6
  Step:    22            Position(A)                                  Velocity(au)
C        -0.02370912     0.02805707    -0.02536859     0.00002850     0.00018598    -0.00095137
N        -0.05562769    -0.07652966     1.34134012     0.00012405    -0.00021127     0.00069227
H         0.89626059     0.03954991    -0.57753425    -0.00072682    -0.00020503     0.00019305
H         0.83856411    -0.01300381     1.77395700    -0.00139582     0.00043600     0.00007034
H        -0.90274359    -0.00008280     1.96620646    -0.00059575     0.00090982     0.00174007
H        -0.98947755     0.03292232    -0.60802561     0.00065491    -0.00042090    -0.00028687
     6
  Step:    23            Position(A)                                  Velocity(au)
C        -0.02360674     0.02909253    -0.03084785     0.00000808     0.00018403    -0.00100244
N        -0.05497934    -0.07771000     1.34534793     0.00010593    -0.00021068     0.00073683
H         0.89248290     0.03847633    -0.57646037    -0.00061481    -0.00017919     0.00018408
H         0.83121050    -0.01059544     1.77464961    -0.00121561     0.00042761     0.00018424
H        -0.90569813     0.00495662     1.97539254    -0.00045440     0.00089120     0.00154096
H        -0.98562137     0.03061242    -0.60938101     0.00071637    -0.00040475    -0.00020343
     6
  Step:    24            Position(A)                                  Velocity(au)
C        -0.02361869     0.03011556    -0.03658165    -0.00001217     0.00018078    -0.00103822
N        -0.05444273    -0.07888628     1.34958216     0.00008418    -0.00020893     0.00077011
H         0.88938349     0.03754553    -0.57547522    -0.00048334    -0.00015327     0.00016129
H         0.82496653    -0.00822064     1.77601788    -0.00099815     0.00042199     0.00030907
H        -0.90782637     0.00988602     1.98344333    -0.00030177     0.00086697     0.00133065
H        -0.98146441     0.02839485    -0.61030118     0.00075851    -0.00038634    -0.00013121
     6
  Step:    25            Position(A)                                  Velocity(au)
C        -0.02374317     0.03111907    -0.04248639    -0.00003181     0.00017659    -0.00106088
N        -0.05403569    -0.08005219     1.35398092     0.00006002    -0.00020642     0.00079363
H         0.88706463     0.03675813    -0.57465232    -0.00033687    -0.00012766     0.00012673
H         0.82002104    -0.00586482     1.77811430    -0.00075447     0.00041937     0.00044089
H        -0.90908105     0.01467542     1.99030937    -0.00014482     0.00083919     0.00111715
H        -0.97711831     0.02628147    -0.61085186     0.00078117    -0.00036666    -0.00007177
     6
  Step:    26            Position(A)                                  Velocity(au)
C        -0.02397573     0.03209793    -0.04849093    -0.00005044     0.00017186    -0.00107319
N        -0.05376900    -0.08120347     1.35849130     0.00003464    -0.00020354     0.00080946
H         0.88560182     0.03611248    -0.57405256    -0.00017995    -0.00010265     0.00008279
H         0.81649693    -0.00351286     1.78096727    -0.00049604     0.00041982     0.00057587
H        -0.90945210     0.01930663     1.99598423     0.00001083     0.00081010     0.00090712
H        -0.97269514     0.02427874    -0.61110689     0.00078485    -0.00034669    -0.00002609
     6
  Step:    27            Position(A)                                  Velocity(au)
C        -0.02430969     0.03304925    -0.05453963    -0.00006778     0.00016694    -0.00107794
N        -0.05364664    -0.08233814     1.36307213     0.00000913    -0.00020066     0.00081975
H         0.88504363     0.03560521    -0.57372252    -0.00001674    -0.00007842     0.00003191
H         0.81444990    -0.00114977     1.78458201    -0.00023366     0.00042318     0.00071043
H        -0.90895945     0.02377381     2.00049740     0.00016093     0.00078168     0.00070552
H        -0.96830352     0.02238770    -0.61114485     0.00077034    -0.00032724     0.00000543
     6
  Step:    28            Position(A)                                  Velocity(au)
C        -0.02473669     0.03397210    -0.06059240    -0.00008358     0.00016208    -0.00107742
N        -0.05366654    -0.08345617     1.36769419    -0.00001560    -0.00019803     0.00082630
H         0.88541388     0.03523206    -0.57369431     0.00014901    -0.00005497    -0.00002354
H         0.81387379     0.00123799     1.78894288     0.00002313     0.00042900     0.00084121
H        -0.90764543     0.02808212     2.00390469     0.00030236     0.00075540     0.00051556
H        -0.96404701     0.02060499    -0.61104592     0.00073826    -0.00030885     0.00002276
     6
  Step:    29            Position(A)                                  Velocity(au)
C        -0.02524701     0.03486688    -0.06662187    -0.00009761     0.00015740    -0.00107311
N        -0.05382156    -0.08455889     1.37233834    -0.00003873    -0.00019575     0.00083032
H         0.88671460     0.03498876    -0.57398644     0.00031382    -0.00003218    -0.00008132
H         0.81470928     0.00366102     1.79401540     0.00026601     0.00043645     0.00096487
H        -0.90556881     0.03224489     2.00627889     0.00043255     0.00073213     0.00033920
H        -0.96002461     0.01892427    -0.61088962     0.00068894    -0.00029176     0.00002612
     6
  Step:    30            Position(A)                                  Velocity(au)
C        -0.02582966     0.03573468    -0.07260892    -0.00010958     0.00015290    -0.00106570
N        -0.05410027    -0.08564816     1.37699195    -0.00005955    -0.00019377     0.00083235
H         0.88892802     0.03487171    -0.57460493     0.00047421    -0.00000988    -0.00013931
H         0.81685258     0.00612525     1.79974736     0.00048768     0.00044445     0.00107798
H        -0.90280182     0.03628045     2.00770303     0.00054903     0.00071228     0.00017781
H        -0.95633237     0.01733791    -0.61075341     0.00062242    -0.00027600     0.00001590
     6
  Step:    31            Position(A)                                  Velocity(au)
C        -0.02647228     0.03657657    -0.07853823    -0.00011921     0.00014850    -0.00105530
N        -0.05448748    -0.08672562     1.38164540    -0.00007740    -0.00019198     0.00083245
H         0.89201702     0.03487824    -0.57554414     0.00062646     0.00001206    -0.00019543
H         0.82016233     0.00863068     1.80606900     0.00068166     0.00045175     0.00117708
H        -0.89942974     0.04020938     2.00826706     0.00064912     0.00069593     0.00003262
H        -0.95306486     0.01583813    -0.61071183     0.00053884    -0.00026145    -0.00000732
     6
  Step:    32            Position(A)                                  Velocity(au)
C        -0.02716108     0.03739320    -0.08439502    -0.00012623     0.00014410    -0.00104170
N        -0.05496468    -0.08779225     1.38628920    -0.00009167    -0.00019020     0.00083038
H         0.89592461     0.03500645    -0.57678757     0.00076673     0.00003377    -0.00024770
H         0.82446570     0.01117059     1.81289358     0.00084249     0.00045711     0.00125900
H        -0.89555207     0.04405293     2.00806729     0.00072999     0.00068307    -0.00009497
H        -0.95031432     0.01441794    -0.61083521     0.00043881    -0.00024793    -0.00004266
     6
  Step:    33            Position(A)                                  Velocity(au)
C        -0.02788100     0.03818466    -0.09016343    -0.00013043     0.00013959    -0.00102468
N        -0.05551046    -0.08884818     1.39091234    -0.00010187    -0.00018829     0.00082580
H         0.90057359     0.03525513    -0.57830843     0.00089127     0.00005529    -0.00029431
H         0.82956438     0.01373195     1.82011927     0.00096599     0.00045945     0.00132117
H        -0.89128318     0.04783237     2.00720717     0.00078880     0.00067375    -0.00020342
H        -0.94816776     0.01307125    -0.61118796     0.00032375    -0.00023529    -0.00008884
     6
  Step:    34            Position(A)                                  Velocity(au)
C        -0.02861612     0.03895047    -0.09582640    -0.00013170     0.00013491    -0.00100416
N        -0.05610114    -0.08989279     1.39550182    -0.00010766    -0.00018615     0.00081841
H         0.90586761     0.03562332    -0.58007093     0.00099677     0.00007663    -0.00033377
H         0.83524229     0.01629619     1.82763263     0.00104965     0.00045792     0.00136194
H        -0.88675224     0.05156927     2.00579790     0.00082304     0.00066810    -0.00029125
H        -0.94670252     0.01179299    -0.61182627     0.00019597    -0.00022340    -0.00014414
     6
  Step:    35            Position(A)                                  Velocity(au)
C        -0.02935028     0.03968977    -0.10136626    -0.00013008     0.00013001    -0.00098025
N        -0.05671157    -0.09092495     1.40004282    -0.00010887    -0.00018373     0.00080803
H         0.91169398     0.03611008    -0.58203216     0.00108068     0.00009775    -0.00036500
H         0.84127472     0.01884071     1.83531364     0.00109283     0.00045201     0.00138072
H        -0.88210105     0.05528600     2.00395789     0.00083084     0.00066639    -0.00035728
H        -0.94598148     0.01057895    -0.61279600     0.00005861    -0.00021213    -0.00020648
     6
  Step:    36            Position(A)                                  Velocity(au)
C        -0.03006783     0.04040144    -0.10676595    -0.00012575     0.00012490    -0.00095327
N        -0.05731613    -0.09194327     1.40451947    -0.00010552    -0.00018104     0.00079466
H         0.91792803     0.03671418    -0.58414435     0.00114140     0.00011858    -0.00038738
H         0.84743827     0.02134063     1.84304147     0.00109671     0.00044152     0.00137801
H        -0.87748006     0.05900618     2.00181070     0.00081123     0.00066892    -0.00040088
H        -0.94604843     0.00942560    -0.61413057    -0.00008447    -0.00020142    -0.00027348
     6
  Step:    37            Position(A)                                  Velocity(au)
C        -0.03075438     0.04108431    -0.11201011    -0.00011902     0.00011957    -0.00092374
N        -0.05788982    -0.09294640     1.40891575    -0.00009783    -0.00017812     0.00077845
H         0.92443840     0.03743408    -0.58635744     0.00117834     0.00013907    -0.00040075
H         0.85352022     0.02377060     1.85070000     0.00106409     0.00042657     0.00135526
H        -0.87304311     0.06275493     1.99948184     0.00076429     0.00067602    -0.00042213
H        -0.94692459     0.00833001    -0.61584960    -0.00022898    -0.00019117    -0.00034262
     6
  Step:    38            Position(A)                                  Velocity(au)
C        -0.03139750     0.04173730    -0.11708611    -0.00011028     0.00011408    -0.00089231
N        -0.05840912    -0.09393329     1.41321638    -0.00008616    -0.00017506     0.00075968
H         0.93109253     0.03826791    -0.58862151     0.00119189     0.00015917    -0.00040537
H         0.85932640     0.02610637     1.85818263     0.00099897     0.00040755     0.00131467
H        -0.86894137     0.06655875     1.99709460     0.00069121     0.00068794    -0.00042193
H        -0.94860667     0.00728977    -0.61795830    -0.00037056    -0.00018132    -0.00041135
     6
  Step:    39            Position(A)                                  Velocity(au)
C        -0.03198717     0.04235956    -0.12198473    -0.00010002     0.00010848    -0.00085967
N        -0.05885299    -0.09490331     1.41740778    -0.00007103    -0.00017195     0.00073877
H         0.93776183     0.03921337    -0.59088885     0.00118332     0.00017885    -0.00040188
H         0.86468717     0.02832633     1.86539593     0.00090625     0.00038499     0.00125893
H        -0.86531648     0.07044504     1.99476528     0.00059434     0.00070481    -0.00040203
H        -0.95106689     0.00630316    -0.62044786    -0.00050500    -0.00017177    -0.00047733
     6
  Step:    40            Position(A)                                  Velocity(au)
C        -0.03251612     0.04295047    -0.12670044    -0.00008873     0.00010281    -0.00082651
N        -0.05920349    -0.09585632     1.42147858    -0.00005303    -0.00016888     0.00071618
H         0.94432648     0.04026817    -0.59311608     0.00115456     0.00019814    -0.00039119
H         0.86946165     0.03041200     1.87226218     0.00079120     0.00035955     0.00119099
H        -0.86229440     0.07444118     1.99259842     0.00047702     0.00072656    -0.00036492
H        -0.95425446     0.00536873    -0.62329663    -0.00062854    -0.00016247    -0.00053847
     6
  Step:    41            Position(A)                                  Velocity(au)
C        -0.03297981     0.04350971    -0.13123131    -0.00007688     0.00009712    -0.00079345
N        -0.05944630    -0.09679264     1.42542009    -0.00003284    -0.00016593     0.00069242
H         0.95067853     0.04143002    -0.59526528     0.00110795     0.00021704    -0.00037432
H         0.87353877     0.03234881     1.87872019     0.00065913     0.00033194     0.00111380
H        -0.85997978     0.07857341     1.99068270     0.00034343     0.00075288    -0.00031374
H        -0.95809864     0.00448550    -0.62647204    -0.00073804    -0.00015333    -0.00059308
     6
  Step:    42            Position(A)                                  Velocity(au)
C        -0.03337637     0.04403722    -0.13557870    -0.00006492     0.00009146    -0.00076100
N        -0.05957096    -0.09771298     1.42922641    -0.00001115    -0.00016316     0.00066796
H         0.95672388     0.04269676    -0.59730456     0.00104599     0.00023561    -0.00035237
H         0.87683702     0.03412620     1.88472504     0.00051513     0.00030285     0.00103015
H        -0.85845159     0.08286554     1.98908778     0.00019838     0.00078324    -0.00025208
H        -0.96251270     0.00365299    -0.62993286    -0.00083108    -0.00014427    -0.00063984
     6
  Step:    43            Position(A)                                  Velocity(au)
C        -0.03370620     0.04453315    -0.13974660    -0.00005321     0.00008586    -0.00072954
N        -0.05957101    -0.09861830     1.43289434     0.00001135    -0.00016059     0.00064324
H         0.96238281     0.04406642    -0.59920821     0.00097121     0.00025389    -0.00032641
H         0.87930289     0.03573758     1.89024721     0.00036392     0.00027296     0.00094260
H        -0.85776000     0.08733762     1.98786205     0.00004709     0.00081686    -0.00018377
H        -0.96739810     0.00287115    -0.63363163    -0.00090597    -0.00013520    -0.00067786
     6
  Step:    44            Position(A)                                  Velocity(au)
C        -0.03397167     0.04499781    -0.14374095    -0.00004206     0.00008033    -0.00069934
N        -0.05944393    -0.09950964     1.43642310     0.00003397    -0.00015821     0.00061863
H         0.96758996     0.04553733    -0.60095650     0.00088606     0.00027193    -0.00029745
H         0.88090866     0.03718010     1.89527106     0.00020983     0.00024288     0.00085344
H        -0.85792477     0.09200467     1.98703175    -0.00010506     0.00085272    -0.00011273
H        -0.97264882     0.00214030    -0.63751691    -0.00096171    -0.00012606    -0.00070662
     6