 Fermi distribution function

Calculation with static geometry


********************************************************************************
 iSCC Total electronic   Diff electronic      SCC error    
   10   -0.53372620E+01   -0.67241857E-09    0.53850287E-06
********************************************************************************

 Total charge:     1.00000000

 Atomic gross charges (e)
 Atom           Charge
    1       0.25783660
    2      -0.13889756
    3       0.17661049
    4       0.26299192
    5       0.26359784
    6       0.17786071

Nr. of electrons (up):     12.00000000
Atom populations (up)
 Atom       Population
    1       3.74216340
    2       5.13889756
    3       0.82338951
    4       0.73700808
    5       0.73640216
    6       0.82213929

l-shell populations (up)
 Atom Sh.   l       Population
    1   1   0       1.36322916
    1   2   1       2.37893424
    2   1   0       1.49146087
    2   2   1       3.64743669
    3   1   0       0.82338951
    4   1   0       0.73700808
    5   1   0       0.73640216
    6   1   0       0.82213929

Orbital populations (up)
 Atom Sh.   l   m       Population  Label
    1   1   0   0       1.36322916  s
    1   2   1  -1       0.48110235  p_y
    1   2   1   0       0.88248619  p_z
    1   2   1   1       1.01534570  p_x
    2   1   0   0       1.49146087  s
    2   2   1  -1       1.35134496  p_y
    2   2   1   0       1.13190291  p_z
    2   2   1   1       1.16418882  p_x
    3   1   0   0       0.82338951  s
    4   1   0   0       0.73700808  s
    5   1   0   0       0.73640216  s
    6   1   0   0       0.82213929  s

Fermi level:                        -0.5266104932 H          -14.3298 eV
Band energy:                        -8.8414788969 H         -240.5889 eV
TS:                                  0.0000000000 H            0.0000 eV
Band free energy (E-TS):            -8.8414788969 H         -240.5889 eV
Extrapolated E(0K):                 -8.8414788969 H         -240.5889 eV
Input / Output electrons (q):     12.0000000000     12.0000000000

Energy H0:                          -5.4748188798 H         -148.9774 eV
Energy SCC:                          0.1375569104 H            3.7431 eV
Total Electronic energy:            -5.3372619694 H         -145.2343 eV
Repulsive energy:                    0.1639950336 H            4.4625 eV
Total energy:                       -5.1732669357 H         -140.7718 eV
Extrapolated to 0:                  -5.1732669357 H         -140.7718 eV
Total Mermin free energy:           -5.1732669357 H         -140.7718 eV
Force related energy:               -5.1732669357 H         -140.7718 eV

SCC converged

Excitation Energy:                   0.1510527906 H            4.1104 eV

Total Forces
    1      0.027701360398     -0.009304857012      0.032625000123
    2     -0.008153835776      0.007003658013     -0.025198490037
    3      0.003485132912     -0.005771251274     -0.016881443978
    4     -0.001326876043      0.002996279218     -0.003923816007
    5     -0.009683771475     -0.007404501086      0.014635276712
    6     -0.012022010016      0.012480672141     -0.001256526813

Maximal derivative component:        0.326250E-01 au


