|===============================================================================
|
|  DFTB+ release 20.1
|
|  Copyright (C) 2006 - 2020  DFTB+ developers group
|
|===============================================================================
|
|  When publishing results obtained with DFTB+, please cite the following
|  reference:
|
|  * DFTB+, a software package for efficient approximate density functional
|    theory based atomistic simulations, J. Chem. Phys. 152, 124101 (2020).
|    [doi: 10.1063/1.5143190]
|
|  You should also cite additional publications crediting the parametrization
|  data you use. Please consult the documentation of the SK-files for the
|  references.
|
|===============================================================================

Reading input file 'dftb_in.hsd'
Parser version: 8

--------------------------------------------------------------------------------
Reading SK-files:
Done.


Processed input in HSD format written to 'dftb_pin.hsd'

Starting initialization...
--------------------------------------------------------------------------------
WARNING!
-> Excited state forces are not implemented yet for fractional occupations, kT=  0.3158E-02K
OpenMP threads:              1
Chosen random seed:          505836467
Mode:                        Static calculation
Self consistent charges:     Yes
SCC-tolerance:                 0.100000E-05
Max. scc iterations:                    100
Shell resolved Hubbard:      No
Spin polarisation:           No
Nr. of up electrons:             6.000000
Nr. of down electrons:           6.000000
Periodic boundaries:         No
Electronic solver:           Relatively robust
Mixer:                       Broyden mixer
Mixing parameter:                  0.200000
Maximal SCC-cycles:                     100
Nr. of chrg. vec. in memory:              0
Electronic temperature:        0.100000E-07 H      0.272114E-06 eV
Initial charges:             Set automatically (system chrg:   0.100E+01)
Included shells:             C:  s, p
                             N:  s, p
                             H:  s
Extra options:
                             Mulliken analysis
                             Force calculation
Force type                   original
                             Eigenvector printing

--------------------------------------------------------------------------------

***  Geometry step: 0

 iSCC Total electronic   Diff electronic      SCC error    
    1   -0.53155674E+01    0.00000000E+00    0.92221378E+00
    2   -0.53297954E+01   -0.14227997E-01    0.57839982E+00
    3   -0.53361742E+01   -0.63788169E-02    0.17917122E+00
    4   -0.53276174E+01    0.85567935E-02    0.37007081E+00
    5   -0.53372610E+01   -0.96435486E-02    0.75806425E-02
    6   -0.53372618E+01   -0.80348656E-06    0.17370245E-02
    7   -0.53372618E+01   -0.29436221E-07    0.14127716E-02
    8   -0.53372620E+01   -0.15392775E-06    0.10961459E-03
    9   -0.53372620E+01   -0.40273473E-09    0.92526697E-04
   10   -0.53372620E+01   -0.67241857E-09    0.53850287E-06
>> Charges saved for restart in charges.bin

Total Energy:                       -5.0222141451 H         -136.6614 eV
Extrapolated to 0:                  -5.1732669357 H         -140.7718 eV
Total Mermin free energy:           -5.0222141451 H         -136.6614 eV
Force related energy:               -5.1732669357 H         -140.7718 eV

--------------------------------------------------------------------------------
DFTB+ running times                          cpu [s]             wall clock [s]
--------------------------------------------------------------------------------
SCC                                    +     0.01  ( 57.1%)      0.05  ( 69.4%)
Post-SCC processing                    +     0.01  ( 37.0%)      0.02  ( 23.6%)
--------------------------------------------------------------------------------
Missing                                +     0.00  (  5.8%)      0.00  (  6.9%)
Total                                  =     0.02  (100.0%)      0.07  (100.0%)
--------------------------------------------------------------------------------
