     6
  Step:     0            Position(A)                                  Velocity(au)
C        -0.03286874     0.00929082     0.00938639    -0.00005898     0.00005941     0.00021916
N        -0.04022959    -0.05149971     1.31118497    -0.00011786     0.00011483    -0.00024922
H         0.90136667     0.03029095    -0.55710187    -0.00087389    -0.00064520     0.00071512
H         0.81116334    -0.11569921     1.83675081     0.00133517    -0.00060323     0.00124761
H        -0.96747502    -0.05032470     1.79472725     0.00128790    -0.00077065    -0.00093158
H        -1.00728255     0.07090308    -0.51487186     0.00059140    -0.00028461    -0.00017941
     6
  Step:     1            Position(A)                                  Velocity(au)
C        -0.03320005     0.00961806     0.01050705    -0.00006216     0.00006019     0.00018976
N        -0.04090829    -0.05087251     1.30989224    -0.00012729     0.00011423    -0.00022165
H         0.89674612     0.02678274    -0.55342570    -0.00080657    -0.00063690     0.00062312
H         0.81876328    -0.11903904     1.84390240     0.00141620    -0.00061540     0.00134794
H        -0.96025070    -0.05454753     1.78969263     0.00133504    -0.00077276    -0.00089835
H        -1.00410721     0.06935849    -0.51605455     0.00056479    -0.00027959    -0.00025377
     6
  Step:     2            Position(A)                                  Velocity(au)
C        -0.03354919     0.00994974     0.01146364    -0.00006528     0.00006086     0.00015884
N        -0.04162294    -0.05024932     1.30875864    -0.00013061     0.00011305    -0.00019072
H         0.89253753     0.02331903    -0.55028078    -0.00072200    -0.00062722     0.00052002
H         0.82666590    -0.12243575     1.85150613     0.00144254    -0.00062209     0.00140912
H        -0.95286085    -0.05878381     1.78489341     0.00134345    -0.00077355    -0.00084257
H        -1.00110006     0.06784258    -0.51764974     0.00052882    -0.00027338    -0.00032894
     6
  Step:     3            Position(A)                                  Velocity(au)
C        -0.03391566     0.01028521     0.01224831    -0.00006828     0.00006142     0.00012679
N        -0.04234007    -0.04963320     1.30780147    -0.00012796     0.00011138    -0.00015711
H         0.88883128     0.01990694    -0.54772510    -0.00062262    -0.00061657     0.00040775
H         0.83457685    -0.12585863     1.85934965     0.00141747    -0.00062332     0.00143276
H        -0.94552331    -0.06302741     1.78045606     0.00131207    -0.00077366    -0.00076410
H        -0.99831007     0.06636163    -0.51966052     0.00048482    -0.00026618    -0.00040408
     6
  Step:     4            Position(A)                                  Velocity(au)
C        -0.03429867     0.01062394     0.01285539    -0.00007112     0.00006192     0.00009402
N        -0.04302745    -0.04902677     1.30703418    -0.00011970     0.00010932    -0.00012153
H         0.88570335     0.01655135    -0.54580517    -0.00051138    -0.00060545     0.00028855
H         0.84222463    -0.12927753     1.86723269     0.00134630    -0.00061941     0.00142204
H        -0.93845897    -0.06727581     1.77650632     0.00124153    -0.00077391    -0.00066367
H        -0.99577847     0.06492090    -0.52208509     0.00043438    -0.00025823    -0.00047842
     6
  Step:     5            Position(A)                                  Velocity(au)
C        -0.03469716     0.01096553     0.01328137    -0.00007378     0.00006237     0.00006087
N        -0.04365528    -0.04843200     1.30646612    -0.00010638     0.00010701    -0.00008470
H         0.88321234     0.01325444    -0.54455457    -0.00039155    -0.00059441     0.00016477
H         0.84936971    -0.13266453     1.87497469     0.00123552    -0.00061096     0.00138119
H        -0.93188166    -0.07153095     1.77316381     0.00113415    -0.00077520    -0.00054288
H        -0.99353718     0.06352428    -0.52491725     0.00037929    -0.00024980    -0.00055133
     6
  Step:     6            Position(A)                                  Velocity(au)
C        -0.03510988     0.01130977     0.01352467    -0.00007621     0.00006284     0.00002763
N        -0.04419719    -0.04785011     1.30610283    -0.00008869     0.00010459    -0.00004723
H         0.88139800     0.01001549    -0.54399339    -0.00026649    -0.00058397     0.00003871
H         0.85580986    -0.13599533     1.88241962     0.00109196    -0.00059869     0.00131488
H        -0.92598838    -0.07579955     1.77053702     0.00099374    -0.00077839    -0.00040407
H        -0.99160801     0.06217421    -0.52814726     0.00032134    -0.00024116    -0.00062234
     6
  Step:     7            Position(A)                                  Velocity(au)
C        -0.03553543     0.01165668     0.01358524    -0.00007841     0.00006333    -0.00000550
N        -0.04463083    -0.04728156     1.30594659    -0.00006736     0.00010218    -0.00000960
H         0.88028104     0.00683106    -0.54412876    -0.00013945    -0.00057458    -0.00008751
H         0.86138068    -0.13924978     1.88943764     0.00092218    -0.00058336     0.00122775
H        -0.92095102    -0.08009284     1.76871925     0.00082537    -0.00078423    -0.00025017
H        -0.99000263     0.06087167    -0.53176271     0.00026228    -0.00023254    -0.00069111
     6
  Step:     8            Position(A)                                  Velocity(au)
C        -0.03597234     0.01200642     0.01346417    -0.00008035     0.00006390    -0.00003837
N        -0.04493817    -0.04672614     1.30599722    -0.00004318     0.00009990     0.00002786
H         0.87986406     0.00369538    -0.54495593    -0.00001345    -0.00056655    -0.00021197
H         0.86595353    -0.14241204     1.89592443     0.00073213    -0.00056568     0.00112411
H        -0.91690959    -0.08442582     1.76778524     0.00063511    -0.00079326    -0.00008462
H        -0.98872306     0.05961636    -0.53574918     0.00020371    -0.00022413    -0.00075733
     6
  Step:     9            Position(A)                                  Velocity(au)
C        -0.03641901     0.01235931     0.01316325    -0.00008202     0.00006453    -0.00007091
N        -0.04510569    -0.04618305     1.30625291    -0.00001693     0.00009780     0.00006493
H         0.88013316     0.00060104    -0.54645966     0.00010879    -0.00056005    -0.00033296
H         0.86943153    -0.14547025     1.90179891     0.00052689    -0.00054624     0.00100768
H        -0.91396707    -0.08881598     1.76778868     0.00042974    -0.00080573     0.00008872
H        -0.98776249     0.05840697    -0.54009068     0.00014709    -0.00021607    -0.00082070
     6
  Step:    10            Position(A)                                  Velocity(au)
C        -0.03687380     0.01271569     0.01268477    -0.00008338     0.00006523    -0.00010304
N        -0.04512425    -0.04565117     1.30671085     0.00001062     0.00009594     0.00010149
H         0.88105982    -0.00246024    -0.54861559     0.00022482    -0.00055512    -0.00044895
H         0.87174470    -0.14841584     1.90699994     0.00031084    -0.00052551     0.00088161
H        -0.91218622    -0.09328175     1.76876039     0.00021660    -0.00082157     0.00026568
H        -0.98710634     0.05724150    -0.54476963     0.00009370    -0.00020841    -0.00088084
     6
  Step:    11            Position(A)                                  Velocity(au)
C        -0.03733491     0.01307589     0.01203139    -0.00008441     0.00006599    -0.00013467
N        -0.04498906    -0.04512917     1.30736774     0.00003868     0.00009431     0.00013745
H         0.88260269    -0.00549673    -0.55139126     0.00033241    -0.00055159    -0.00055847
H         0.87284602    -0.15124281     1.91148315     0.00008780    -0.00050382     0.00074861
H        -0.91158784    -0.09784067     1.77070705     0.00000325    -0.00084035     0.00044178
H        -0.98673319     0.05611763    -0.54976645     0.00004470    -0.00020117    -0.00093721
     6
  Step:    12            Position(A)                                  Velocity(au)
C        -0.03780045     0.01344011     0.01120628    -0.00008506     0.00006674    -0.00016567
N        -0.04469955    -0.04461576     1.30821985     0.00006650     0.00009289     0.00017270
H         0.88470920    -0.00851585    -0.55474673     0.00042958    -0.00054919    -0.00066008
H         0.87270865    -0.15394700     1.91521849    -0.00013862    -0.00048139     0.00061104
H        -0.91215055    -0.10250751     1.77361041    -0.00020266    -0.00086130     0.00061236
H        -0.98661565     0.05503301    -0.55505874     0.00000111    -0.00019428    -0.00098907
     6
  Step:    13            Position(A)                                  Velocity(au)
C        -0.03826834     0.01380832     0.01021338    -0.00008530     0.00006745    -0.00019580
N        -0.04425930    -0.04410984     1.30926289     0.00009329     0.00009161     0.00020704
H         0.88731681    -0.01152336    -0.55863484     0.00051448    -0.00054746    -0.00075231
H         0.87132489    -0.15652547     1.91818860    -0.00036472    -0.00045836     0.00047120
H        -0.91381179    -0.10729237     1.77742691    -0.00039369    -0.00088329     0.00077265
H        -0.98672102     0.05398564    -0.56062028    -0.00003612    -0.00018766    -0.00103546
     6
  Step:    14            Position(A)                                  Velocity(au)
C        -0.03873632     0.01418016     0.00905792    -0.00008507     0.00006803    -0.00022475
N        -0.04367597    -0.04361064     1.31049152     0.00011828     0.00009039     0.00024018
H         0.89035411    -0.01452260    -0.56300110     0.00058544    -0.00054587    -0.00083363
H         0.86870691    -0.15897615     1.92038845    -0.00058644    -0.00043485     0.00033145
H        -0.91647015    -0.11219895     1.78208788    -0.00056288    -0.00090490     0.00091791
H        -0.98701196     0.05297406    -0.56641983    -0.00006616    -0.00018116    -0.00107521
     6
  Step:    15            Position(A)                                  Velocity(au)
C        -0.03920191     0.01455489     0.00774692    -0.00008433     0.00006840    -0.00025207
N        -0.04296125    -0.04311785     1.31189868     0.00014071     0.00008915     0.00027165
H         0.89374158    -0.01751390    -0.56778334     0.00064094    -0.00054377    -0.00090246
H         0.86488912    -0.16129769     1.92182607    -0.00079907    -0.00041100     0.00019449
H        -0.91998904    -0.11722306     1.78750036    -0.00070406    -0.00092451     0.00104366
H        -0.98744711     0.05199758    -0.57241997    -0.00008831    -0.00017462    -0.00110698
     6
  Step:    16            Position(A)                                  Velocity(au)
C        -0.03966240     0.01493127     0.00628978    -0.00008304     0.00006846    -0.00027723
N        -0.04213077    -0.04263164     1.31347471     0.00015984     0.00008779     0.00030086
H         0.89739272    -0.02049406    -0.57291155     0.00067978    -0.00054046    -0.00095726
H         0.85993175    -0.16348960     1.92252431    -0.00099724    -0.00038700     0.00006340
H        -0.92420192    -0.12235156     1.79354894    -0.00081221    -0.00094035     0.00114585
H        -0.98798180     0.05105644    -0.57857633    -0.00010204    -0.00016788    -0.00112937
     6
  Step:    17            Position(A)                                  Velocity(au)
C        -0.04011489     0.01530758     0.00469888    -0.00008116     0.00006812    -0.00029962
N        -0.04120391    -0.04215268     1.31520654     0.00017498     0.00008622     0.00032707
H         0.90121555    -0.02345613    -0.57830813     0.00070111    -0.00053528    -0.00099668
H         0.85392482    -0.16555263     1.92252313    -0.00117491    -0.00036316    -0.00005833
H        -0.92891898    -0.12756188     1.80009859    -0.00088372    -0.00095069     0.00122118
H        -0.98856899     0.05015180    -0.58483708    -0.00010702    -0.00016077    -0.00114103
     6
  Step:    18            Position(A)                                  Velocity(au)
C        -0.04055633     0.01568158     0.00298988    -0.00007870     0.00006731    -0.00031861
N        -0.04020353    -0.04168208     1.31707699     0.00018558     0.00008438     0.00034948
H         0.90511463    -0.02638947    -0.58388880     0.00070463    -0.00052759    -0.00101969
H         0.84699153    -0.16748941     1.92188190    -0.00132576    -0.00033994    -0.00016687
H        -0.93393504    -0.13282219     1.80699877    -0.00091675    -0.00095396     0.00126737
H        -0.98916050     0.04928576    -0.59114333    -0.00010324    -0.00015315    -0.00114082
     6
  Step:    19            Position(A)                                  Velocity(au)
C        -0.04098364     0.01605062     0.00118185    -0.00007566     0.00006596    -0.00033362
N        -0.03915535    -0.04122128     1.31906441     0.00019119     0.00008223     0.00036730
H         0.90899382    -0.02928012    -0.58956426     0.00069062    -0.00051694    -0.00102572
H         0.83929002    -0.16930511     1.92068106    -0.00144355    -0.00031790    -0.00025832
H        -0.93903880    -0.13809247     1.81408882    -0.00091136    -0.00094897     0.00128338
H        -0.98970867     0.04846119    -0.59743036    -0.00009103    -0.00014493    -0.00112804
     6
  Step:    20            Position(A)                                  Velocity(au)
C        -0.04139379     0.01641170    -0.00070304    -0.00007207     0.00006404    -0.00034422
N        -0.03808723    -0.04077183     1.32114272     0.00019158     0.00007979     0.00037985
H         0.91275932    -0.03211161    -0.59524280     0.00066010    -0.00050307    -0.00101493
H         0.83101247    -0.17100828     1.91902253    -0.00152288    -0.00029776    -0.00032900
H        -0.94402318    -0.14332660     1.82120489    -0.00086966    -0.00093506     0.00126972
H        -0.99016820     0.04768148    -0.60362991    -0.00007110    -0.00013608    -0.00110260
     6
  Step:    21            Position(A)                                  Velocity(au)
C        -0.04178394     0.01676170    -0.00264032    -0.00006803     0.00006157    -0.00035020
N        -0.03702802    -0.04033526     1.32328223     0.00018680     0.00007712     0.00038673
H         0.91632350    -0.03486617    -0.60083396     0.00061485    -0.00048604    -0.00098832
H         0.82238007    -0.17261142     1.91702786    -0.00156000    -0.00028033    -0.00037599
H        -0.94869547    -0.14847526     1.82818772    -0.00079562    -0.00091228     0.00122849
H        -0.99049815     0.04695022    -0.60967357    -0.00004449    -0.00012663    -0.00106522
     6
  Step:    22            Position(A)                                  Velocity(au)
C        -0.04215166     0.01709759    -0.00460450    -0.00006363     0.00005860    -0.00035168
N        -0.03600618    -0.03991272     1.32545107     0.00017714     0.00007431     0.00038788
H         0.91960905    -0.03752641    -0.60625319     0.00055737    -0.00046627    -0.00094781
H         0.81363325    -0.17413133     1.91483378    -0.00155345    -0.00026645    -0.00039748
H        -0.95288688    -0.15348990     1.83489096    -0.00069478    -0.00088150     0.00116335
H        -0.99066382     0.04627075    -0.61549709    -0.00001253    -0.00011672    -0.00101749
     6
  Step:    23            Position(A)                                  Velocity(au)
C        -0.04249512     0.01741666    -0.00657078    -0.00005903     0.00005526    -0.00034912
N        -0.03504828    -0.03950480     1.32761722     0.00016318     0.00007152     0.00038370
H         0.92255270    -0.04007727    -0.61142685     0.00049066    -0.00044451    -0.00089621
H         0.80501849    -0.17558925     1.91258562    -0.00150455    -0.00025691    -0.00039307
H        -0.95646046    -0.15832706     1.84118945    -0.00057366    -0.00084440     0.00107925
H        -0.99063813     0.04564571    -0.62104515     0.00002335    -0.00010655    -0.00096182
     6
  Step:    24            Position(A)                                  Velocity(au)
C        -0.04281324     0.01771687    -0.00851697    -0.00005439     0.00005168    -0.00034330
N        -0.03417747    -0.03911123     1.32975103     0.00014569     0.00006894     0.00037498
H         0.92510775    -0.04250790    -0.61629672     0.00041788    -0.00042179    -0.00083685
H         0.79677228    -0.17701046     1.91042875    -0.00141721    -0.00025243    -0.00036387
H        -0.95931572    -0.16295278     1.84698573    -0.00043894    -0.00080324     0.00098185
H        -0.99040215     0.04507668    -0.62627589     0.00006176    -0.00009635    -0.00090122
     6
  Step:    25            Position(A)                                  Velocity(au)
C        -0.04310578     0.01799691    -0.01042530    -0.00004984     0.00004801    -0.00033520
N        -0.03341249    -0.03873078     1.33182745     0.00012551     0.00006675     0.00036280
H         0.92724465    -0.04481308    -0.62082285     0.00034190    -0.00039923    -0.00077314
H         0.78910626    -0.17842352     1.90850013    -0.00129715    -0.00025354    -0.00031212
H        -0.96138884    -0.16734577     1.85221350    -0.00029661    -0.00076056     0.00087674
H        -0.98994465     0.04456389    -0.63116391     0.00010159    -0.00008636    -0.00083881
     6
  Step:    26            Position(A)                                  Velocity(au)
C        -0.04337328     0.01825636    -0.01228340    -0.00004551     0.00004439    -0.00032581
N        -0.03276719    -0.03836123     1.33382757     0.00010344     0.00006512     0.00034829
H         0.92894943    -0.04699384    -0.62498398     0.00026496    -0.00037787    -0.00070810
H         0.78219701    -0.17985931     1.90692167    -0.00115082    -0.00026055    -0.00024076
H        -0.96264856    -0.17149875     1.85683705    -0.00015138    -0.00071873     0.00076873
H        -0.98926060     0.04410633    -0.63570101     0.00014205    -0.00007674    -0.00077736
     6
  Step:    27            Position(A)                                  Velocity(au)
C        -0.04361685     0.01849548    -0.01408439    -0.00004145     0.00004092    -0.00031596
N        -0.03225083    -0.03799949     1.33573892     0.00008013     0.00006416     0.00033243
H         0.93022031    -0.04905682    -0.62877526     0.00018854    -0.00035845    -0.00064396
H         0.77618188    -0.18134968     1.90579629    -0.00098439    -0.00027351    -0.00015298
H        -0.96308895    -0.17541752     1.86084683    -0.00000645    -0.00067958     0.00066139
H        -0.98834935     0.04370206    -0.63989415     0.00018264    -0.00006759    -0.00071893
     6
  Step:    28            Position(A)                                  Velocity(au)
C        -0.04383795     0.01871510    -0.01582591    -0.00003767     0.00003763    -0.00030620
N        -0.03186883    -0.03764192     1.33755466     0.00005607     0.00006393     0.00031594
H         0.93106335    -0.05101270    -0.63220389     0.00011339    -0.00034140    -0.00058202
H         0.77116031    -0.18292581     1.90520653    -0.00080311    -0.00029219    -0.00005191
H        -0.96272082    -0.17911800     1.86425239     0.00013624    -0.00064430     0.00055696
H        -0.98721286     0.04334854    -0.64376150     0.00022310    -0.00005889    -0.00066471
     6
  Step:    29            Position(A)                                  Velocity(au)
C        -0.04403807     0.01891624    -0.01750861    -0.00003413     0.00003452    -0.00029677
N        -0.03162378    -0.03728454     1.33927202     0.00003164     0.00006445     0.00029922
H         0.93148833    -0.05287475    -0.63528398     0.00003971    -0.00032687    -0.00052278
H         0.76720065    -0.18461721     1.90521580    -0.00061137    -0.00031610     0.00005938
H        -0.96156540    -0.18262269     1.86707533     0.00027544    -0.00061345     0.00045666
H        -0.98585443     0.04304345    -0.64732756     0.00026319    -0.00005055    -0.00061508
     6
  Step:    30            Position(A)                                  Velocity(au)
C        -0.04421848     0.01909999    -0.01913454    -0.00003077     0.00003158    -0.00028768
N        -0.03151605    -0.03692342     1.34089067     0.00000717     0.00006565     0.00028248
H         0.93150603    -0.05465688    -0.63803225    -0.00003252    -0.00031472    -0.00046620
H         0.76434420    -0.18644999     1.90586855    -0.00041325    -0.00034445     0.00017763
H        -0.95965001    -0.18595722     1.86934360     0.00041017    -0.00058713     0.00036107
H        -0.98427856     0.04278497    -0.65061897     0.00030262    -0.00004242    -0.00056995
     6
  Step:    31            Position(A)                                  Velocity(au)
C        -0.04438008     0.01926725    -0.02070571    -0.00002751     0.00002876    -0.00027876
N        -0.03154408    -0.03655490     1.34241134    -0.00001699     0.00006748     0.00026573
H         0.93112693    -0.05637238    -0.64046507    -0.00010333    -0.00030471    -0.00041197
H         0.76260798    -0.18844529     1.90718991    -0.00021291    -0.00037617     0.00029928
H        -0.95700696    -0.18914780     1.87108812     0.00053929    -0.00056523     0.00027058
H        -0.98249128     0.04257203    -0.65366168     0.00034093    -0.00003434    -0.00052890
     6
  Step:    32            Position(A)                                  Velocity(au)
C        -0.04452332     0.01941869    -0.02222327    -0.00002426     0.00002601    -0.00026978
N        -0.03170436    -0.03617576     1.34383507    -0.00004046     0.00006982     0.00024898
H         0.93036115    -0.05803318    -0.64259698    -0.00017264    -0.00029656    -0.00035973
H         0.76198507    -0.19061809     1.90918464    -0.00001487    -0.00041000     0.00042042
H        -0.95367457    -0.19222003     1.87234172     0.00066128    -0.00054753     0.00018564
H        -0.98050100     0.04240449    -0.65647934     0.00037753    -0.00002615    -0.00049148
     6
  Step:    33            Position(A)                                  Velocity(au)
C        -0.04464822     0.01955474    -0.02368706    -0.00002096     0.00002330    -0.00026048
N        -0.03199116    -0.03578334     1.34516279    -0.00006276     0.00007257     0.00023219
H         0.92921914    -0.05964962    -0.64444045    -0.00024020    -0.00028997    -0.00030919
H         0.76244364    -0.19297613     1.91183591     0.00017602    -0.00044451     0.00053689
H        -0.94969923    -0.19519852     1.87313958     0.00077424    -0.00053392     0.00010690
H        -0.97831925     0.04228303    -0.65909295     0.00041171    -0.00001771    -0.00045724
     6
  Step:    34            Position(A)                                  Velocity(au)
C        -0.04475439     0.01967558    -0.02509544    -0.00001753     0.00002058    -0.00025061
N        -0.03239633    -0.03537556     1.34639526    -0.00008340     0.00007563     0.00021535
H         0.92771265    -0.06123054    -0.64600628    -0.00030558    -0.00028472    -0.00026019
H         0.76392592    -0.19551941     1.91510463     0.00035475    -0.00047825     0.00064451
H        -0.94513755    -0.19810720     1.87352040     0.00087593    -0.00052436     0.00003526
H        -0.97596133     0.04220919    -0.66152107     0.00044270    -0.00000889    -0.00042586
     6
  Step:    35            Position(A)                                  Velocity(au)
C        -0.04484112     0.01978120    -0.02644550    -0.00001352     0.00001960    -0.00028021
N        -0.03290914    -0.03495086     1.34753312    -0.00010235     0.00007927     0.00022858
H         0.92585569    -0.06278350    -0.64730432    -0.00039872    -0.00034972    -0.00017359
H         0.76634831    -0.19824009     1.91892989     0.00051365    -0.00044661     0.00074112
H        -0.94005813    -0.20096998     1.87352767     0.00098065    -0.00060040    -0.00004827
H        -0.97344661     0.04218520    -0.66378031     0.00048784     0.00006166    -0.00035672
     6
  Step:    36            Position(A)                                  Velocity(au)
C        -0.04490305     0.01989099    -0.02817558    -0.00000826     0.00002062    -0.00035592
N        -0.03352141    -0.03450421     1.34890789    -0.00011960     0.00008272     0.00027804
H         0.92332980    -0.06507476    -0.64791440    -0.00052070    -0.00046794    -0.00004540
H         0.76957221    -0.20042871     1.92325132     0.00064588    -0.00036375     0.00081279
H        -0.93435786    -0.20470706     1.87298980     0.00108933    -0.00074091    -0.00014468
H        -0.97059877     0.04288700    -0.66544226     0.00054580     0.00017728    -0.00024529
     6
  Step:    37            Position(A)                                  Velocity(au)
C        -0.04493180     0.02000774    -0.03035533    -0.00000192     0.00002189    -0.00043830
N        -0.03422293    -0.03404213     1.35058743    -0.00013428     0.00008533     0.00033467
H         0.92013581    -0.06792387    -0.64780309    -0.00063883    -0.00056291     0.00008500
H         0.77344336    -0.20223594     1.92785842     0.00075003    -0.00029798     0.00085144
H        -0.92809178    -0.20910896     1.87193835     0.00118178    -0.00085561    -0.00023266
H        -0.96745095     0.04413260    -0.66647478     0.00059583     0.00026987    -0.00013168
     6
  Step:    38            Position(A)                                  Velocity(au)
C        -0.04492413     0.02013152    -0.03299068     0.00000487     0.00002309    -0.00051943
N        -0.03499654    -0.03356684     1.35258454    -0.00014539     0.00008751     0.00039173
H         0.91631170    -0.07125879    -0.64698062    -0.00074733    -0.00064626     0.00021152
H         0.77781183    -0.20370228     1.93260508     0.00082571    -0.00023688     0.00086376
H        -0.92137511    -0.21410665     1.87043381     0.00124911    -0.00095972    -0.00030777
H        -0.96405308     0.04585173    -0.66688885     0.00063488     0.00035158    -0.00002167
     6
  Step:    39            Position(A)                                  Velocity(au)
C        -0.04487825     0.02026159    -0.03606635     0.00001187     0.00002409    -0.00059577
N        -0.03582150    -0.03307992     1.35489448    -0.00015236     0.00008936     0.00044637
H         0.91191901    -0.07502937    -0.64547744    -0.00084172    -0.00072044     0.00033033
H         0.78252189    -0.20484038     1.93735532     0.00087198    -0.00017691     0.00085120
H        -0.91435795    -0.21966091     1.86855445     0.00128548    -0.00105673    -0.00036684
H        -0.96047051     0.04799817    -0.66671300     0.00066012     0.00042524     0.00008153
     6
  Step:    40            Position(A)                                  Velocity(au)
C        -0.04479344     0.02039681    -0.03955137     0.00001886     0.00002484    -0.00066453
N        -0.03667441    -0.03258280     1.35750009    -0.00015480     0.00009087     0.00049639
H         0.90704257    -0.07919244    -0.64334299    -0.00091766    -0.00078617     0.00043773
H         0.78741424    -0.20565048     1.94197864     0.00088867    -0.00011661     0.00081511
H        -0.90721911    -0.22574358     1.86639408     0.00128644    -0.00114779    -0.00040727
H        -0.95678373     0.05053458    -0.66599105     0.00066897     0.00049181     0.00017497
     6
  Step:    41            Position(A)                                  Velocity(au)
C        -0.04467011     0.02053571    -0.04340095     0.00002562     0.00002529    -0.00072333
N        -0.03753009    -0.03207693     1.36037330    -0.00015253     0.00009207     0.00053992
H         0.90179049    -0.08370664    -0.64064607    -0.00097116    -0.00084361     0.00053015
H         0.79233048    -0.20612741     1.94635202     0.00087674    -0.00005555     0.00075756
H        -0.90015903    -0.23232944     1.86405932     0.00124936    -0.00123306    -0.00042724
H        -0.95308681     0.05342644    -0.66478182     0.00065942     0.00055150     0.00025590
     6
  Step:    42            Position(A)                                  Velocity(au)
C        -0.04450986     0.02067672    -0.04755814     0.00003193     0.00002543    -0.00077032
N        -0.03836285    -0.03156370     1.36347659    -0.00014566     0.00009296     0.00057550
H         0.89629249    -0.08853061    -0.63747455    -0.00099894    -0.00089278     0.00060441
H         0.79711913    -0.20626537     1.95036434     0.00083846     0.00000594     0.00068153
H        -0.89338960    -0.23939273     1.86166487     0.00117392    -0.00131239    -0.00042609
H        -0.94948436     0.05663936    -0.66315841     0.00063026     0.00060431     0.00032197
     6
  Step:    43            Position(A)                                  Velocity(au)
C        -0.04431552     0.02081819    -0.05195653     0.00003757     0.00002529    -0.00080441
N        -0.03914787    -0.03104444     1.36676511    -0.00013458     0.00009361     0.00060227
H         0.89069576    -0.09362233    -0.63393319    -0.00099899    -0.00093399     0.00065813
H         0.80164276    -0.20606145     1.95392143     0.00077742     0.00006709     0.00059090
H        -0.88712090    -0.24690543     1.85932699     0.00106264    -0.00138561    -0.00040459
H        -0.94608680     0.06013817    -0.66120589     0.00058141     0.00065028     0.00037152
     6
  Step:    44            Position(A)                                  Velocity(au)
C        -0.04409112     0.02095858    -0.05652432     0.00004237     0.00002490    -0.00082544
N        -0.03986291    -0.03052025     1.37018972    -0.00011997     0.00009410     0.00062007
H         0.88515746    -0.09894118    -0.63013880    -0.00097088    -0.00096807     0.00069013
H         0.80578454    -0.20551761     1.95695068     0.00069833     0.00012695     0.00049018
H        -0.88154504    -0.25483721     1.85715515     0.00092084    -0.00145293    -0.00036505
H        -0.94300374     0.06388756    -0.65901728     0.00051405     0.00068979     0.00040391
     6