     6
  Step:   120            Position(A)                                  Velocity(au)
C        -0.03599185     0.07555180    -0.11280024    -0.00008807     0.00004732     0.00025479
N        -0.03940077     0.01124976     1.42550599     0.00005576     0.00006771    -0.00023393
H         0.89955163    -0.36762825    -0.47638972     0.00017011    -0.00070284     0.00080451
H         0.77063086    -0.55659149     1.69977847    -0.00007095    -0.00011009    -0.00020082
H        -0.91378865    -0.52079054     1.69120141    -0.00001378    -0.00065976    -0.00086429
H        -0.99293855    -0.28138852    -0.48776827     0.00018929    -0.00003208     0.00047526
