|===============================================================================
|
|  DFTB+ release 20.1
|
|  Copyright (C) 2006 - 2020  DFTB+ developers group
|
|===============================================================================
|
|  When publishing results obtained with DFTB+, please cite the following
|  reference:
|
|  * DFTB+, a software package for efficient approximate density functional
|    theory based atomistic simulations, J. Chem. Phys. 152, 124101 (2020).
|    [doi: 10.1063/1.5143190]
|
|  You should also cite additional publications crediting the parametrization
|  data you use. Please consult the documentation of the SK-files for the
|  references.
|
|===============================================================================

Reading input file 'dftb_in.hsd'
Parser version: 8

--------------------------------------------------------------------------------
Reading SK-files:
Done.


Processed input in HSD format written to 'dftb_pin.hsd'

Starting initialization...
--------------------------------------------------------------------------------
OpenMP threads:              1
Chosen random seed:          508395860
Mode:                        Static calculation
Self consistent charges:     Yes
SCC-tolerance:                 0.100000E-05
Max. scc iterations:                   1000
Shell resolved Hubbard:      No
Spin polarisation:           No
Nr. of up electrons:             6.000000
Nr. of down electrons:           6.000000
Periodic boundaries:         No
Electronic solver:           Relatively robust
Maximal SCC-cycles:                    1000
Initial charges:             Set automatically (system chrg:   0.100E+01)
Included shells:             C:  s, p
                             N:  s, p
                             H:  s
Spin coupling constants:     C   1(s)-1(s):  -0.455900E-01
                             C   1(s)-2(p):  -0.293000E-01
                             C   2(p)-1(s):  -0.293000E-01
                             C   2(p)-2(p):  -0.275500E-01
                             N   1(s)-1(s):  -0.468700E-01
                             N   1(s)-2(p):  -0.317000E-01
                             N   2(p)-1(s):  -0.317000E-01
                             N   2(p)-2(p):  -0.307200E-01
                             H   1(s)-1(s):  -0.792500E-01
Range separated hybrid:      Yes
  Screening parameter omega:   0.300000E+00
  Range separated algorithm:   MatrixBased
Extra options:
                             Mulliken analysis
                             Force calculation
Force type                   original
                             Eigenvector printing


REKS Calcuation:             Yes
SSR(2,2) Calcuation:         Yes
Energy Functional:           (PPS+OSS)/2
Number of Core Orbitals:                  5
Number of Active Orbitals:                2
Number of Basis:                         12
Number of States:                         2
State-Averaging Weight:          0.500000
                                 0.500000
State of Interest:                        2
Initial Guess:               Diagonalize H0 matrix
Newton-Raphson for FON opt:  Yes
NR max. Iterations:                      50
Level Shifting:              Yes
Shift Value:                     0.300000
W Scale Factor:              C  =    3.000000
                             N  =    3.000000
                             H  =    3.000000
Transition Dipole:           No
Gradient of Microstate:      No
CP-REKS Solver:              Preconditioned Conjugate-Gradient
CG max. Iterations:                     100
CG Tolerance:                  0.100000E-07
Memory for A and Hxc:        Direct Updating Without Saving
Non-Adiabatic Coupling:      Yes

--------------------------------------------------------------------------------

***  Geometry step: 0

  iSCC       reks energy        Diff energy         x_a       SCC error   
    1       -6.2452608025       0.0000000000     0.996103    1.12842402
    2       -6.2631936877      -0.0179328852     0.999392    0.12071558
    3       -6.2687026879      -0.0055090002     0.999862    0.06762183
    4       -6.2706970768      -0.0019943889     0.999956    0.03307353
    5       -6.2714328671      -0.0007357903     0.999980    0.01541431
    6       -6.2717115900      -0.0002787229     0.999988    0.00781270
    7       -6.2718241334      -0.0001125435     0.999991    0.00414018
    8       -6.2718733274      -0.0000491940     0.999993    0.00222577
    9       -6.2718964733      -0.0000231459     0.999994    0.00153880
   10       -6.2719080383      -0.0000115649     0.999994    0.00107755
   11       -6.2719140924      -0.0000060541     0.999994    0.00076211
   12       -6.2719173761      -0.0000032837     0.999994    0.00054329
   13       -6.2719192058      -0.0000018297     0.999995    0.00038998
   14       -6.2719202466      -0.0000010408     0.999995    0.00028183
   15       -6.2719208485      -0.0000006020     0.999995    0.00021079
   16       -6.2719212017      -0.0000003531     0.999995    0.00016685
   17       -6.2719214117      -0.0000002100     0.999995    0.00013071
   18       -6.2719215385      -0.0000001268     0.999995    0.00010141
   19       -6.2719216165      -0.0000000781     0.999995    0.00007793
   20       -6.2719216658      -0.0000000493     0.999995    0.00005926
   21       -6.2719216981      -0.0000000323     0.999995    0.00004453
   22       -6.2719217202      -0.0000000221     0.999995    0.00003480
   23       -6.2719217362      -0.0000000160     0.999995    0.00003618
   24       -6.2719217486      -0.0000000123     0.999995    0.00003711
   25       -6.2719217587      -0.0000000101     0.999995    0.00003774
   26       -6.2719217674      -0.0000000087     0.999995    0.00003813
   27       -6.2719217753      -0.0000000079     0.999995    0.00003835
   28       -6.2719217826      -0.0000000073     0.999995    0.00003845
   29       -6.2719217896      -0.0000000069     0.999995    0.00003846
   30       -6.2719217962      -0.0000000067     0.999995    0.00003840
   31       -6.2719218027      -0.0000000065     0.999995    0.00003828
   32       -6.2719218090      -0.0000000063     0.999995    0.00003813
   33       -6.2719218152      -0.0000000062     0.999995    0.00003795
   34       -6.2719218213      -0.0000000061     0.999995    0.00003774
   35       -6.2719218272      -0.0000000060     0.999995    0.00003752
   36       -6.2719218331      -0.0000000059     0.999995    0.00003729
   37       -6.2719218388      -0.0000000058     0.999995    0.00003705
   38       -6.2719218445      -0.0000000057     0.999995    0.00003680
   39       -6.2719218501      -0.0000000056     0.999995    0.00003655
   40       -6.2719218556      -0.0000000055     0.999995    0.00003630
   41       -6.2719218610      -0.0000000054     0.999995    0.00003604
   42       -6.2719218664      -0.0000000053     0.999995    0.00003579
   43       -6.2719218716      -0.0000000053     0.999995    0.00003553
   44       -6.2719218768      -0.0000000052     0.999995    0.00003528
   45       -6.2719218819      -0.0000000051     0.999995    0.00003503
   46       -6.2719218869      -0.0000000050     0.999995    0.00003478
   47       -6.2719218919      -0.0000000050     0.999995    0.00003453
   48       -6.2719218967      -0.0000000049     0.999995    0.00003428
   49       -6.2719219015      -0.0000000048     0.999995    0.00003404
   50       -6.2719219063      -0.0000000047     0.999995    0.00003379
   51       -6.2719219110      -0.0000000047     0.999995    0.00003355
   52       -6.2719219156      -0.0000000046     0.999995    0.00003332
   53       -6.2719219201      -0.0000000045     0.999995    0.00003308
   54       -6.2719219246      -0.0000000045     0.999995    0.00003285
   55       -6.2719219290      -0.0000000044     0.999995    0.00003262
   56       -6.2719219333      -0.0000000043     0.999995    0.00003239
   57       -6.2719219376      -0.0000000043     0.999995    0.00003217
   58       -6.2719219418      -0.0000000042     0.999995    0.00003195
   59       -6.2719219460      -0.0000000042     0.999995    0.00003173
   60       -6.2719219501      -0.0000000041     0.999995    0.00003151
   61       -6.2719219541      -0.0000000041     0.999995    0.00003129
   62       -6.2719219581      -0.0000000040     0.999995    0.00003108
   63       -6.2719219621      -0.0000000039     0.999995    0.00003087
   64       -6.2719219660      -0.0000000039     0.999995    0.00003066
   65       -6.2719219698      -0.0000000038     0.999995    0.00003046
   66       -6.2719219736      -0.0000000038     0.999995    0.00003025
   67       -6.2719219773      -0.0000000037     0.999995    0.00003005
   68       -6.2719219810      -0.0000000037     0.999995    0.00002985
   69       -6.2719219846      -0.0000000036     0.999995    0.00002965
   70       -6.2719219882      -0.0000000036     0.999995    0.00002946
   71       -6.2719219917      -0.0000000035     0.999995    0.00002927
   72       -6.2719219952      -0.0000000035     0.999995    0.00002907
   73       -6.2719219987      -0.0000000034     0.999995    0.00002889
   74       -6.2719220021      -0.0000000034     0.999995    0.00002870
   75       -6.2719220054      -0.0000000034     0.999995    0.00002851
   76       -6.2719220087      -0.0000000033     0.999995    0.00002833
   77       -6.2719220120      -0.0000000033     0.999995    0.00002815
   78       -6.2719220152      -0.0000000032     0.999995    0.00002797
   79       -6.2719220184      -0.0000000032     0.999995    0.00002779
   80       -6.2719220216      -0.0000000031     0.999995    0.00002762
   81       -6.2719220247      -0.0000000031     0.999995    0.00002744
   82       -6.2719220277      -0.0000000031     0.999995    0.00002727
   83       -6.2719220307      -0.0000000030     0.999995    0.00002710
   84       -6.2719220337      -0.0000000030     0.999995    0.00002693
   85       -6.2719220367      -0.0000000029     0.999995    0.00002677
   86       -6.2719220396      -0.0000000029     0.999995    0.00002660
   87       -6.2719220425      -0.0000000029     0.999995    0.00002644
   88       -6.2719220453      -0.0000000028     0.999995    0.00002627
   89       -6.2719220481      -0.0000000028     0.999995    0.00002611
   90       -6.2719220509      -0.0000000028     0.999995    0.00002596
   91       -6.2719220536      -0.0000000027     0.999995    0.00002580
   92       -6.2719220563      -0.0000000027     0.999994    0.00002564
   93       -6.2719220590      -0.0000000027     0.999994    0.00002549
   94       -6.2719220616      -0.0000000026     0.999994    0.00002534
   95       -6.2719220642      -0.0000000026     0.999994    0.00002519
   96       -6.2719220668      -0.0000000026     0.999994    0.00002504
   97       -6.2719220694      -0.0000000025     0.999994    0.00002489
   98       -6.2719220719      -0.0000000025     0.999994    0.00002474
   99       -6.2719220744      -0.0000000025     0.999994    0.00002460
  100       -6.2719220768      -0.0000000025     0.999994    0.00002445
  101       -6.2719220792      -0.0000000024     0.999994    0.00002431
  102       -6.2719220816      -0.0000000024     0.999994    0.00002417
  103       -6.2719220840      -0.0000000024     0.999994    0.00002403
  104       -6.2719220864      -0.0000000023     0.999994    0.00002389
  105       -6.2719220887      -0.0000000023     0.999994    0.00002376
  106       -6.2719220910      -0.0000000023     0.999994    0.00002362
  107       -6.2719220932      -0.0000000023     0.999994    0.00002349
  108       -6.2719220955      -0.0000000022     0.999994    0.00002335
  109       -6.2719220977      -0.0000000022     0.999994    0.00002322
  110       -6.2719220999      -0.0000000022     0.999994    0.00002309
  111       -6.2719221020      -0.0000000022     0.999994    0.00002296
  112       -6.2719221042      -0.0000000021     0.999994    0.00002283
  113       -6.2719221063      -0.0000000021     0.999994    0.00002271
  114       -6.2719221084      -0.0000000021     0.999994    0.00002258
  115       -6.2719221104      -0.0000000021     0.999994    0.00002246
  116       -6.2719221125      -0.0000000020     0.999994    0.00002233
  117       -6.2719221145      -0.0000000020     0.999994    0.00002221
  118       -6.2719221165      -0.0000000020     0.999994    0.00002209
  119       -6.2719221185      -0.0000000020     0.999994    0.00002197
  120       -6.2719221204      -0.0000000020     0.999994    0.00002185
  121       -6.2719221223      -0.0000000019     0.999994    0.00002173
  122       -6.2719221243      -0.0000000019     0.999994    0.00002162
  123       -6.2719221261      -0.0000000019     0.999994    0.00002150
  124       -6.2719221280      -0.0000000019     0.999994    0.00002139
  125       -6.2719221299      -0.0000000019     0.999994    0.00002127
  126       -6.2719221317      -0.0000000018     0.999994    0.00002116
  127       -6.2719221335      -0.0000000018     0.999994    0.00002105
  128       -6.2719221353      -0.0000000018     0.999994    0.00002094
  129       -6.2719221371      -0.0000000018     0.999994    0.00002083
  130       -6.2719221388      -0.0000000018     0.999994    0.00002072
  131       -6.2719221406      -0.0000000017     0.999994    0.00002061
  132       -6.2719221423      -0.0000000017     0.999994    0.00002050
  133       -6.2719221440      -0.0000000017     0.999994    0.00002040
  134       -6.2719221457      -0.0000000017     0.999994    0.00002029
  135       -6.2719221473      -0.0000000017     0.999994    0.00002019
  136       -6.2719221490      -0.0000000016     0.999994    0.00002009
  137       -6.2719221506      -0.0000000016     0.999994    0.00001998
  138       -6.2719221522      -0.0000000016     0.999994    0.00001988
  139       -6.2719221538      -0.0000000016     0.999994    0.00001978
  140       -6.2719221554      -0.0000000016     0.999994    0.00001968
  141       -6.2719221570      -0.0000000016     0.999994    0.00001958
  142       -6.2719221585      -0.0000000015     0.999994    0.00001949
  143       -6.2719221601      -0.0000000015     0.999994    0.00001939
  144       -6.2719221616      -0.0000000015     0.999994    0.00001929
  145       -6.2719221631      -0.0000000015     0.999994    0.00001920
  146       -6.2719221646      -0.0000000015     0.999994    0.00001910
  147       -6.2719221660      -0.0000000015     0.999994    0.00001901
  148       -6.2719221675      -0.0000000015     0.999994    0.00001892
  149       -6.2719221689      -0.0000000014     0.999994    0.00001883
  150       -6.2719221704      -0.0000000014     0.999994    0.00001873
  151       -6.2719221718      -0.0000000014     0.999994    0.00001864
  152       -6.2719221732      -0.0000000014     0.999994    0.00001855
  153       -6.2719221746      -0.0000000014     0.999994    0.00001846
  154       -6.2719221760      -0.0000000014     0.999994    0.00001838
  155       -6.2719221773      -0.0000000014     0.999994    0.00001829
  156       -6.2719221787      -0.0000000013     0.999994    0.00001820
  157       -6.2719221800      -0.0000000013     0.999994    0.00001812
  158       -6.2719221813      -0.0000000013     0.999994    0.00001803
  159       -6.2719221826      -0.0000000013     0.999994    0.00001795
  160       -6.2719221839      -0.0000000013     0.999994    0.00001786
  161       -6.2719221852      -0.0000000013     0.999994    0.00001778
  162       -6.2719221865      -0.0000000013     0.999994    0.00001770
  163       -6.2719221878      -0.0000000013     0.999994    0.00001761
  164       -6.2719221890      -0.0000000013     0.999994    0.00001753
  165       -6.2719221903      -0.0000000012     0.999994    0.00001745
  166       -6.2719221915      -0.0000000012     0.999994    0.00001737
  167       -6.2719221927      -0.0000000012     0.999994    0.00001729
  168       -6.2719221939      -0.0000000012     0.999994    0.00001721
  169       -6.2719221951      -0.0000000012     0.999994    0.00001714
  170       -6.2719221963      -0.0000000012     0.999994    0.00001706
  171       -6.2719221975      -0.0000000012     0.999994    0.00001698
  172       -6.2719221986      -0.0000000012     0.999994    0.00001691
  173       -6.2719221998      -0.0000000012     0.999994    0.00001683
  174       -6.2719222009      -0.0000000011     0.999994    0.00001675
  175       -6.2719222020      -0.0000000011     0.999994    0.00001668
  176       -6.2719222032      -0.0000000011     0.999994    0.00001661
  177       -6.2719222043      -0.0000000011     0.999994    0.00001653
  178       -6.2719222054      -0.0000000011     0.999994    0.00001646
  179       -6.2719222065      -0.0000000011     0.999994    0.00001639
  180       -6.2719222076      -0.0000000011     0.999994    0.00001632
  181       -6.2719222086      -0.0000000011     0.999994    0.00001625
  182       -6.2719222097      -0.0000000011     0.999994    0.00001618
  183       -6.2719222107      -0.0000000011     0.999994    0.00001611
  184       -6.2719222118      -0.0000000010     0.999994    0.00001604
  185       -6.2719222128      -0.0000000010     0.999994    0.00001597
  186       -6.2719222139      -0.0000000010     0.999994    0.00001590
  187       -6.2719222149      -0.0000000010     0.999994    0.00001583
  188       -6.2719222159      -0.0000000010     0.999994    0.00001576
  189       -6.2719222169      -0.0000000010     0.999994    0.00001570
  190       -6.2719222179      -0.0000000010     0.999994    0.00001563
  191       -6.2719222189      -0.0000000010     0.999994    0.00001557
  192       -6.2719222198      -0.0000000010     0.999994    0.00001550
  193       -6.2719222208      -0.0000000010     0.999994    0.00001544
  194       -6.2719222218      -0.0000000010     0.999994    0.00001537
  195       -6.2719222227      -0.0000000010     0.999994    0.00001531
  196       -6.2719222236      -0.0000000009     0.999994    0.00001525
  197       -6.2719222246      -0.0000000009     0.999994    0.00001518
  198       -6.2719222255      -0.0000000009     0.999994    0.00001512
  199       -6.2719222264      -0.0000000009     0.999994    0.00001506
  200       -6.2719222273      -0.0000000009     0.999994    0.00001500
  201       -6.2719222282      -0.0000000009     0.999994    0.00001494
  202       -6.2719222291      -0.0000000009     0.999994    0.00001488
  203       -6.2719222300      -0.0000000009     0.999994    0.00001482
  204       -6.2719222309      -0.0000000009     0.999994    0.00001476
  205       -6.2719222318      -0.0000000009     0.999994    0.00001470
  206       -6.2719222327      -0.0000000009     0.999994    0.00001464
  207       -6.2719222335      -0.0000000009     0.999994    0.00001458
  208       -6.2719222344      -0.0000000009     0.999994    0.00001452
  209       -6.2719222352      -0.0000000008     0.999994    0.00001447
  210       -6.2719222361      -0.0000000008     0.999994    0.00001441
  211       -6.2719222369      -0.0000000008     0.999994    0.00001435
  212       -6.2719222377      -0.0000000008     0.999994    0.00001430
  213       -6.2719222385      -0.0000000008     0.999994    0.00001424
  214       -6.2719222394      -0.0000000008     0.999994    0.00001418
  215       -6.2719222402      -0.0000000008     0.999994    0.00001413
  216       -6.2719222410      -0.0000000008     0.999994    0.00001408
  217       -6.2719222418      -0.0000000008     0.999994    0.00001402
  218       -6.2719222426      -0.0000000008     0.999994    0.00001397
  219       -6.2719222433      -0.0000000008     0.999994    0.00001391
  220       -6.2719222441      -0.0000000008     0.999994    0.00001386
  221       -6.2719222449      -0.0000000008     0.999994    0.00001381
  222       -6.2719222457      -0.0000000008     0.999994    0.00001376
  223       -6.2719222464      -0.0000000008     0.999994    0.00001370
  224       -6.2719222472      -0.0000000008     0.999994    0.00001365
  225       -6.2719222479      -0.0000000007     0.999994    0.00001360
  226       -6.2719222487      -0.0000000007     0.999994    0.00001355
  227       -6.2719222494      -0.0000000007     0.999994    0.00001350
  228       -6.2719222501      -0.0000000007     0.999994    0.00001345
  229       -6.2719222509      -0.0000000007     0.999994    0.00001340
  230       -6.2719222516      -0.0000000007     0.999994    0.00001335
  231       -6.2719222523      -0.0000000007     0.999994    0.00001330
  232       -6.2719222530      -0.0000000007     0.999994    0.00001325
  233       -6.2719222537      -0.0000000007     0.999994    0.00001321
  234       -6.2719222544      -0.0000000007     0.999994    0.00001316
  235       -6.2719222551      -0.0000000007     0.999994    0.00001311
  236       -6.2719222558      -0.0000000007     0.999994    0.00001306
  237       -6.2719222565      -0.0000000007     0.999994    0.00001302
  238       -6.2719222572      -0.0000000007     0.999994    0.00001297
  239       -6.2719222578      -0.0000000007     0.999994    0.00001292
  240       -6.2719222585      -0.0000000007     0.999994    0.00001288
  241       -6.2719222592      -0.0000000007     0.999994    0.00001283
  242       -6.2719222598      -0.0000000007     0.999994    0.00001279
  243       -6.2719222605      -0.0000000007     0.999994    0.00001274
  244       -6.2719222611      -0.0000000007     0.999994    0.00001270
  245       -6.2719222618      -0.0000000006     0.999994    0.00001265
  246       -6.2719222624      -0.0000000006     0.999994    0.00001261
  247       -6.2719222631      -0.0000000006     0.999994    0.00001256
  248       -6.2719222637      -0.0000000006     0.999994    0.00001252
  249       -6.2719222643      -0.0000000006     0.999994    0.00001248
  250       -6.2719222649      -0.0000000006     0.999994    0.00001244
  251       -6.2719222656      -0.0000000006     0.999994    0.00001239
  252       -6.2719222662      -0.0000000006     0.999994    0.00001235
  253       -6.2719222668      -0.0000000006     0.999994    0.00001231
  254       -6.2719222674      -0.0000000006     0.999994    0.00001227
  255       -6.2719222680      -0.0000000006     0.999994    0.00001222
  256       -6.2719222686      -0.0000000006     0.999994    0.00001218
  257       -6.2719222692      -0.0000000006     0.999994    0.00001214
  258       -6.2719222698      -0.0000000006     0.999994    0.00001210
  259       -6.2719222704      -0.0000000006     0.999994    0.00001206
  260       -6.2719222710      -0.0000000006     0.999994    0.00001202
  261       -6.2719222715      -0.0000000006     0.999994    0.00001198
  262       -6.2719222721      -0.0000000006     0.999994    0.00001194
  263       -6.2719222727      -0.0000000006     0.999994    0.00001190
  264       -6.2719222732      -0.0000000006     0.999994    0.00001186
  265       -6.2719222738      -0.0000000006     0.999994    0.00001183
  266       -6.2719222744      -0.0000000006     0.999994    0.00001179
  267       -6.2719222749      -0.0000000006     0.999994    0.00001175
  268       -6.2719222755      -0.0000000006     0.999994    0.00001171
  269       -6.2719222760      -0.0000000005     0.999994    0.00001167
  270       -6.2719222766      -0.0000000005     0.999994    0.00001164
  271       -6.2719222771      -0.0000000005     0.999994    0.00001160
  272       -6.2719222777      -0.0000000005     0.999994    0.00001156
  273       -6.2719222782      -0.0000000005     0.999994    0.00001152
  274       -6.2719222787      -0.0000000005     0.999994    0.00001149
  275       -6.2719222793      -0.0000000005     0.999994    0.00001145
  276       -6.2719222798      -0.0000000005     0.999994    0.00001142
  277       -6.2719222803      -0.0000000005     0.999994    0.00001138
  278       -6.2719222808      -0.0000000005     0.999994    0.00001134
  279       -6.2719222813      -0.0000000005     0.999994    0.00001131
  280       -6.2719222818      -0.0000000005     0.999994    0.00001127
  281       -6.2719222824      -0.0000000005     0.999994    0.00001124
  282       -6.2719222829      -0.0000000005     0.999994    0.00001120
  283       -6.2719222834      -0.0000000005     0.999994    0.00001117
  284       -6.2719222839      -0.0000000005     0.999994    0.00001114
  285       -6.2719222844      -0.0000000005     0.999994    0.00001110
  286       -6.2719222849      -0.0000000005     0.999994    0.00001107
  287       -6.2719222853      -0.0000000005     0.999994    0.00001103
  288       -6.2719222858      -0.0000000005     0.999994    0.00001100
  289       -6.2719222863      -0.0000000005     0.999994    0.00001097
  290       -6.2719222868      -0.0000000005     0.999994    0.00001093
  291       -6.2719222873      -0.0000000005     0.999994    0.00001090
  292       -6.2719222877      -0.0000000005     0.999994    0.00001087
  293       -6.2719222882      -0.0000000005     0.999994    0.00001084
  294       -6.2719222887      -0.0000000005     0.999994    0.00001080
  295       -6.2719222892      -0.0000000005     0.999994    0.00001077
  296       -6.2719222896      -0.0000000005     0.999994    0.00001074
  297       -6.2719222901      -0.0000000005     0.999994    0.00001071
  298       -6.2719222905      -0.0000000005     0.999994    0.00001068
  299       -6.2719222910      -0.0000000005     0.999994    0.00001065
  300       -6.2719222915      -0.0000000005     0.999994    0.00001062
  301       -6.2719222919      -0.0000000005     0.999994    0.00001059
  302       -6.2719222924      -0.0000000004     0.999994    0.00001056
  303       -6.2719222928      -0.0000000004     0.999994    0.00001052
  304       -6.2719222932      -0.0000000004     0.999994    0.00001049
  305       -6.2719222937      -0.0000000004     0.999994    0.00001046
  306       -6.2719222941      -0.0000000004     0.999994    0.00001043
  307       -6.2719222946      -0.0000000004     0.999994    0.00001041
  308       -6.2719222950      -0.0000000004     0.999994    0.00001038
  309       -6.2719222954      -0.0000000004     0.999994    0.00001035
  310       -6.2719222958      -0.0000000004     0.999994    0.00001032
  311       -6.2719222963      -0.0000000004     0.999994    0.00001029
  312       -6.2719222967      -0.0000000004     0.999994    0.00001026
  313       -6.2719222971      -0.0000000004     0.999994    0.00001023
  314       -6.2719222975      -0.0000000004     0.999994    0.00001020
  315       -6.2719222979      -0.0000000004     0.999994    0.00001018
  316       -6.2719222984      -0.0000000004     0.999994    0.00001015
  317       -6.2719222988      -0.0000000004     0.999994    0.00001012
  318       -6.2719222992      -0.0000000004     0.999994    0.00001009
  319       -6.2719222996      -0.0000000004     0.999994    0.00001006
  320       -6.2719223000      -0.0000000004     0.999994    0.00001004
  321       -6.2719223004      -0.0000000004     0.999994    0.00001001
  322       -6.2719223008      -0.0000000004     0.999994    0.00000998
  323       -6.2719223012      -0.0000000004     0.999994    0.00000996
  324       -6.2719223016      -0.0000000004     0.999994    0.00000993
  325       -6.2719223020      -0.0000000004     0.999994    0.00000990
  326       -6.2719223024      -0.0000000004     0.999994    0.00000988
  327       -6.2719223028      -0.0000000004     0.999994    0.00000985
  328       -6.2719223032      -0.0000000004     0.999994    0.00000983
  329       -6.2719223035      -0.0000000004     0.999994    0.00000980
  330       -6.2719223039      -0.0000000004     0.999994    0.00000977
  331       -6.2719223043      -0.0000000004     0.999994    0.00000975
  332       -6.2719223047      -0.0000000004     0.999994    0.00000972
  333       -6.2719223051      -0.0000000004     0.999994    0.00000970
  334       -6.2719223054      -0.0000000004     0.999994    0.00000967
  335       -6.2719223058      -0.0000000004     0.999994    0.00000965
  336       -6.2719223062      -0.0000000004     0.999994    0.00000962
  337       -6.2719223066      -0.0000000004     0.999994    0.00000960
  338       -6.2719223069      -0.0000000004     0.999994    0.00000957
  339       -6.2719223073      -0.0000000004     0.999994    0.00000955
  340       -6.2719223077      -0.0000000004     0.999994    0.00000953
  341       -6.2719223080      -0.0000000004     0.999994    0.00000950
  342       -6.2719223084      -0.0000000004     0.999994    0.00000948
  343       -6.2719223087      -0.0000000004     0.999994    0.00000945
  344       -6.2719223091      -0.0000000004     0.999994    0.00000943
  345       -6.2719223094      -0.0000000004     0.999994    0.00000941
  346       -6.2719223098      -0.0000000004     0.999994    0.00000938
  347       -6.2719223101      -0.0000000004     0.999994    0.00000936
  348       -6.2719223105      -0.0000000003     0.999994    0.00000934
  349       -6.2719223108      -0.0000000003     0.999994    0.00000932
  350       -6.2719223112      -0.0000000003     0.999994    0.00000929
  351       -6.2719223115      -0.0000000003     0.999994    0.00000927
  352       -6.2719223119      -0.0000000003     0.999994    0.00000925
  353       -6.2719223122      -0.0000000003     0.999994    0.00000923
  354       -6.2719223126      -0.0000000003     0.999994    0.00000920
  355       -6.2719223129      -0.0000000003     0.999994    0.00000918
  356       -6.2719223132      -0.0000000003     0.999994    0.00000916
  357       -6.2719223136      -0.0000000003     0.999994    0.00000914
  358       -6.2719223139      -0.0000000003     0.999994    0.00000912
  359       -6.2719223142      -0.0000000003     0.999994    0.00000909
  360       -6.2719223146      -0.0000000003     0.999994    0.00000907
  361       -6.2719223149      -0.0000000003     0.999994    0.00000905
  362       -6.2719223152      -0.0000000003     0.999994    0.00000903
  363       -6.2719223155      -0.0000000003     0.999994    0.00000901
  364       -6.2719223159      -0.0000000003     0.999994    0.00000899
  365       -6.2719223162      -0.0000000003     0.999994    0.00000897
  366       -6.2719223165      -0.0000000003     0.999994    0.00000895
  367       -6.2719223168      -0.0000000003     0.999994    0.00000893
  368       -6.2719223171      -0.0000000003     0.999994    0.00000891
  369       -6.2719223175      -0.0000000003     0.999994    0.00000889
  370       -6.2719223178      -0.0000000003     0.999994    0.00000887
  371       -6.2719223181      -0.0000000003     0.999994    0.00000885
  372       -6.2719223184      -0.0000000003     0.999994    0.00000883
  373       -6.2719223187      -0.0000000003     0.999994    0.00000881
  374       -6.2719223190      -0.0000000003     0.999994    0.00000879
  375       -6.2719223193      -0.0000000003     0.999994    0.00000877
  376       -6.2719223196      -0.0000000003     0.999994    0.00000875
  377       -6.2719223199      -0.0000000003     0.999994    0.00000873
  378       -6.2719223202      -0.0000000003     0.999994    0.00000871
  379       -6.2719223205      -0.0000000003     0.999994    0.00000869
  380       -6.2719223209      -0.0000000003     0.999994    0.00000867
  381       -6.2719223212      -0.0000000003     0.999994    0.00000865
  382       -6.2719223214      -0.0000000003     0.999994    0.00000863
  383       -6.2719223217      -0.0000000003     0.999994    0.00000861
  384       -6.2719223220      -0.0000000003     0.999994    0.00000860
  385       -6.2719223223      -0.0000000003     0.999994    0.00000858
  386       -6.2719223226      -0.0000000003     0.999994    0.00000856
  387       -6.2719223229      -0.0000000003     0.999994    0.00000854
  388       -6.2719223232      -0.0000000003     0.999994    0.00000852
  389       -6.2719223235      -0.0000000003     0.999994    0.00000850
  390       -6.2719223238      -0.0000000003     0.999994    0.00000849
  391       -6.2719223241      -0.0000000003     0.999994    0.00000847
  392       -6.2719223244      -0.0000000003     0.999994    0.00000845
  393       -6.2719223246      -0.0000000003     0.999994    0.00000843
  394       -6.2719223249      -0.0000000003     0.999994    0.00000842
  395       -6.2719223252      -0.0000000003     0.999994    0.00000840
  396       -6.2719223255      -0.0000000003     0.999994    0.00000838
  397       -6.2719223258      -0.0000000003     0.999994    0.00000836
  398       -6.2719223261      -0.0000000003     0.999994    0.00000835
  399       -6.2719223263      -0.0000000003     0.999994    0.00000833
  400       -6.2719223266      -0.0000000003     0.999994    0.00000831
  401       -6.2719223269      -0.0000000003     0.999994    0.00000830
  402       -6.2719223272      -0.0000000003     0.999994    0.00000828
  403       -6.2719223274      -0.0000000003     0.999994    0.00000826
  404       -6.2719223277      -0.0000000003     0.999994    0.00000825
  405       -6.2719223280      -0.0000000003     0.999994    0.00000823
  406       -6.2719223282      -0.0000000003     0.999994    0.00000821
  407       -6.2719223285      -0.0000000003     0.999994    0.00000820
  408       -6.2719223288      -0.0000000003     0.999994    0.00000818
  409       -6.2719223290      -0.0000000003     0.999994    0.00000817
  410       -6.2719223293      -0.0000000003     0.999994    0.00000815
  411       -6.2719223296      -0.0000000003     0.999994    0.00000813
  412       -6.2719223298      -0.0000000003     0.999994    0.00000812
  413       -6.2719223301      -0.0000000003     0.999994    0.00000810
  414       -6.2719223304      -0.0000000003     0.999994    0.00000809
  415       -6.2719223306      -0.0000000003     0.999994    0.00000807
  416       -6.2719223309      -0.0000000003     0.999994    0.00000806
  417       -6.2719223311      -0.0000000003     0.999994    0.00000804
  418       -6.2719223314      -0.0000000003     0.999994    0.00000803
  419       -6.2719223317      -0.0000000003     0.999994    0.00000801
  420       -6.2719223319      -0.0000000003     0.999994    0.00000800
  421       -6.2719223322      -0.0000000003     0.999994    0.00000798
  422       -6.2719223324      -0.0000000003     0.999994    0.00000797
  423       -6.2719223327      -0.0000000003     0.999994    0.00000795
  424       -6.2719223329      -0.0000000003     0.999994    0.00000794
  425       -6.2719223332      -0.0000000003     0.999994    0.00000792
  426       -6.2719223334      -0.0000000002     0.999994    0.00000791
  427       -6.2719223337      -0.0000000002     0.999994    0.00000789
  428       -6.2719223339      -0.0000000002     0.999994    0.00000788
  429       -6.2719223342      -0.0000000002     0.999994    0.00000786
  430       -6.2719223344      -0.0000000002     0.999994    0.00000785
  431       -6.2719223347      -0.0000000002     0.999994    0.00000784
  432       -6.2719223349      -0.0000000002     0.999994    0.00000782
  433       -6.2719223351      -0.0000000002     0.999994    0.00000781
  434       -6.2719223354      -0.0000000002     0.999994    0.00000779
  435       -6.2719223356      -0.0000000002     0.999994    0.00000778
  436       -6.2719223359      -0.0000000002     0.999994    0.00000777
  437       -6.2719223361      -0.0000000002     0.999994    0.00000775
  438       -6.2719223363      -0.0000000002     0.999994    0.00000774
  439       -6.2719223366      -0.0000000002     0.999994    0.00000773
  440       -6.2719223368      -0.0000000002     0.999994    0.00000771
  441       -6.2719223371      -0.0000000002     0.999994    0.00000770
  442       -6.2719223373      -0.0000000002     0.999994    0.00000769
  443       -6.2719223375      -0.0000000002     0.999994    0.00000767
  444       -6.2719223378      -0.0000000002     0.999994    0.00000766
  445       -6.2719223380      -0.0000000002     0.999994    0.00000765
  446       -6.2719223382      -0.0000000002     0.999994    0.00000763
  447       -6.2719223385      -0.0000000002     0.999994    0.00000762
  448       -6.2719223387      -0.0000000002     0.999994    0.00000761
  449       -6.2719223389      -0.0000000002     0.999994    0.00000760
  450       -6.2719223392      -0.0000000002     0.999994    0.00000758
  451       -6.2719223394      -0.0000000002     0.999994    0.00000757
  452       -6.2719223396      -0.0000000002     0.999994    0.00000756
  453       -6.2719223398      -0.0000000002     0.999994    0.00000755
  454       -6.2719223401      -0.0000000002     0.999994    0.00000753
  455       -6.2719223403      -0.0000000002     0.999994    0.00000752
  456       -6.2719223405      -0.0000000002     0.999994    0.00000751
  457       -6.2719223407      -0.0000000002     0.999994    0.00000750
  458       -6.2719223410      -0.0000000002     0.999994    0.00000749
  459       -6.2719223412      -0.0000000002     0.999994    0.00000747
  460       -6.2719223414      -0.0000000002     0.999994    0.00000746
  461       -6.2719223416      -0.0000000002     0.999994    0.00000745
  462       -6.2719223419      -0.0000000002     0.999994    0.00000744
  463       -6.2719223421      -0.0000000002     0.999994    0.00000743
  464       -6.2719223423      -0.0000000002     0.999994    0.00000742
  465       -6.2719223425      -0.0000000002     0.999994    0.00000740
  466       -6.2719223427      -0.0000000002     0.999994    0.00000739
  467       -6.2719223429      -0.0000000002     0.999994    0.00000738
  468       -6.2719223432      -0.0000000002     0.999994    0.00000737
  469       -6.2719223434      -0.0000000002     0.999994    0.00000736
  470       -6.2719223436      -0.0000000002     0.999994    0.00000735
  471       -6.2719223438      -0.0000000002     0.999994    0.00000734
  472       -6.2719223440      -0.0000000002     0.999994    0.00000733
  473       -6.2719223442      -0.0000000002     0.999994    0.00000731
  474       -6.2719223444      -0.0000000002     0.999994    0.00000730
  475       -6.2719223447      -0.0000000002     0.999994    0.00000729
  476       -6.2719223449      -0.0000000002     0.999994    0.00000728
  477       -6.2719223451      -0.0000000002     0.999994    0.00000727
  478       -6.2719223453      -0.0000000002     0.999994    0.00000726
  479       -6.2719223455      -0.0000000002     0.999994    0.00000725
  480       -6.2719223457      -0.0000000002     0.999994    0.00000724
  481       -6.2719223459      -0.0000000002     0.999994    0.00000723
  482       -6.2719223461      -0.0000000002     0.999994    0.00000722
  483       -6.2719223463      -0.0000000002     0.999994    0.00000721
  484       -6.2719223465      -0.0000000002     0.999994    0.00000720
  485       -6.2719223467      -0.0000000002     0.999994    0.00000719
  486       -6.2719223469      -0.0000000002     0.999994    0.00000718
  487       -6.2719223472      -0.0000000002     0.999994    0.00000717
  488       -6.2719223474      -0.0000000002     0.999994    0.00000716
  489       -6.2719223476      -0.0000000002     0.999994    0.00000715
  490       -6.2719223478      -0.0000000002     0.999994    0.00000714
  491       -6.2719223480      -0.0000000002     0.999994    0.00000713
  492       -6.2719223482      -0.0000000002     0.999994    0.00000712
  493       -6.2719223484      -0.0000000002     0.999994    0.00000711
  494       -6.2719223486      -0.0000000002     0.999994    0.00000710
  495       -6.2719223488      -0.0000000002     0.999994    0.00000709
  496       -6.2719223490      -0.0000000002     0.999994    0.00000708
  497       -6.2719223492      -0.0000000002     0.999994    0.00000707
  498       -6.2719223494      -0.0000000002     0.999994    0.00000706
  499       -6.2719223496      -0.0000000002     0.999994    0.00000705
  500       -6.2719223498      -0.0000000002     0.999994    0.00000704
  501       -6.2719223500      -0.0000000002     0.999994    0.00000703
  502       -6.2719223502      -0.0000000002     0.999994    0.00000703
  503       -6.2719223504      -0.0000000002     0.999994    0.00000702
  504       -6.2719223505      -0.0000000002     0.999994    0.00000701
  505       -6.2719223507      -0.0000000002     0.999994    0.00000700
  506       -6.2719223509      -0.0000000002     0.999994    0.00000699
  507       -6.2719223511      -0.0000000002     0.999994    0.00000698
  508       -6.2719223513      -0.0000000002     0.999994    0.00000697
  509       -6.2719223515      -0.0000000002     0.999994    0.00000696
  510       -6.2719223517      -0.0000000002     0.999994    0.00000695
  511       -6.2719223519      -0.0000000002     0.999994    0.00000695
  512       -6.2719223521      -0.0000000002     0.999994    0.00000694
  513       -6.2719223523      -0.0000000002     0.999994    0.00000693
  514       -6.2719223525      -0.0000000002     0.999994    0.00000692
  515       -6.2719223527      -0.0000000002     0.999994    0.00000691
  516       -6.2719223529      -0.0000000002     0.999994    0.00000690
  517       -6.2719223530      -0.0000000002     0.999994    0.00000690
  518       -6.2719223532      -0.0000000002     0.999994    0.00000689
  519       -6.2719223534      -0.0000000002     0.999994    0.00000688
  520       -6.2719223536      -0.0000000002     0.999994    0.00000687
  521       -6.2719223538      -0.0000000002     0.999994    0.00000686
  522       -6.2719223540      -0.0000000002     0.999994    0.00000685
  523       -6.2719223542      -0.0000000002     0.999994    0.00000685
  524       -6.2719223544      -0.0000000002     0.999994    0.00000684
  525       -6.2719223545      -0.0000000002     0.999994    0.00000683
  526       -6.2719223547      -0.0000000002     0.999994    0.00000682
  527       -6.2719223549      -0.0000000002     0.999994    0.00000682
  528       -6.2719223551      -0.0000000002     0.999994    0.00000681
  529       -6.2719223553      -0.0000000002     0.999994    0.00000680
  530       -6.2719223555      -0.0000000002     0.999994    0.00000679
  531       -6.2719223556      -0.0000000002     0.999994    0.00000678
  532       -6.2719223558      -0.0000000002     0.999994    0.00000678
  533       -6.2719223560      -0.0000000002     0.999994    0.00000677
  534       -6.2719223562      -0.0000000002     0.999994    0.00000676
  535       -6.2719223564      -0.0000000002     0.999994    0.00000675
  536       -6.2719223566      -0.0000000002     0.999994    0.00000675
  537       -6.2719223567      -0.0000000002     0.999994    0.00000674
  538       -6.2719223569      -0.0000000002     0.999994    0.00000673
  539       -6.2719223571      -0.0000000002     0.999994    0.00000673
  540       -6.2719223573      -0.0000000002     0.999994    0.00000672
  541       -6.2719223575      -0.0000000002     0.999994    0.00000671
  542       -6.2719223576      -0.0000000002     0.999994    0.00000670
  543       -6.2719223578      -0.0000000002     0.999994    0.00000670
  544       -6.2719223580      -0.0000000002     0.999994    0.00000669
  545       -6.2719223582      -0.0000000002     0.999994    0.00000668
  546       -6.2719223583      -0.0000000002     0.999994    0.00000668
  547       -6.2719223585      -0.0000000002     0.999994    0.00000667
  548       -6.2719223587      -0.0000000002     0.999994    0.00000666
  549       -6.2719223589      -0.0000000002     0.999994    0.00000666
  550       -6.2719223590      -0.0000000002     0.999994    0.00000665
  551       -6.2719223592      -0.0000000002     0.999994    0.00000664
  552       -6.2719223594      -0.0000000002     0.999994    0.00000664
  553       -6.2719223596      -0.0000000002     0.999994    0.00000663
  554       -6.2719223597      -0.0000000002     0.999994    0.00000662
  555       -6.2719223599      -0.0000000002     0.999994    0.00000662
  556       -6.2719223601      -0.0000000002     0.999994    0.00000661
  557       -6.2719223603      -0.0000000002     0.999994    0.00000661
  558       -6.2719223604      -0.0000000002     0.999994    0.00000660
  559       -6.2719223606      -0.0000000002     0.999994    0.00000659
  560       -6.2719223608      -0.0000000002     0.999994    0.00000659
  561       -6.2719223610      -0.0000000002     0.999994    0.00000658
  562       -6.2719223611      -0.0000000002     0.999994    0.00000658
  563       -6.2719223613      -0.0000000002     0.999994    0.00000657
  564       -6.2719223615      -0.0000000002     0.999994    0.00000656
  565       -6.2719223616      -0.0000000002     0.999994    0.00000656
  566       -6.2719223618      -0.0000000002     0.999994    0.00000655
  567       -6.2719223620      -0.0000000002     0.999994    0.00000655
  568       -6.2719223622      -0.0000000002     0.999994    0.00000654
  569       -6.2719223623      -0.0000000002     0.999994    0.00000653
  570       -6.2719223625      -0.0000000002     0.999994    0.00000653
  571       -6.2719223627      -0.0000000002     0.999994    0.00000652
  572       -6.2719223628      -0.0000000002     0.999994    0.00000652
  573       -6.2719223630      -0.0000000002     0.999994    0.00000651
  574       -6.2719223632      -0.0000000002     0.999994    0.00000651
  575       -6.2719223633      -0.0000000002     0.999994    0.00000650
  576       -6.2719223635      -0.0000000002     0.999994    0.00000650
  577       -6.2719223637      -0.0000000002     0.999994    0.00000649
  578       -6.2719223638      -0.0000000002     0.999994    0.00000649
  579       -6.2719223640      -0.0000000002     0.999994    0.00000648
  580       -6.2719223642      -0.0000000002     0.999994    0.00000647
  581       -6.2719223643      -0.0000000002     0.999994    0.00000647
  582       -6.2719223645      -0.0000000002     0.999994    0.00000646
  583       -6.2719223647      -0.0000000002     0.999994    0.00000646
  584       -6.2719223648      -0.0000000002     0.999994    0.00000645
  585       -6.2719223650      -0.0000000002     0.999994    0.00000645
  586       -6.2719223652      -0.0000000002     0.999994    0.00000644
  587       -6.2719223653      -0.0000000002     0.999994    0.00000644
  588       -6.2719223655      -0.0000000002     0.999994    0.00000643
  589       -6.2719223657      -0.0000000002     0.999994    0.00000643
  590       -6.2719223658      -0.0000000002     0.999994    0.00000642
  591       -6.2719223660      -0.0000000002     0.999994    0.00000642
  592       -6.2719223661      -0.0000000002     0.999994    0.00000642
  593       -6.2719223663      -0.0000000002     0.999994    0.00000641
  594       -6.2719223665      -0.0000000002     0.999994    0.00000641
  595       -6.2719223666      -0.0000000002     0.999994    0.00000640
  596       -6.2719223668      -0.0000000002     0.999994    0.00000640
  597       -6.2719223670      -0.0000000002     0.999994    0.00000639
  598       -6.2719223671      -0.0000000002     0.999994    0.00000639
  599       -6.2719223673      -0.0000000002     0.999994    0.00000638
  600       -6.2719223674      -0.0000000002     0.999994    0.00000638
  601       -6.2719223676      -0.0000000002     0.999994    0.00000637
  602       -6.2719223678      -0.0000000002     0.999994    0.00000637
  603       -6.2719223679      -0.0000000002     0.999994    0.00000637
  604       -6.2719223681      -0.0000000002     0.999994    0.00000636
  605       -6.2719223682      -0.0000000002     0.999994    0.00000636
  606       -6.2719223684      -0.0000000002     0.999994    0.00000635
  607       -6.2719223686      -0.0000000002     0.999994    0.00000635
  608       -6.2719223687      -0.0000000002     0.999994    0.00000635
  609       -6.2719223689      -0.0000000002     0.999994    0.00000634
  610       -6.2719223690      -0.0000000002     0.999994    0.00000634
  611       -6.2719223692      -0.0000000002     0.999994    0.00000633
  612       -6.2719223694      -0.0000000002     0.999994    0.00000633
  613       -6.2719223695      -0.0000000002     0.999994    0.00000633
  614       -6.2719223697      -0.0000000002     0.999994    0.00000632
  615       -6.2719223698      -0.0000000002     0.999994    0.00000632
  616       -6.2719223700      -0.0000000002     0.999994    0.00000631
  617       -6.2719223702      -0.0000000002     0.999994    0.00000631
  618       -6.2719223703      -0.0000000002     0.999994    0.00000631
  619       -6.2719223705      -0.0000000002     0.999994    0.00000630
  620       -6.2719223706      -0.0000000002     0.999994    0.00000630
  621       -6.2719223708      -0.0000000002     0.999994    0.00000630
  622       -6.2719223709      -0.0000000002     0.999994    0.00000629
  623       -6.2719223711      -0.0000000002     0.999994    0.00000629
  624       -6.2719223713      -0.0000000002     0.999994    0.00000629
  625       -6.2719223714      -0.0000000002     0.999994    0.00000628
  626       -6.2719223716      -0.0000000002     0.999994    0.00000628
  627       -6.2719223717      -0.0000000002     0.999994    0.00000628
  628       -6.2719223719      -0.0000000002     0.999994    0.00000627
  629       -6.2719223720      -0.0000000002     0.999994    0.00000627
  630       -6.2719223722      -0.0000000002     0.999994    0.00000627
  631       -6.2719223723      -0.0000000002     0.999994    0.00000626
  632       -6.2719223725      -0.0000000002     0.999994    0.00000626
  633       -6.2719223727      -0.0000000002     0.999994    0.00000626
  634       -6.2719223728      -0.0000000002     0.999994    0.00000625
  635       -6.2719223730      -0.0000000002     0.999994    0.00000625
  636       -6.2719223731      -0.0000000002     0.999994    0.00000625
  637       -6.2719223733      -0.0000000002     0.999994    0.00000625
  638       -6.2719223734      -0.0000000002     0.999994    0.00000624
  639       -6.2719223736      -0.0000000002     0.999994    0.00000624
  640       -6.2719223737      -0.0000000002     0.999994    0.00000624
  641       -6.2719223739      -0.0000000002     0.999994    0.00000623
  642       -6.2719223740      -0.0000000002     0.999994    0.00000623
  643       -6.2719223742      -0.0000000002     0.999994    0.00000623
  644       -6.2719223744      -0.0000000002     0.999994    0.00000623
  645       -6.2719223745      -0.0000000002     0.999994    0.00000622
  646       -6.2719223747      -0.0000000002     0.999994    0.00000622
  647       -6.2719223748      -0.0000000002     0.999994    0.00000622
  648       -6.2719223750      -0.0000000002     0.999994    0.00000622
  649       -6.2719223751      -0.0000000002     0.999994    0.00000621
  650       -6.2719223753      -0.0000000002     0.999994    0.00000621
  651       -6.2719223754      -0.0000000002     0.999994    0.00000621
  652       -6.2719223756      -0.0000000002     0.999994    0.00000621
  653       -6.2719223757      -0.0000000002     0.999994    0.00000620
  654       -6.2719223759      -0.0000000002     0.999994    0.00000620
  655       -6.2719223760      -0.0000000002     0.999994    0.00000620
  656       -6.2719223762      -0.0000000002     0.999994    0.00000620
  657       -6.2719223763      -0.0000000002     0.999994    0.00000620
  658       -6.2719223765      -0.0000000002     0.999994    0.00000619
  659       -6.2719223766      -0.0000000002     0.999994    0.00000619
  660       -6.2719223768      -0.0000000002     0.999994    0.00000619
  661       -6.2719223769      -0.0000000002     0.999994    0.00000619
  662       -6.2719223771      -0.0000000002     0.999994    0.00000619
  663       -6.2719223772      -0.0000000002     0.999994    0.00000618
  664       -6.2719223774      -0.0000000002     0.999994    0.00000618
  665       -6.2719223775      -0.0000000002     0.999994    0.00000618
  666       -6.2719223777      -0.0000000002     0.999994    0.00000618
  667       -6.2719223778      -0.0000000002     0.999994    0.00000618
  668       -6.2719223780      -0.0000000002     0.999994    0.00000617
  669       -6.2719223782      -0.0000000002     0.999994    0.00000617
  670       -6.2719223783      -0.0000000002     0.999994    0.00000617
  671       -6.2719223785      -0.0000000002     0.999994    0.00000617
  672       -6.2719223786      -0.0000000002     0.999994    0.00000617
  673       -6.2719223788      -0.0000000002     0.999994    0.00000617
  674       -6.2719223789      -0.0000000002     0.999994    0.00000616
  675       -6.2719223791      -0.0000000002     0.999994    0.00000616
  676       -6.2719223792      -0.0000000002     0.999994    0.00000616
  677       -6.2719223794      -0.0000000002     0.999994    0.00000616
  678       -6.2719223795      -0.0000000001     0.999994    0.00000616
  679       -6.2719223797      -0.0000000001     0.999994    0.00000616
  680       -6.2719223798      -0.0000000001     0.999994    0.00000616
  681       -6.2719223800      -0.0000000001     0.999994    0.00000615
  682       -6.2719223801      -0.0000000001     0.999994    0.00000615
  683       -6.2719223803      -0.0000000001     0.999994    0.00000615
  684       -6.2719223804      -0.0000000001     0.999994    0.00000615
  685       -6.2719223806      -0.0000000001     0.999994    0.00000615
  686       -6.2719223807      -0.0000000001     0.999994    0.00000615
  687       -6.2719223809      -0.0000000001     0.999994    0.00000615
  688       -6.2719223810      -0.0000000001     0.999994    0.00000615
  689       -6.2719223811      -0.0000000001     0.999994    0.00000615
  690       -6.2719223813      -0.0000000001     0.999994    0.00000614
  691       -6.2719223814      -0.0000000001     0.999994    0.00000614
  692       -6.2719223816      -0.0000000001     0.999994    0.00000614
  693       -6.2719223817      -0.0000000001     0.999994    0.00000614
  694       -6.2719223819      -0.0000000001     0.999994    0.00000614
  695       -6.2719223820      -0.0000000001     0.999994    0.00000614
  696       -6.2719223822      -0.0000000001     0.999994    0.00000614
  697       -6.2719223823      -0.0000000001     0.999994    0.00000614
  698       -6.2719223825      -0.0000000001     0.999994    0.00000614
  699       -6.2719223826      -0.0000000001     0.999994    0.00000614
  700       -6.2719223828      -0.0000000001     0.999994    0.00000614
  701       -6.2719223829      -0.0000000001     0.999994    0.00000614
  702       -6.2719223831      -0.0000000001     0.999994    0.00000614
  703       -6.2719223832      -0.0000000001     0.999994    0.00000614
  704       -6.2719223834      -0.0000000001     0.999994    0.00000613
  705       -6.2719223835      -0.0000000001     0.999994    0.00000613
  706       -6.2719223837      -0.0000000001     0.999994    0.00000613
  707       -6.2719223838      -0.0000000001     0.999994    0.00000613
  708       -6.2719223840      -0.0000000001     0.999994    0.00000613
  709       -6.2719223841      -0.0000000001     0.999994    0.00000613
  710       -6.2719223843      -0.0000000001     0.999994    0.00000613
  711       -6.2719223844      -0.0000000001     0.999994    0.00000613
  712       -6.2719223846      -0.0000000001     0.999994    0.00000613
  713       -6.2719223847      -0.0000000001     0.999994    0.00000613
  714       -6.2719223849      -0.0000000001     0.999994    0.00000613
  715       -6.2719223850      -0.0000000001     0.999994    0.00000613
  716       -6.2719223852      -0.0000000001     0.999994    0.00000613
  717       -6.2719223853      -0.0000000001     0.999994    0.00000613
  718       -6.2719223855      -0.0000000001     0.999994    0.00000613
  719       -6.2719223856      -0.0000000001     0.999994    0.00000613
  720       -6.2719223858      -0.0000000001     0.999994    0.00000613
  721       -6.2719223859      -0.0000000001     0.999994    0.00000613
  722       -6.2719223861      -0.0000000001     0.999994    0.00000613
  723       -6.2719223862      -0.0000000001     0.999994    0.00000613
  724       -6.2719223864      -0.0000000001     0.999994    0.00000613
  725       -6.2719223865      -0.0000000001     0.999994    0.00000613
  726       -6.2719223867      -0.0000000001     0.999994    0.00000613
  727       -6.2719223868      -0.0000000001     0.999994    0.00000613
  728       -6.2719223869      -0.0000000001     0.999994    0.00000613
  729       -6.2719223871      -0.0000000001     0.999994    0.00000613
  730       -6.2719223872      -0.0000000001     0.999994    0.00000614
  731       -6.2719223874      -0.0000000001     0.999994    0.00000614
  732       -6.2719223875      -0.0000000001     0.999994    0.00000614
  733       -6.2719223877      -0.0000000001     0.999994    0.00000614
  734       -6.2719223878      -0.0000000001     0.999994    0.00000614
  735       -6.2719223880      -0.0000000001     0.999994    0.00000614
  736       -6.2719223881      -0.0000000001     0.999994    0.00000614
  737       -6.2719223883      -0.0000000001     0.999994    0.00000614
  738       -6.2719223884      -0.0000000001     0.999994    0.00000614
  739       -6.2719223886      -0.0000000001     0.999994    0.00000614
  740       -6.2719223887      -0.0000000001     0.999994    0.00000614
  741       -6.2719223889      -0.0000000001     0.999994    0.00000614
  742       -6.2719223890      -0.0000000001     0.999994    0.00000614
  743       -6.2719223892      -0.0000000001     0.999994    0.00000614
  744       -6.2719223893      -0.0000000001     0.999994    0.00000615
  745       -6.2719223895      -0.0000000001     0.999994    0.00000615
  746       -6.2719223896      -0.0000000001     0.999994    0.00000615
  747       -6.2719223898      -0.0000000001     0.999994    0.00000615
  748       -6.2719223899      -0.0000000001     0.999994    0.00000615
  749       -6.2719223901      -0.0000000001     0.999994    0.00000615
  750       -6.2719223902      -0.0000000001     0.999994    0.00000615
  751       -6.2719223904      -0.0000000001     0.999994    0.00000615
  752       -6.2719223905      -0.0000000001     0.999994    0.00000615
  753       -6.2719223907      -0.0000000001     0.999994    0.00000616
  754       -6.2719223908      -0.0000000001     0.999994    0.00000616
  755       -6.2719223910      -0.0000000001     0.999994    0.00000616
  756       -6.2719223911      -0.0000000001     0.999994    0.00000616
  757       -6.2719223913      -0.0000000001     0.999994    0.00000616
  758       -6.2719223914      -0.0000000001     0.999994    0.00000616
  759       -6.2719223916      -0.0000000001     0.999994    0.00000616
  760       -6.2719223917      -0.0000000001     0.999994    0.00000617
  761       -6.2719223919      -0.0000000001     0.999994    0.00000617
  762       -6.2719223920      -0.0000000002     0.999994    0.00000617
  763       -6.2719223922      -0.0000000002     0.999994    0.00000617
  764       -6.2719223923      -0.0000000002     0.999994    0.00000617
  765       -6.2719223925      -0.0000000002     0.999994    0.00000617
  766       -6.2719223926      -0.0000000002     0.999994    0.00000618
  767       -6.2719223928      -0.0000000002     0.999994    0.00000618
  768       -6.2719223929      -0.0000000002     0.999994    0.00000618
  769       -6.2719223931      -0.0000000002     0.999994    0.00000618
  770       -6.2719223932      -0.0000000002     0.999994    0.00000618
  771       -6.2719223934      -0.0000000002     0.999994    0.00000618
  772       -6.2719223935      -0.0000000002     0.999994    0.00000619
  773       -6.2719223937      -0.0000000002     0.999994    0.00000619
  774       -6.2719223938      -0.0000000002     0.999994    0.00000619
  775       -6.2719223940      -0.0000000002     0.999994    0.00000619
  776       -6.2719223941      -0.0000000002     0.999994    0.00000619
  777       -6.2719223943      -0.0000000002     0.999994    0.00000620
  778       -6.2719223944      -0.0000000002     0.999994    0.00000620
  779       -6.2719223946      -0.0000000002     0.999994    0.00000620
  780       -6.2719223947      -0.0000000002     0.999994    0.00000620
  781       -6.2719223949      -0.0000000002     0.999994    0.00000621
  782       -6.2719223950      -0.0000000002     0.999994    0.00000621
  783       -6.2719223952      -0.0000000002     0.999994    0.00000621
  784       -6.2719223953      -0.0000000002     0.999994    0.00000621
  785       -6.2719223955      -0.0000000002     0.999994    0.00000622
  786       -6.2719223956      -0.0000000002     0.999994    0.00000622
  787       -6.2719223958      -0.0000000002     0.999994    0.00000622
  788       -6.2719223960      -0.0000000002     0.999994    0.00000622
  789       -6.2719223961      -0.0000000002     0.999994    0.00000623
  790       -6.2719223963      -0.0000000002     0.999994    0.00000623
  791       -6.2719223964      -0.0000000002     0.999994    0.00000623
  792       -6.2719223966      -0.0000000002     0.999994    0.00000623
  793       -6.2719223967      -0.0000000002     0.999994    0.00000624
  794       -6.2719223969      -0.0000000002     0.999994    0.00000624
  795       -6.2719223970      -0.0000000002     0.999994    0.00000624
  796       -6.2719223972      -0.0000000002     0.999994    0.00000624
  797       -6.2719223973      -0.0000000002     0.999994    0.00000625
  798       -6.2719223975      -0.0000000002     0.999994    0.00000625
  799       -6.2719223976      -0.0000000002     0.999994    0.00000625
  800       -6.2719223978      -0.0000000002     0.999994    0.00000626
  801       -6.2719223979      -0.0000000002     0.999994    0.00000626
  802       -6.2719223981      -0.0000000002     0.999994    0.00000626
  803       -6.2719223983      -0.0000000002     0.999994    0.00000627
  804       -6.2719223984      -0.0000000002     0.999994    0.00000627
  805       -6.2719223986      -0.0000000002     0.999994    0.00000627
  806       -6.2719223987      -0.0000000002     0.999994    0.00000628
  807       -6.2719223989      -0.0000000002     0.999994    0.00000628
  808       -6.2719223990      -0.0000000002     0.999994    0.00000628
  809       -6.2719223992      -0.0000000002     0.999994    0.00000629
  810       -6.2719223993      -0.0000000002     0.999994    0.00000629
  811       -6.2719223995      -0.0000000002     0.999994    0.00000629
  812       -6.2719223997      -0.0000000002     0.999994    0.00000630
  813       -6.2719223998      -0.0000000002     0.999994    0.00000630
  814       -6.2719224000      -0.0000000002     0.999994    0.00000630
  815       -6.2719224001      -0.0000000002     0.999994    0.00000631
  816       -6.2719224003      -0.0000000002     0.999994    0.00000631
  817       -6.2719224004      -0.0000000002     0.999994    0.00000631
  818       -6.2719224006      -0.0000000002     0.999994    0.00000632
  819       -6.2719224007      -0.0000000002     0.999994    0.00000632
  820       -6.2719224009      -0.0000000002     0.999994    0.00000633
  821       -6.2719224011      -0.0000000002     0.999994    0.00000633
  822       -6.2719224012      -0.0000000002     0.999994    0.00000633
  823       -6.2719224014      -0.0000000002     0.999994    0.00000634
  824       -6.2719224015      -0.0000000002     0.999994    0.00000634
  825       -6.2719224017      -0.0000000002     0.999994    0.00000634
  826       -6.2719224019      -0.0000000002     0.999994    0.00000635
  827       -6.2719224020      -0.0000000002     0.999994    0.00000635
  828       -6.2719224022      -0.0000000002     0.999994    0.00000636
  829       -6.2719224023      -0.0000000002     0.999994    0.00000636
  830       -6.2719224025      -0.0000000002     0.999994    0.00000637
  831       -6.2719224027      -0.0000000002     0.999994    0.00000637
  832       -6.2719224028      -0.0000000002     0.999994    0.00000637
  833       -6.2719224030      -0.0000000002     0.999994    0.00000638
  834       -6.2719224031      -0.0000000002     0.999994    0.00000638
  835       -6.2719224033      -0.0000000002     0.999994    0.00000639
  836       -6.2719224035      -0.0000000002     0.999994    0.00000639
  837       -6.2719224036      -0.0000000002     0.999994    0.00000640
  838       -6.2719224038      -0.0000000002     0.999994    0.00000640
  839       -6.2719224039      -0.0000000002     0.999994    0.00000641
  840       -6.2719224041      -0.0000000002     0.999994    0.00000641
  841       -6.2719224043      -0.0000000002     0.999994    0.00000641
  842       -6.2719224044      -0.0000000002     0.999994    0.00000642
  843       -6.2719224046      -0.0000000002     0.999994    0.00000642
  844       -6.2719224047      -0.0000000002     0.999994    0.00000643
  845       -6.2719224049      -0.0000000002     0.999994    0.00000643
  846       -6.2719224051      -0.0000000002     0.999994    0.00000644
  847       -6.2719224052      -0.0000000002     0.999994    0.00000644
  848       -6.2719224054      -0.0000000002     0.999994    0.00000645
  849       -6.2719224056      -0.0000000002     0.999994    0.00000645
  850       -6.2719224057      -0.0000000002     0.999994    0.00000646
  851       -6.2719224059      -0.0000000002     0.999994    0.00000646
  852       -6.2719224061      -0.0000000002     0.999994    0.00000647
  853       -6.2719224062      -0.0000000002     0.999994    0.00000647
  854       -6.2719224064      -0.0000000002     0.999994    0.00000648
  855       -6.2719224065      -0.0000000002     0.999994    0.00000648
  856       -6.2719224067      -0.0000000002     0.999994    0.00000649
  857       -6.2719224069      -0.0000000002     0.999994    0.00000649
  858       -6.2719224070      -0.0000000002     0.999994    0.00000650
  859       -6.2719224072      -0.0000000002     0.999994    0.00000651
  860       -6.2719224074      -0.0000000002     0.999994    0.00000651
  861       -6.2719224075      -0.0000000002     0.999994    0.00000652
  862       -6.2719224077      -0.0000000002     0.999994    0.00000652
  863       -6.2719224079      -0.0000000002     0.999994    0.00000653
  864       -6.2719224080      -0.0000000002     0.999994    0.00000653
  865       -6.2719224082      -0.0000000002     0.999994    0.00000654
  866       -6.2719224084      -0.0000000002     0.999994    0.00000654
  867       -6.2719224086      -0.0000000002     0.999994    0.00000655
  868       -6.2719224087      -0.0000000002     0.999994    0.00000656
  869       -6.2719224089      -0.0000000002     0.999994    0.00000656
  870       -6.2719224091      -0.0000000002     0.999994    0.00000657
  871       -6.2719224092      -0.0000000002     0.999994    0.00000657
  872       -6.2719224094      -0.0000000002     0.999994    0.00000658
  873       -6.2719224096      -0.0000000002     0.999994    0.00000659
  874       -6.2719224097      -0.0000000002     0.999994    0.00000659
  875       -6.2719224099      -0.0000000002     0.999994    0.00000660
  876       -6.2719224101      -0.0000000002     0.999994    0.00000661
  877       -6.2719224103      -0.0000000002     0.999994    0.00000661
  878       -6.2719224104      -0.0000000002     0.999994    0.00000662
  879       -6.2719224106      -0.0000000002     0.999994    0.00000662
  880       -6.2719224108      -0.0000000002     0.999994    0.00000663
  881       -6.2719224109      -0.0000000002     0.999994    0.00000664
  882       -6.2719224111      -0.0000000002     0.999994    0.00000664
  883       -6.2719224113      -0.0000000002     0.999994    0.00000665
  884       -6.2719224115      -0.0000000002     0.999994    0.00000666
  885       -6.2719224116      -0.0000000002     0.999994    0.00000666
  886       -6.2719224118      -0.0000000002     0.999994    0.00000667
  887       -6.2719224120      -0.0000000002     0.999994    0.00000668
  888       -6.2719224122      -0.0000000002     0.999994    0.00000668
  889       -6.2719224123      -0.0000000002     0.999994    0.00000669
  890       -6.2719224125      -0.0000000002     0.999994    0.00000670
  891       -6.2719224127      -0.0000000002     0.999994    0.00000670
  892       -6.2719224129      -0.0000000002     0.999994    0.00000671
  893       -6.2719224130      -0.0000000002     0.999994    0.00000672
  894       -6.2719224132      -0.0000000002     0.999994    0.00000673
  895       -6.2719224134      -0.0000000002     0.999994    0.00000673
  896       -6.2719224136      -0.0000000002     0.999994    0.00000674
  897       -6.2719224138      -0.0000000002     0.999994    0.00000675
  898       -6.2719224139      -0.0000000002     0.999994    0.00000675
  899       -6.2719224141      -0.0000000002     0.999994    0.00000676
  900       -6.2719224143      -0.0000000002     0.999994    0.00000677
  901       -6.2719224145      -0.0000000002     0.999994    0.00000678
  902       -6.2719224147      -0.0000000002     0.999994    0.00000678
  903       -6.2719224148      -0.0000000002     0.999994    0.00000679
  904       -6.2719224150      -0.0000000002     0.999994    0.00000680
  905       -6.2719224152      -0.0000000002     0.999994    0.00000681
  906       -6.2719224154      -0.0000000002     0.999994    0.00000681
  907       -6.2719224156      -0.0000000002     0.999994    0.00000682
  908       -6.2719224157      -0.0000000002     0.999994    0.00000683
  909       -6.2719224159      -0.0000000002     0.999994    0.00000684
  910       -6.2719224161      -0.0000000002     0.999994    0.00000685
  911       -6.2719224163      -0.0000000002     0.999994    0.00000685
  912       -6.2719224165      -0.0000000002     0.999994    0.00000686
  913       -6.2719224167      -0.0000000002     0.999994    0.00000687
  914       -6.2719224169      -0.0000000002     0.999994    0.00000688
  915       -6.2719224170      -0.0000000002     0.999994    0.00000689
  916       -6.2719224172      -0.0000000002     0.999994    0.00000689
  917       -6.2719224174      -0.0000000002     0.999994    0.00000690
  918       -6.2719224176      -0.0000000002     0.999994    0.00000691
  919       -6.2719224178      -0.0000000002     0.999994    0.00000692
  920       -6.2719224180      -0.0000000002     0.999994    0.00000693
  921       -6.2719224182      -0.0000000002     0.999994    0.00000694
  922       -6.2719224184      -0.0000000002     0.999994    0.00000694
  923       -6.2719224185      -0.0000000002     0.999994    0.00000695
  924       -6.2719224187      -0.0000000002     0.999994    0.00000696
  925       -6.2719224189      -0.0000000002     0.999994    0.00000697
  926       -6.2719224191      -0.0000000002     0.999994    0.00000698
  927       -6.2719224193      -0.0000000002     0.999994    0.00000699
  928       -6.2719224195      -0.0000000002     0.999994    0.00000700
  929       -6.2719224197      -0.0000000002     0.999994    0.00000701
  930       -6.2719224199      -0.0000000002     0.999994    0.00000702
  931       -6.2719224201      -0.0000000002     0.999994    0.00000702
  932       -6.2719224203      -0.0000000002     0.999994    0.00000703
  933       -6.2719224205      -0.0000000002     0.999994    0.00000704
  934       -6.2719224207      -0.0000000002     0.999994    0.00000705
  935       -6.2719224209      -0.0000000002     0.999994    0.00000706
  936       -6.2719224211      -0.0000000002     0.999994    0.00000707
  937       -6.2719224212      -0.0000000002     0.999994    0.00000708
  938       -6.2719224214      -0.0000000002     0.999994    0.00000709
  939       -6.2719224216      -0.0000000002     0.999994    0.00000710
  940       -6.2719224218      -0.0000000002     0.999994    0.00000711
  941       -6.2719224220      -0.0000000002     0.999994    0.00000712
  942       -6.2719224222      -0.0000000002     0.999994    0.00000713
  943       -6.2719224224      -0.0000000002     0.999994    0.00000714
  944       -6.2719224226      -0.0000000002     0.999994    0.00000715
  945       -6.2719224228      -0.0000000002     0.999994    0.00000716
  946       -6.2719224230      -0.0000000002     0.999994    0.00000717
  947       -6.2719224232      -0.0000000002     0.999994    0.00000718
  948       -6.2719224234      -0.0000000002     0.999993    0.00000719
  949       -6.2719224236      -0.0000000002     0.999993    0.00000720
  950       -6.2719224239      -0.0000000002     0.999993    0.00000721
  951       -6.2719224241      -0.0000000002     0.999993    0.00000722
  952       -6.2719224243      -0.0000000002     0.999993    0.00000723
  953       -6.2719224245      -0.0000000002     0.999993    0.00000724
  954       -6.2719224247      -0.0000000002     0.999993    0.00000725
  955       -6.2719224249      -0.0000000002     0.999993    0.00000726
  956       -6.2719224251      -0.0000000002     0.999993    0.00000727
  957       -6.2719224253      -0.0000000002     0.999993    0.00000728
  958       -6.2719224255      -0.0000000002     0.999993    0.00000729
  959       -6.2719224257      -0.0000000002     0.999993    0.00000730
  960       -6.2719224259      -0.0000000002     0.999993    0.00000731
  961       -6.2719224261      -0.0000000002     0.999993    0.00000733
  962       -6.2719224263      -0.0000000002     0.999993    0.00000734
  963       -6.2719224266      -0.0000000002     0.999993    0.00000735
  964       -6.2719224268      -0.0000000002     0.999993    0.00000736
  965       -6.2719224270      -0.0000000002     0.999993    0.00000737
  966       -6.2719224272      -0.0000000002     0.999993    0.00000738
  967       -6.2719224274      -0.0000000002     0.999993    0.00000739
  968       -6.2719224276      -0.0000000002     0.999993    0.00000740
  969       -6.2719224278      -0.0000000002     0.999993    0.00000742
  970       -6.2719224280      -0.0000000002     0.999993    0.00000743
  971       -6.2719224283      -0.0000000002     0.999993    0.00000744
  972       -6.2719224285      -0.0000000002     0.999993    0.00000745
  973       -6.2719224287      -0.0000000002     0.999993    0.00000746
  974       -6.2719224289      -0.0000000002     0.999993    0.00000747
  975       -6.2719224291      -0.0000000002     0.999993    0.00000749
  976       -6.2719224294      -0.0000000002     0.999993    0.00000750
  977       -6.2719224296      -0.0000000002     0.999993    0.00000751
  978       -6.2719224298      -0.0000000002     0.999993    0.00000752
  979       -6.2719224300      -0.0000000002     0.999993    0.00000753
  980       -6.2719224302      -0.0000000002     0.999993    0.00000755
  981       -6.2719224305      -0.0000000002     0.999993    0.00000756
  982       -6.2719224307      -0.0000000002     0.999993    0.00000757
  983       -6.2719224309      -0.0000000002     0.999993    0.00000758
  984       -6.2719224311      -0.0000000002     0.999993    0.00000760
  985       -6.2719224314      -0.0000000002     0.999993    0.00000761
  986       -6.2719224316      -0.0000000002     0.999993    0.00000762
  987       -6.2719224318      -0.0000000002     0.999993    0.00000763
  988       -6.2719224321      -0.0000000002     0.999993    0.00000765
  989       -6.2719224323      -0.0000000002     0.999993    0.00000766
  990       -6.2719224325      -0.0000000002     0.999993    0.00000767
  991       -6.2719224327      -0.0000000002     0.999993    0.00000769
  992       -6.2719224330      -0.0000000002     0.999993    0.00000770
  993       -6.2719224332      -0.0000000002     0.999993    0.00000771
  994       -6.2719224334      -0.0000000002     0.999993    0.00000773
  995       -6.2719224337      -0.0000000002     0.999993    0.00000774
  996       -6.2719224339      -0.0000000002     0.999993    0.00000775
  997       -6.2719224341      -0.0000000002     0.999993    0.00000777
  998       -6.2719224344      -0.0000000002     0.999993    0.00000778
  999       -6.2719224346      -0.0000000002     0.999993    0.00000779
 1000       -6.2719224349      -0.0000000002     0.999993    0.00000781

Total Energy:                       -6.2719224349 H         -170.6677 eV
Extrapolated to 0:                  -6.2505982910 H         -170.0874 eV

----------------------------------------------------------------------------------
 Solving CP-REKS equation for  1 state vector...
----------------------------------------------------------------------------------
  CG solver: Constructing Y initial guess
  CG solver: Iteration    1    eps =    0.042109020485
  CG solver: Iteration    2    eps =    0.031066661036
  CG solver: Iteration    3    eps =    0.063176828661
  CG solver: Iteration    4    eps =    1.324068046855
  CG solver: Iteration    5    eps =    0.623196830590
  CG solver: Iteration    6    eps =    0.034054154161
  CG solver: Iteration    7    eps =    0.007334767516
  CG solver: Iteration    8    eps =    0.000240335070
  CG solver: Iteration    9    eps =    0.000017483573
  CG solver: Iteration   10    eps =    0.000003267880
  CG solver: Iteration   11    eps =    0.000000150213
  CG solver: Iteration   12    eps =    0.000000006067
  Convergence reached in CG solver after   12 iterations
  CG solver: Calculating converged R, Z, Q2 matrix
----------------------------------------------------------------------------------

----------------------------------------------------------------------------------
 Solving CP-REKS equation for SI between  1 and  2 state vectors...
----------------------------------------------------------------------------------
  CG solver: Constructing Y initial guess
  CG solver: Iteration    1    eps =    0.025835265750
  CG solver: Iteration    2    eps =    0.021455459066
  CG solver: Iteration    3    eps =    0.302192080368
  CG solver: Iteration    4    eps =    0.100881751374
  CG solver: Iteration    5    eps =    0.034937637218
  CG solver: Iteration    6    eps =    0.001737557805
  CG solver: Iteration    7    eps =    0.000117140002
  CG solver: Iteration    8    eps =    0.000037088387
  CG solver: Iteration    9    eps =    0.000000792080
  CG solver: Iteration   10    eps =    0.000000014769
  CG solver: Iteration   11    eps =    0.000000001179
  Convergence reached in CG solver after   11 iterations
  CG solver: Calculating converged R, Z, Q2 matrix
----------------------------------------------------------------------------------

--------------------------------------------------
 Gradient Information
--------------------------------------------------
           1 st state (SSR)
     0.00000000     0.00000000     0.00000000
     0.00000000     0.00000000     0.00000000
     0.00000000     0.00000000     0.00000000
     0.00000000     0.00000000     0.00000000
     0.00000000     0.00000000     0.00000000
     0.00000000     0.00000000     0.00000000

           2 st state (SSR)
     0.00000000     0.00000000     0.00000000
     0.00000000     0.00000000     0.00000000
     0.00000000     0.00000000     0.00000000
     0.00000000     0.00000000     0.00000000
     0.00000000     0.00000000     0.00000000
     0.00000000     0.00000000     0.00000000
--------------------------------------------------
 Coupling Information
--------------------------------------------------
 between  1 and  2 states
--------------------------------------------------
 g vector - difference gradient
     0.37504282     1.24927516   -12.20706263
    -0.23095818    -1.11816666    11.87689625
    -0.16402978     0.80601134     0.86374740
    -0.58162378    -0.85790625    -0.62121140
     0.37170522     1.20688483    -0.52367260
     0.22986370    -1.28609843     0.61130298

 h vector - derivative coupling
    -0.30225085    -0.66201568     9.58097979
    -0.21821697     0.94457127    -9.53750028
     0.25696232    -0.61912105    -0.59777398
     0.53747776     0.47090105     0.71925281
    -0.14124054    -0.98472163     0.37708725
    -0.13273172     0.85038603    -0.54204560

 G vector - GDV
     0.00000000     0.00000000     0.00000000
     0.00000000     0.00000000     0.00000000
     0.00000000     0.00000000     0.00000000
     0.00000000     0.00000000     0.00000000
     0.00000000     0.00000000     0.00000000
     0.00000000     0.00000000     0.00000000

 H vector - DCV - non-adiabatic coupling
     0.00000000     0.00000000     0.00000000
     0.00000000     0.00000000     0.00000000
     0.00000000     0.00000000     0.00000000
     0.00000000     0.00000000     0.00000000
     0.00000000     0.00000000     0.00000000
     0.00000000     0.00000000     0.00000000
--------------------------------------------------

WARNING!
-> SCC is NOT converged, maximal SCC iterations exceeded

--------------------------------------------------------------------------------
DFTB+ running times                          cpu [s]             wall clock [s]
--------------------------------------------------------------------------------
SCC                                    +     0.44  ( 96.8%)      0.44  ( 95.7%)
      Sparse to dense                        0.02  (  4.4%)      0.02  (  4.1%)
      Dense to sparse                        0.07  ( 14.7%)      0.07  ( 14.5%)
      Range separated Hamiltonian            0.03  (  6.2%)      0.03  (  5.4%)
  Density matrix creation                    0.05  ( 11.4%)      0.06  ( 12.7%)
  Force calculation                          0.01  (  2.8%)      0.01  (  2.8%)
--------------------------------------------------------------------------------
Missing                                +     0.01  (  3.2%)      0.02  (  4.3%)
Total                                  =     0.46  (100.0%)      0.46  (100.0%)
--------------------------------------------------------------------------------
