|===============================================================================
|
|  DFTB+ release 20.1
|
|  Copyright (C) 2006 - 2020  DFTB+ developers group
|
|===============================================================================
|
|  When publishing results obtained with DFTB+, please cite the following
|  reference:
|
|  * DFTB+, a software package for efficient approximate density functional
|    theory based atomistic simulations, J. Chem. Phys. 152, 124101 (2020).
|    [doi: 10.1063/1.5143190]
|
|  You should also cite additional publications crediting the parametrization
|  data you use. Please consult the documentation of the SK-files for the
|  references.
|
|===============================================================================

Reading input file 'dftb_in.hsd'
Parser version: 8

--------------------------------------------------------------------------------
Reading SK-files:
Done.


Processed input in HSD format written to 'dftb_pin.hsd'

Starting initialization...
--------------------------------------------------------------------------------
OpenMP threads:              1
Chosen random seed:          500499995
Mode:                        Static calculation
Self consistent charges:     Yes
SCC-tolerance:                 0.100000E-05
Max. scc iterations:                   1000
Shell resolved Hubbard:      No
Spin polarisation:           No
Nr. of up electrons:            16.000000
Nr. of down electrons:          16.000000
Periodic boundaries:         No
Electronic solver:           Relatively robust
Maximal SCC-cycles:                    1000
Initial charges:             Set automatically (system chrg:   0.100E+01)
Included shells:             C:  s, p
                             H:  s
                             N:  s, p
Spin coupling constants:     C   1(s)-1(s):  -0.455900E-01
                             C   1(s)-2(p):  -0.293000E-01
                             C   2(p)-1(s):  -0.293000E-01
                             C   2(p)-2(p):  -0.275500E-01
                             H   1(s)-1(s):  -0.792500E-01
                             N   1(s)-1(s):  -0.468700E-01
                             N   1(s)-2(p):  -0.317000E-01
                             N   2(p)-1(s):  -0.317000E-01
                             N   2(p)-2(p):  -0.307200E-01
Range separated hybrid:      Yes
  Screening parameter omega:   0.300000E+00
  Range separated algorithm:   MatrixBased
Extra options:
                             Mulliken analysis
                             Force calculation
Force type                   original
                             Eigenvector printing


REKS Calcuation:             Yes
SSR(2,2) Calcuation:         Yes
Energy Functional:           (PPS+OSS)/2
Number of Core Orbitals:                 15
Number of Active Orbitals:                2
Number of Basis:                         32
Number of States:                         2
State-Averaging Weight:          0.500000
                                 0.500000
State of Interest:                        1
Initial Guess:               Diagonalize H0 matrix
Newton-Raphson for FON opt:  Yes
NR max. Iterations:                      50
Level Shifting:              Yes
Shift Value:                     0.300000
W Scale Factor:              C  =    3.200000
                             H  =    3.200000
                             N  =    3.200000
Transition Dipole:           No
Gradient of Microstate:      No
CP-REKS Solver:              Preconditioned Conjugate-Gradient
CG max. Iterations:                     100
CG Tolerance:                  0.100000E-07
Memory for A and Hxc:        Direct Updating Without Saving
Non-Adiabatic Coupling:      Yes

--------------------------------------------------------------------------------

***  Geometry step: 0

  iSCC       reks energy        Diff energy         x_a       SCC error   
    1      -16.3951794879       0.0000000000     0.998579    1.18062315
    2      -16.4114350787      -0.0162555908     0.999810    0.04102270
    3      -16.4146593260      -0.0032242473     0.999930    0.01846840
    4      -16.4158281967      -0.0011688707     0.999962    0.01091189
    5      -16.4163612180      -0.0005330213     0.999975    0.00756289
    6      -16.4166286155      -0.0002673975     0.999982    0.00553635
    7      -16.4167701669      -0.0001415513     0.999985    0.00414587
    8      -16.4168481563      -0.0000779894     0.999987    0.00315155
    9      -16.4168927638      -0.0000446075     0.999989    0.00242653
   10      -16.4169192876      -0.0000265238     0.999990    0.00189049
   11      -16.4169357115      -0.0000164239     0.999990    0.00148941
   12      -16.4169463056      -0.0000105941     0.999991    0.00118599
   13      -16.4169534118      -0.0000071062     0.999991    0.00095401
   14      -16.4169583504      -0.0000049386     0.999991    0.00077482
   15      -16.4169618894      -0.0000035390     0.999991    0.00063499
   16      -16.4169644907      -0.0000026013     0.999991    0.00052478
   17      -16.4169664424      -0.0000019517     0.999991    0.00043706
   18      -16.4169679307      -0.0000014883     0.999991    0.00036658
   19      -16.4169690800      -0.0000011493     0.999992    0.00030944
   20      -16.4169699762      -0.0000008963     0.999992    0.00026272
   21      -16.4169706806      -0.0000007043     0.999992    0.00022772
   22      -16.4169712373      -0.0000005568     0.999992    0.00020411
   23      -16.4169716796      -0.0000004422     0.999992    0.00018315
   24      -16.4169720321      -0.0000003525     0.999992    0.00016450
   25      -16.4169723140      -0.0000002819     0.999992    0.00014785
   26      -16.4169725399      -0.0000002259     0.999992    0.00013298
   27      -16.4169727214      -0.0000001814     0.999992    0.00011966
   28      -16.4169728673      -0.0000001460     0.999992    0.00010773
   29      -16.4169729849      -0.0000001176     0.999992    0.00009702
   30      -16.4169730797      -0.0000000948     0.999992    0.00008740
   31      -16.4169731562      -0.0000000765     0.999992    0.00007875
   32      -16.4169732181      -0.0000000618     0.999992    0.00007098
   33      -16.4169732680      -0.0000000500     0.999992    0.00006398
   34      -16.4169733085      -0.0000000404     0.999992    0.00005768
   35      -16.4169733412      -0.0000000327     0.999992    0.00005201
   36      -16.4169733677      -0.0000000265     0.999992    0.00004690
   37      -16.4169733892      -0.0000000215     0.999992    0.00004230
   38      -16.4169734066      -0.0000000174     0.999992    0.00003815
   39      -16.4169734207      -0.0000000141     0.999992    0.00003441
   40      -16.4169734321      -0.0000000114     0.999992    0.00003103
   41      -16.4169734414      -0.0000000093     0.999992    0.00002799
   42      -16.4169734490      -0.0000000075     0.999992    0.00002525
   43      -16.4169734551      -0.0000000061     0.999992    0.00002278
   44      -16.4169734600      -0.0000000050     0.999992    0.00002055
   45      -16.4169734641      -0.0000000040     0.999992    0.00001853
   46      -16.4169734673      -0.0000000033     0.999992    0.00001672
   47      -16.4169734700      -0.0000000027     0.999992    0.00001508
   48      -16.4169734721      -0.0000000022     0.999992    0.00001360
   49      -16.4169734739      -0.0000000018     0.999992    0.00001227
   50      -16.4169734753      -0.0000000014     0.999992    0.00001107
   51      -16.4169734765      -0.0000000012     0.999992    0.00000999
   52      -16.4169734774      -0.0000000009     0.999992    0.00000901
   53      -16.4169734782      -0.0000000008     0.999992    0.00000813
   54      -16.4169734788      -0.0000000006     0.999992    0.00000733
   55      -16.4169734793      -0.0000000005     0.999992    0.00000661
   56      -16.4169734797      -0.0000000004     0.999992    0.00000596
   57      -16.4169734801      -0.0000000003     0.999992    0.00000538
   58      -16.4169734803      -0.0000000003     0.999992    0.00000485
   59      -16.4169734806      -0.0000000002     0.999992    0.00000438
   60      -16.4169734807      -0.0000000002     0.999992    0.00000395
   61      -16.4169734809      -0.0000000001     0.999992    0.00000356
   62      -16.4169734810      -0.0000000001     0.999992    0.00000321
   63      -16.4169734811      -0.0000000001     0.999992    0.00000290
   64      -16.4169734812      -0.0000000001     0.999992    0.00000261
   65      -16.4169734812      -0.0000000001     0.999992    0.00000236
   66      -16.4169734813      -0.0000000001     0.999992    0.00000213
   67      -16.4169734813      -0.0000000000     0.999992    0.00000192
   68      -16.4169734814      -0.0000000000     0.999992    0.00000173
   69      -16.4169734814      -0.0000000000     0.999992    0.00000156
   70      -16.4169734814      -0.0000000000     0.999992    0.00000141
   71      -16.4169734814      -0.0000000000     0.999992    0.00000127
   72      -16.4169734815      -0.0000000000     0.999992    0.00000114
   73      -16.4169734815      -0.0000000000     0.999992    0.00000103
   74      -16.4169734815      -0.0000000000     0.999992    0.00000093
  
--------------------------------------------------
 Final SA-REKS(2,2) energy:     -16.41697348
  
 State     Energy      FON(1)    FON(2)   Spin
  PPS  -16.48105554   1.999984  0.000016  0.00
  OSS  -16.35289142   1.000000  1.000000  0.00
 Trip  -16.39202277   1.000000  1.000000  1.00
--------------------------------------------------

 Lagrangian Wab:  -0.00351489 -0.00351454

--------------------------------------------------
 SSR: 2SI-2SA-REKS(2,2) Hamiltonian matrix
               PPS           OSS
   PPS   -16.48105554   -0.00495664
   OSS    -0.00495664  -16.35289142
--------------------------------------------------

----------------------------------------------------------------
 SSR: 2SI-2SA-REKS(2,2) states
                    E_n       C_{PPS}    C_{OSS}
 SSR state  1  -16.48124695  -0.999255  -0.038588
 SSR state  2  -16.35270001   0.038588  -0.999255
----------------------------------------------------------------

 unrelaxed SSR FONs for S0:  1.998495  0.001505

Total Energy:                      -16.4812469495 H         -448.4775 eV
Extrapolated to 0:                 -16.4812469495 H         -448.4775 eV

----------------------------------------------------------------------------------
 Solving CP-REKS equation for  1 state vector...
----------------------------------------------------------------------------------
  CG solver: Constructing Y initial guess
  CG solver: Iteration    1    eps =    0.000057359607
  CG solver: Iteration    2    eps =    0.000028165564
  CG solver: Iteration    3    eps =    0.000012645061
  CG solver: Iteration    4    eps =    0.000001940183
  CG solver: Iteration    5    eps =    0.000000360896
  CG solver: Iteration    6    eps =    0.000000138527
  CG solver: Iteration    7    eps =    0.000000022005
  CG solver: Iteration    8    eps =    0.000000008993
  Convergence reached in CG solver after    8 iterations
  CG solver: Calculating converged R, Z, Q2 matrix
----------------------------------------------------------------------------------

----------------------------------------------------------------------------------
 Solving CP-REKS equation for SI between  1 and  2 state vectors...
----------------------------------------------------------------------------------
  CG solver: Constructing Y initial guess
  CG solver: Iteration    1    eps =    0.049186442372
  CG solver: Iteration    2    eps =    0.003151156723
  CG solver: Iteration    3    eps =    0.000617525732
  CG solver: Iteration    4    eps =    0.000277080984
  CG solver: Iteration    5    eps =    0.000090402219
  CG solver: Iteration    6    eps =    0.000014146874
  CG solver: Iteration    7    eps =    0.000001667383
  CG solver: Iteration    8    eps =    0.000000253763
  CG solver: Iteration    9    eps =    0.000000069490
  CG solver: Iteration   10    eps =    0.000000014580
  CG solver: Iteration   11    eps =    0.000000005410
  Convergence reached in CG solver after   11 iterations
  CG solver: Calculating converged R, Z, Q2 matrix
----------------------------------------------------------------------------------

--------------------------------------------------
 Gradient Information
--------------------------------------------------
           1 st state (SSR)
    -0.03412643    -0.03997631     0.05934853
    -0.03893176    -0.00432602    -0.01006887
    -0.01045122     0.00254316    -0.01689525
     0.01512246     0.01126346    -0.03251193
    -0.00114683    -0.00350686     0.03188840
     0.03880898     0.04607806    -0.06681238
     0.06145211    -0.05979767    -0.05648043
     0.00882089     0.00315733     0.04716343
    -0.02524478     0.00592419     0.00424378
    -0.05501996     0.05255024     0.09704599
     0.00943398    -0.00218395    -0.01739086
     0.03184407     0.01390061    -0.06644713
    -0.02090630     0.00546449     0.03530288
     0.02034480    -0.03109072    -0.00838616

           2 st state (SSR)
    -0.00526788    -0.02419359     0.06873770
    -0.07771857    -0.02579460    -0.01390619
    -0.00718363    -0.00060055    -0.01699439
     0.01293458     0.01612075    -0.03115535
     0.00058626    -0.00453792     0.03013913
     0.07483801     0.06399938    -0.07140071
     0.03930074    -0.06278637    -0.04133891
     0.01024845     0.00259422     0.04797147
    -0.02442272     0.00999479     0.00642179
     0.01176446     0.05359423     0.06157950
     0.01033104    -0.00340809    -0.01206012
    -0.04659250    -0.00828307    -0.04550108
    -0.02088556     0.01273704     0.03322796
     0.02206732    -0.02943621    -0.01572080
--------------------------------------------------
 Coupling Information
--------------------------------------------------
 between  1 and  2 states
--------------------------------------------------
 g vector - difference gradient
    -0.01369677    -0.00744955    -0.00449903
     0.01907076     0.01009024     0.00125930
    -0.00146498     0.00140470     0.00001785
     0.00097779    -0.00220471    -0.00060443
    -0.00077871     0.00041159     0.00078854
    -0.02298359    -0.00951857     0.00313129
     0.01661865     0.00247793    -0.00598599
    -0.00087223     0.00087893    -0.00048630
    -0.00014679    -0.00230369    -0.00096362
    -0.03291581    -0.00025192     0.01488286
    -0.00034717     0.00040028    -0.00220494
     0.03724762     0.01036341    -0.00977596
     0.00003490    -0.00354816     0.00111258
    -0.00074366    -0.00075049     0.00332787

 h vector - derivative coupling
    -0.01002745    -0.00601669    -0.00270952
     0.00492016     0.00874107     0.00859865
    -0.00224562     0.00222179     0.00041206
     0.00154387    -0.00298890    -0.00098115
    -0.00116897     0.00136365     0.00114690
     0.06354705     0.00686681    -0.01073419
    -0.07123460    -0.01265859    -0.02078099
     0.00202098    -0.00771231     0.00104819
    -0.00343206     0.00339135    -0.00166311
    -0.00744861    -0.00351187     0.03753608
    -0.00132770     0.00276178    -0.00605558
     0.02699224     0.00984591    -0.00941649
    -0.00058566    -0.00127954    -0.00093113
    -0.00155363    -0.00102446     0.00453028

 G vector - GDV
    -0.01442927    -0.00789136    -0.00469459
     0.01939340     0.01073429     0.00191866
    -0.00163379     0.00157185     0.00004957
     0.00109394    -0.00242865    -0.00067829
    -0.00086654     0.00051553     0.00087463
    -0.01801452    -0.00896066     0.00229416
     0.01107568     0.00149435    -0.00757076
    -0.00071378     0.00028156    -0.00040402
    -0.00041103    -0.00203530    -0.00108901
    -0.03339221    -0.00052200     0.01773325
    -0.00044853     0.00061207    -0.00266537
     0.03921828     0.01109184    -0.01047302
    -0.00001037    -0.00363627     0.00103746
    -0.00086126    -0.00082726     0.00366732

 H vector - DCV - non-adiabatic coupling
    -0.06955686    -0.04219686    -0.01831622
     0.02672024     0.06174317     0.06593641
    -0.01653836     0.01638968     0.00318528
     0.01138780    -0.02185952    -0.00724727
    -0.00859945     0.01032968     0.00842238
     0.50666520     0.05897004    -0.08513394
    -0.56247202    -0.09966773    -0.15758815
     0.01619815    -0.06034468     0.00842163
    -0.02653132     0.02768565    -0.01232115
    -0.03802521    -0.02708729     0.28220478
    -0.01008950     0.02118051    -0.04564482
     0.18700869     0.07014857    -0.06717035
    -0.00456339    -0.00779563    -0.00788937
    -0.01160396    -0.00749558     0.03314078
--------------------------------------------------


--------------------------------------------------------------------------------
DFTB+ running times                          cpu [s]             wall clock [s]
--------------------------------------------------------------------------------
SCC                                    +     0.10  ( 27.3%)      0.10  ( 27.4%)
      Dense to sparse                        0.02  (  5.3%)      0.02  (  4.0%)
      Range separated Hamiltonian            0.01  (  2.5%)      0.01  (  2.6%)
  Density matrix creation                    0.01  (  3.0%)      0.01  (  3.7%)
Post-SCC processing                    +     0.27  ( 72.3%)      0.27  ( 71.8%)
  Force calculation                          0.27  ( 72.3%)      0.27  ( 71.0%)
--------------------------------------------------------------------------------
Missing                                +     0.00  (  0.4%)      0.00  (  0.8%)
Total                                  =     0.37  (100.0%)      0.38  (100.0%)
--------------------------------------------------------------------------------
