|===============================================================================
|
|  DFTB+ release 20.1
|
|  Copyright (C) 2006 - 2020  DFTB+ developers group
|
|===============================================================================
|
|  When publishing results obtained with DFTB+, please cite the following
|  reference:
|
|  * DFTB+, a software package for efficient approximate density functional
|    theory based atomistic simulations, J. Chem. Phys. 152, 124101 (2020).
|    [doi: 10.1063/1.5143190]
|
|  You should also cite additional publications crediting the parametrization
|  data you use. Please consult the documentation of the SK-files for the
|  references.
|
|===============================================================================

Reading input file 'dftb_in.hsd'
Parser version: 8

--------------------------------------------------------------------------------
Reading SK-files:
Done.


Processed input in HSD format written to 'dftb_pin.hsd'

Starting initialization...
--------------------------------------------------------------------------------
WARNING!
-> Excited state forces are not implemented yet for fractional occupations, kT=  0.3158E-02K
OpenMP threads:              1
Chosen random seed:          509072854
Mode:                        Static calculation
Self consistent charges:     Yes
SCC-tolerance:                 0.100000E-05
Max. scc iterations:                    100
Shell resolved Hubbard:      No
Spin polarisation:           No
Nr. of up electrons:             6.000000
Nr. of down electrons:           6.000000
Periodic boundaries:         No
Electronic solver:           Relatively robust
Mixer:                       Broyden mixer
Mixing parameter:                  0.200000
Maximal SCC-cycles:                     100
Nr. of chrg. vec. in memory:              0
Electronic temperature:        0.100000E-07 H      0.272114E-06 eV
Initial charges:             Set automatically (system chrg:   0.100E+01)
Included shells:             C:  s, p
                             N:  s, p
                             H:  s
Extra options:
                             Mulliken analysis
                             Force calculation
Force type                   original
                             Eigenvector printing

--------------------------------------------------------------------------------

***  Geometry step: 0

 iSCC Total electronic   Diff electronic      SCC error    
    1   -0.52686423E+01    0.00000000E+00    0.10445087E+01
    2   -0.52866052E+01   -0.17962856E-01    0.67354931E+00
    3   -0.52951721E+01   -0.85669330E-02    0.23811408E+00
    4   -0.51204669E+01    0.17470517E+00    0.13811004E+01
    5   -0.52976096E+01   -0.17714268E+00    0.76560902E-01
    6   -0.52981168E+01   -0.50719906E-03    0.45464038E-02
    7   -0.52981154E+01    0.14358200E-05    0.68825190E-02
    8   -0.52981161E+01   -0.72710014E-06    0.37413898E-02
    9   -0.52981164E+01   -0.31167889E-06    0.31165940E-02
   10   -0.52981171E+01   -0.66411713E-06    0.94673785E-03
   11   -0.52981171E+01   -0.45550047E-07    0.55402855E-03
   12   -0.52981171E+01   -0.23309831E-07    0.15664724E-04
   13   -0.52981171E+01   -0.19223734E-10    0.11176320E-06
>> Charges saved for restart in charges.bin

Total Energy:                       -5.0591341572 H         -137.6660 eV
Extrapolated to 0:                  -5.1531266967 H         -140.2237 eV
Total Mermin free energy:           -5.0591341572 H         -137.6660 eV
Force related energy:               -5.1531266967 H         -140.2237 eV

--------------------------------------------------------------------------------
DFTB+ running times                          cpu [s]             wall clock [s]
--------------------------------------------------------------------------------
SCC                                    +     0.02  ( 55.3%)      0.05  ( 66.7%)
Post-SCC processing                    +     0.01  ( 39.0%)      0.02  ( 26.4%)
--------------------------------------------------------------------------------
Missing                                +     0.00  (  5.7%)      0.00  (  6.9%)
Total                                  =     0.03  (100.0%)      0.07  (100.0%)
--------------------------------------------------------------------------------
