     6
  Step:     0            Position(A)                                  Velocity(au)
C        -0.04051991     0.02828272    -0.00110314     0.00008970    -0.00005942    -0.00015289
N        -0.04115399    -0.05703346     1.30957321     0.00015653     0.00012473     0.00011669
H         0.91971202    -0.06759477    -0.47677965    -0.00059879     0.00026850     0.00047568
H         0.82765777    -0.13057207     1.87593583    -0.00088508    -0.00070580    -0.00123537
H        -0.90477865    -0.06511543     1.86030895    -0.00160865    -0.00051099     0.00106390
H        -1.00080093     0.04904250    -0.55256882    -0.00015147    -0.00007693    -0.00010396
     6
  Step:     1            Position(A)                                  Velocity(au)
C        -0.04004137     0.02799461    -0.00222860     0.00008431    -0.00004594    -0.00025733
N        -0.04029353    -0.05635469     1.31047571     0.00015529     0.00012363     0.00021272
H         0.91664485    -0.06623664    -0.47440123    -0.00051325     0.00022697     0.00038849
H         0.82282652    -0.13452261     1.86909811    -0.00086507    -0.00074018    -0.00125294
H        -0.91375490    -0.06799709     1.86617983    -0.00165032    -0.00054242     0.00106841
H        -1.00158534     0.04851739    -0.55311099    -0.00013382    -0.00011502    -0.00009370
     6
  Step:     2            Position(A)                                  Velocity(au)
C        -0.03959751     0.02778010    -0.00391856     0.00007704    -0.00003253    -0.00035843
N        -0.03945498    -0.05568076     1.31190059     0.00014842     0.00012283     0.00030679
H         0.91409653    -0.06511148    -0.47252920    -0.00040961     0.00018339     0.00029089
H         0.81819303    -0.13867043     1.86222730    -0.00081103    -0.00077724    -0.00124543
H        -0.92283492    -0.07105003     1.87199846    -0.00164625    -0.00057268     0.00104488
H        -1.00226506     0.04778408    -0.55359401    -0.00011351    -0.00015272    -0.00008264
     6
  Step:     3            Position(A)                                  Velocity(au)
C        -0.03919803     0.02763846    -0.00615235     0.00006812    -0.00001934    -0.00045498
N        -0.03866877    -0.05501001     1.31383422     0.00013610     0.00012232     0.00039753
H         0.91216083    -0.06422905    -0.47121682    -0.00029028     0.00013834     0.00018464
H         0.81394810    -0.14303113     1.85546417    -0.00072175    -0.00081696    -0.00121163
H        -0.93177663    -0.07426635     1.87761832    -0.00159932    -0.00060101     0.00099581
H        -1.00282794     0.04684553    -0.55401571    -0.00009148    -0.00018962    -0.00007159
     6
  Step:     4            Position(A)                                  Velocity(au)
C        -0.03885128     0.02756822    -0.00890287     0.00005784    -0.00000649    -0.00054576
N        -0.03796404    -0.05434079     1.31625561     0.00011865     0.00012206     0.00048356
H         0.91091645    -0.06359600    -0.47050644    -0.00015850     0.00009240     0.00007206
H         0.81028619    -0.14762028     1.84895381    -0.00059741    -0.00085922    -0.00115131
H        -0.94035564    -0.07763420     1.88290763    -0.00151327    -0.00062670     0.00092417
H        -1.00326722     0.04570678    -0.55437833    -0.00006878    -0.00022532    -0.00006135
     6
  Step:     5            Position(A)                                  Velocity(au)
C        -0.03856382     0.02756726    -0.01213668     0.00004656     0.00000588    -0.00062959
N        -0.03736774    -0.05367157     1.31913650     0.00009660     0.00012205     0.00056353
H         0.91042290    -0.06321585    -0.47042664    -0.00001817     0.00004620    -0.00004406
H         0.80739745    -0.15245263     1.84283991    -0.00043986    -0.00090372    -0.00106544
H        -0.94836984    -0.08113816     1.88775194    -0.00139260    -0.00064911     0.00083337
H        -1.00358209     0.04437482    -0.55468847    -0.00004654    -0.00025947    -0.00005271
     6
  Step:     6            Position(A)                                  Velocity(au)
C        -0.03834015     0.02763277    -0.01581415     0.00003470     0.00001765    -0.00070531
N        -0.03690359    -0.05300098     1.32244174     0.00007065     0.00012223     0.00063619
H         0.91071698    -0.06308886    -0.47099008     0.00012620     0.00000035    -0.00016062
H         0.80545759    -0.15754086     1.83725788    -0.00025304    -0.00094985    -0.00095634
H        -0.95564287    -0.08475983     1.89205592    -0.00124233    -0.00066773     0.00072706
H        -1.00377809     0.04285850    -0.55495693    -0.00002594    -0.00029169    -0.00004639
     6
  Step:     7            Position(A)                                  Velocity(au)
C        -0.03818240     0.02776133    -0.01988982     0.00002270     0.00002871    -0.00077189
N        -0.03659117    -0.05232794     1.32612987     0.00004165     0.00012254     0.00070047
H         0.91181011    -0.06321196    -0.47219222     0.00026974    -0.00004448    -0.00027439
H         0.80461597    -0.16289385     1.83232731    -0.00004302    -0.00099667    -0.00082769
H        -0.96202610    -0.08847822     1.89574417    -0.00106779    -0.00068212     0.00060900
H        -1.00386729     0.04116843    -0.55519843    -0.00000818    -0.00032165    -0.00004307
     6
  Step:     8            Position(A)                                  Velocity(au)
C        -0.03809021     0.02794891    -0.02431290     0.00001103     0.00003894    -0.00082839
N        -0.03644497    -0.05165182     1.33015414     0.00001065     0.00012287     0.00075545
H         0.91368693    -0.06357864    -0.47401119     0.00040749    -0.00008766    -0.00038225
H         0.80498388    -0.16851451     1.82814477     0.00018205    -0.00104284    -0.00068439
H        -0.96739966    -0.09227025     1.89876127    -0.00087466    -0.00069195     0.00048300
H        -1.00386813     0.03931698    -0.55543112     0.00000565    -0.00034902    -0.00004329
     6
  Step:     9            Position(A)                                  Velocity(au)
C        -0.03806068     0.02819091    -0.02902799     0.00000016     0.00004824    -0.00087408
N        -0.03647363    -0.05097254     1.33446345    -0.00002119     0.00012312     0.00080048
H         0.91630528    -0.06417892    -0.47640895     0.00053469    -0.00012851    -0.00048146
H         0.80662419    -0.17439761     1.82477762     0.00041244    -0.00108668    -0.00053235
H        -0.97167465    -0.09611127     1.90107229    -0.00066899    -0.00069701     0.00035297
H        -1.00380495     0.03731827    -0.55567595     0.00001457    -0.00037349    -0.00004746
     6
  Step:    10            Position(A)                                  Velocity(au)
C        -0.03808844     0.02848219    -0.03397589    -0.00000950     0.00005651    -0.00090843
N        -0.03667928    -0.05029074     1.33900356    -0.00005266     0.00012315     0.00083516
H         0.91959797    -0.06499935    -0.47933375     0.00064710    -0.00016643    -0.00056983
H         0.80954343    -0.18052782     1.82225957     0.00063740    -0.00112627    -0.00037801
H        -0.97479539    -0.09997576     1.90266336    -0.00045720    -0.00069728     0.00022285
H        -1.00370707     0.03518803    -0.55595580     0.00001781    -0.00039479    -0.00005582
     6
  Step:    11            Position(A)                                  Velocity(au)
C        -0.03816596     0.02881718    -0.03909496    -0.00001759     0.00006370    -0.00093133
N        -0.03705723    -0.04960782     1.34371844    -0.00008252     0.00012285     0.00085946
H         0.92347619    -0.06602320    -0.48272356     0.00074134    -0.00020086    -0.00064592
H         0.81368769    -0.18687856     1.82058868     0.00084613    -0.00115968    -0.00022784
H        -0.97674115    -0.10383830     1.90354187    -0.00024587    -0.00069298     0.00009656
H        -1.00360754     0.03294339    -0.55629455     0.00001490    -0.00041274    -0.00006841
     6
  Step:    12            Position(A)                                  Velocity(au)
C        -0.03828391     0.02918996    -0.04432308    -0.00002386     0.00006978    -0.00094311
N        -0.03759613    -0.04892586     1.34855225    -0.00010965     0.00012213     0.00087377
H         0.92783440    -0.06723098    -0.48651001     0.00081516    -0.00023143    -0.00070909
H         0.81894399    -0.19341206     1.81972823     0.00102880    -0.00118525    -0.00008781
H        -0.97752705    -0.10767482     1.90373620    -0.00004151    -0.00068461    -0.00002221
H        -1.00354153     0.03060241    -0.55671589     0.00000567    -0.00042734    -0.00008508
     6
  Step:    13            Position(A)                                  Velocity(au)
C        -0.03843170     0.02959451    -0.04960031    -0.00002814     0.00007478    -0.00094469
N        -0.03827865    -0.04824746     1.35345148    -0.00013312     0.00012094     0.00087899
H         0.93255629    -0.06860116    -0.49062216     0.00086748    -0.00025795    -0.00075936
H         0.82514754    -0.20008116     1.81961057     0.00117768    -0.00120187     0.00003721
H        -0.97720359    -0.11146426     1.90329451     0.00014983    -0.00067304    -0.00013020
H        -1.00354437     0.02818323    -0.55724224    -0.00000969    -0.00043876    -0.00010549
     6
  Step:    14            Position(A)                                  Velocity(au)
C        -0.03859817     0.03002496    -0.05487191    -0.00003043     0.00007877    -0.00093755
N        -0.03908259    -0.04757542     1.35836746    -0.00015226     0.00011931     0.00087643
H         0.93752115    -0.07011140    -0.49498935     0.00089844    -0.00028050    -0.00079718
H         0.83209450    -0.20683278     1.82014375     0.00128789    -0.00120927     0.00014384
H        -0.97585402    -0.11519035     1.90228236     0.00032300    -0.00065947    -0.00022480
H        -1.00364969     0.02570304    -0.55789383    -0.00003067    -0.00044741    -0.00012921
     6
  Step:    15            Position(A)                                  Velocity(au)
C        -0.03877224     0.03047592    -0.06009130    -0.00003082     0.00008190    -0.00092364
N        -0.03998246    -0.04691235     1.36325857    -0.00016674     0.00011736     0.00086779
H         0.94260964    -0.07173987    -0.49954250     0.00090918    -0.00029942    -0.00082340
H         0.83955875    -0.21361264     1.82122014     0.00135771    -0.00120800     0.00023040
H        -0.97358931    -0.11884355     1.90077907     0.00047410    -0.00064535    -0.00030421
H        -1.00388762     0.02317675    -0.55868805    -0.00005657    -0.00045396    -0.00015576
     6
  Step:    16            Position(A)                                  Velocity(au)
C        -0.03894352     0.03094277    -0.06522262    -0.00002947     0.00008435    -0.00090512
N        -0.04095120    -0.04626028     1.36809226    -0.00017651     0.00011521     0.00085492
H         0.94770984    -0.07346682    -0.50421675     0.00090183    -0.00031529    -0.00083948
H         0.84730962    -0.22037023     1.82272577     0.00138824    -0.00119934     0.00029682
H        -0.97054109    -0.12242242     1.89887324     0.00060054    -0.00063228    -0.00036744
H        -1.00428367     0.02061578    -0.55963934    -0.00008654    -0.00045917    -0.00018470
     6
  Step:    17            Position(A)                                  Velocity(au)
C        -0.03910272     0.03142190    -0.07024184    -0.00002661     0.00008632    -0.00088407
N        -0.04196195    -0.04562036     1.37284610    -0.00018174     0.00011303     0.00083960
H         0.95272323    -0.07527574    -0.50895689     0.00087902    -0.00032882    -0.00084737
H         0.85512729    -0.22706270     1.82454888     0.00138254    -0.00118484     0.00034427
H        -0.96685455    -0.12593431     1.89665837     0.00070081    -0.00062180    -0.00041411
H        -1.00485809     0.01802734    -0.56075940    -0.00011968    -0.00046385    -0.00021566
     6
  Step:    18            Position(A)                                  Velocity(au)
C        -0.03924195     0.03191075    -0.07513619    -0.00002249     0.00008798    -0.00086214
N        -0.04298914    -0.04499279     1.37750723    -0.00018269     0.00011097     0.00082324
H         0.95756683    -0.07715409    -0.51371878     0.00084333    -0.00034070    -0.00084891
H         0.86281289    -0.23365659     1.82658629     0.00134449    -0.00116596     0.00037465
H        -0.96268250    -0.12939505     1.89422959     0.00077409    -0.00061521    -0.00044418
H        -1.00562577     0.01541432    -0.56205762    -0.00015514    -0.00046866    -0.00024828
     6
  Step:    19            Position(A)                                  Velocity(au)
C        -0.03935468     0.03240772    -0.07990198    -0.00001732     0.00008947    -0.00084045
N        -0.04400898    -0.04437692     1.38207035    -0.00017964     0.00010914     0.00080671
H         0.96217260    -0.07909321    -0.51846880     0.00079692    -0.00035150    -0.00084560
H         0.87019209    -0.24012707     1.82874676     0.00127800    -0.00114371     0.00039012
H        -0.95818105    -0.13282758     1.89168137     0.00081990    -0.00061345    -0.00045780
H        -1.00659641     0.01277607    -0.56354135    -0.00019201    -0.00047401    -0.00028222
     6
  Step:    20            Position(A)                                  Velocity(au)
C        -0.03943575     0.03291195    -0.08454143    -0.00001132     0.00009085    -0.00081952
N        -0.04499948    -0.04377148     1.38653490    -0.00017283     0.00010757     0.00079037
H         0.96648499    -0.08108766    -0.52318168     0.00074146    -0.00036164    -0.00083843
H         0.87711462    -0.24645559     1.83095203     0.00118658    -0.00111861     0.00039282
H        -0.95350720    -0.13626001     1.88910644     0.00083793    -0.00061713    -0.00045515
H        -1.00777451     0.01010974    -0.56521592    -0.00022935    -0.00048005    -0.00031706
     6
  Step:    21            Position(A)                                  Velocity(au)
C        -0.03948120     0.03342296    -0.08905961    -0.00000470     0.00009217    -0.00079945
N        -0.04594020    -0.04317490     1.39090223    -0.00016244     0.00010629     0.00077418
H         0.97045796    -0.08313431    -0.52783776     0.00067820    -0.00037136    -0.00082798
H         0.88345142    -0.25262691     1.83313627     0.00107337    -0.00109076     0.00038471
H        -0.94881773    -0.13972361     1.88659532     0.00082799    -0.00062653    -0.00043650
H        -1.00915925     0.00741180    -0.56708429    -0.00026613    -0.00048667    -0.00035226
     6
  Step:    22            Position(A)                                  Velocity(au)
C        -0.03948823     0.03394046    -0.09346198     0.00000234     0.00009343    -0.00078008
N        -0.04681205    -0.04258551     1.39517349    -0.00014870     0.00010527     0.00075789
H         0.97405259    -0.08523145    -0.53242061     0.00060819    -0.00038081    -0.00081456
H         0.88909169    -0.25862675     1.83524477     0.00094132    -0.00106006     0.00036760
H        -0.94426810    -0.14325105     1.88423580     0.00079027    -0.00064172    -0.00040230
H        -1.01074408     0.00467932    -0.56914656    -0.00030125    -0.00049360    -0.00038721
     6
  Step:    23            Position(A)                                  Velocity(au)
C        -0.03945516     0.03446414    -0.09775311     0.00000959     0.00009460    -0.00076116
N        -0.04759732    -0.04200168     1.39934845    -0.00013185     0.00010452     0.00074119
H         0.97723593    -0.08737818    -0.53691556     0.00053249    -0.00039008    -0.00079839
H         0.89394185    -0.26444068     1.83723300     0.00079349    -0.00102642     0.00034323
H        -0.94001066    -0.14687522     1.88211197     0.00072554    -0.00066264    -0.00035334
H        -1.01251647     0.00191090    -0.57139956    -0.00033358    -0.00050051    -0.00042128
     6
  Step:    24            Position(A)                                  Velocity(au)
C        -0.03938142     0.03499361    -0.10193610     0.00001687     0.00009566    -0.00074246
N        -0.04827994    -0.04142189     1.40342522    -0.00011225     0.00010400     0.00072381
H         0.97998088    -0.08957422    -0.54130913     0.00045220    -0.00039927    -0.00077967
H         0.89792573    -0.27005399     1.83906600     0.00063316    -0.00098985     0.00031328
H        -0.93619055    -0.15062834     1.88030199     0.00063556    -0.00068910    -0.00029096
H        -1.01445784    -0.00089287    -0.57383670    -0.00036203    -0.00050700    -0.00045382
     6
  Step:    25            Position(A)                                  Velocity(au)
C        -0.03926754     0.03552836    -0.10601270     0.00002395     0.00009661    -0.00072380
N        -0.04884601    -0.04084467     1.40740057    -0.00009032     0.00010372     0.00070561
H         0.98226648    -0.09181990    -0.54558905     0.00036854    -0.00040853    -0.00075868
H         0.90098549    -0.27545230     1.84071810     0.00046379    -0.00095053     0.00027941
H        -0.93294033    -0.15454121     1.87887519     0.00052312    -0.00072082    -0.00021702
H        -1.01654385    -0.00372928    -0.57644808    -0.00038558    -0.00051272    -0.00048426
     6
  Step:    26            Position(A)                                  Velocity(au)
C        -0.03911518     0.03606778    -0.10998356     0.00003064     0.00009743    -0.00070504
N        -0.04928419    -0.04026866     1.41127041    -0.00006660     0.00010366     0.00068650
H         0.98407848    -0.09411639    -0.54974448     0.00028282    -0.00041804    -0.00073577
H         0.90308236    -0.28062234     1.84217255     0.00028897    -0.00090878     0.00024323
H        -0.93037432    -0.15864267     1.87788912     0.00039207    -0.00075739    -0.00013394
H        -1.01874493    -0.00659347    -0.57922089    -0.00040339    -0.00051729    -0.00051213
     6
  Step:    27            Position(A)                                  Velocity(au)
C        -0.03892702     0.03661119    -0.11384859     0.00003676     0.00009811    -0.00068612
N        -0.04958623    -0.03969255     1.41503043    -0.00004168     0.00010382     0.00066654
H         0.98540978    -0.09646599    -0.55376643     0.00019639    -0.00042805    -0.00071131
H         0.90419711    -0.28555258     1.84342133     0.00011230    -0.00086501     0.00020630
H        -0.92858278    -0.16295894     1.87738660     0.00024725    -0.00079832    -0.00004462
H        -1.02102715    -0.00947852    -0.58213997    -0.00041474    -0.00052036    -0.00053708
     6
  Step:    28            Position(A)                                  Velocity(au)
C        -0.03870673     0.03715789    -0.11760720     0.00004213     0.00009865    -0.00066698
N        -0.04974730    -0.03911512     1.41867653    -0.00001620     0.00010417     0.00064582
H         0.98626068    -0.09887255    -0.55764803     0.00011065    -0.00043889    -0.00068573
H         0.90433019    -0.29023371     1.84446485    -0.00006262    -0.00081967     0.00017015
H        -0.92762707    -0.16751302     1.87739335     0.00009419    -0.00084299     0.00004769
H        -1.02335323    -0.01237536    -0.58518852    -0.00041913    -0.00052154    -0.00055888
     6
  Step:    29            Position(A)                                  Velocity(au)
C        -0.03845892     0.03770716    -0.12125846     0.00004660     0.00009906    -0.00064758
N        -0.04976622    -0.03853527     1.42220519     0.00000917     0.00010470     0.00062446
H         0.98663907    -0.10134193    -0.56138463     0.00002699    -0.00045100    -0.00065948
H         0.90350147    -0.29465879     1.84531166    -0.00023228    -0.00077319     0.00013624
H        -0.92753632    -0.17232424     1.87791645    -0.00006111    -0.00089074     0.00013956
H        -1.02568353    -0.01527265    -0.58834889    -0.00041624    -0.00052039    -0.00057747
     6
  Step:    30            Position(A)                                  Velocity(au)
C        -0.03818909     0.03825829    -0.12480104     0.00004999     0.00009933    -0.00062782
N        -0.04964545    -0.03795201     1.42561354     0.00003377     0.00010539     0.00060258
H         0.98656048    -0.10388266    -0.56497403    -0.00005317    -0.00046495    -0.00063300
H         0.90174986    -0.29882296     1.84597833    -0.00039328    -0.00072590     0.00010602
H        -0.92830589    -0.17740812     1.87894365    -0.00021259    -0.00094093     0.00022750
H        -1.02797715    -0.01815630    -0.59160357    -0.00040594    -0.00051635    -0.00059300
     6
  Step:    31            Position(A)                                  Velocity(au)
C        -0.03790361     0.03881058    -0.12823280     0.00005214     0.00009947    -0.00060751
N        -0.04939102    -0.03736452     1.42889909     0.00005701     0.00010621     0.00058020
H         0.98604845    -0.10650699    -0.56841651    -0.00012829    -0.00048159    -0.00060681
H         0.89913262    -0.30272261     1.84648942    -0.00054236    -0.00067787     0.00008097
H        -0.92989791    -0.18277678     1.88044369    -0.00035447    -0.00099306     0.00030818
H        -1.03019305    -0.02100871    -0.59493635    -0.00038832    -0.00050866    -0.00060586
     6
  Step:    32            Position(A)                                  Velocity(au)
C        -0.03760988     0.03936332    -0.13155006     0.00005284     0.00009948    -0.00058625
N        -0.04901214    -0.03677213     1.43205913     0.00007835     0.00010712     0.00055720
H         0.98513525    -0.10923272    -0.57171521    -0.00019661    -0.00050221    -0.00058150
H         0.89572469    -0.30635355     1.84687784    -0.00067638    -0.00062867     0.00006268
H        -0.93224377    -0.18844027     1.88236729    -0.00048160    -0.00104704     0.00037848
H        -1.03229114    -0.02380712    -0.59833419    -0.00036370    -0.00049611    -0.00061694
     6
  Step:    33            Position(A)                                  Velocity(au)
C        -0.03731659     0.03991580    -0.13474618     0.00005178     0.00009935    -0.00056319
N        -0.04852058    -0.03617434     1.43508971     0.00009741     0.00010811     0.00053314
H         0.98386405    -0.11208663    -0.57487713    -0.00025560    -0.00052908    -0.00055813
H         0.89161788    -0.30970724     1.84718578    -0.00079236    -0.00057681     0.00005306
H        -0.93524863    -0.19440957     1.88464864    -0.00058984    -0.00110356     0.00043552
H        -1.03423387    -0.02652059    -0.60179064    -0.00033285    -0.00047667    -0.00062814
     6
  Step:    34            Position(A)                                  Velocity(au)
C        -0.03703455     0.04046720    -0.13780787     0.00004844     0.00009904    -0.00053596
N        -0.04792974    -0.03557090     1.43798302     0.00011404     0.00010910     0.00050650
H         0.98229518    -0.11511156    -0.57791687    -0.00030039    -0.00056634    -0.00053944
H         0.88692047    -0.31276277     1.84746742    -0.00088718    -0.00051861     0.00005486
H        -0.93879774    -0.20070241     1.88720659    -0.00067642    -0.00116463     0.00047673
H        -1.03598963    -0.02910356    -0.60531373    -0.00029800    -0.00044667    -0.00064414
     6
  Step:    35            Position(A)                                  Velocity(au)
C        -0.03677825     0.04101643    -0.14070211     0.00004227     0.00009844    -0.00049712
N        -0.04725326    -0.03496197     1.44071827     0.00012816     0.00010996     0.00047226
H         0.98052586    -0.11838021    -0.58087183    -0.00031985    -0.00061898    -0.00053496
H         0.88175888    -0.31547040     1.84779547    -0.00095685    -0.00044871     0.00007179
H        -0.94276550    -0.20735176     1.88994641    -0.00074040    -0.00123089     0.00050118
H        -1.03754551    -0.03148436    -0.60894876    -0.00026758    -0.00040242    -0.00067695
     6
  Step:    36            Position(A)                                  Velocity(au)
C        -0.03656476     0.04156120    -0.14333275     0.00003752     0.00010543    -0.00047233
N        -0.04650536    -0.03434885     1.44323157     0.00015026     0.00011970     0.00045829
H         0.97874047    -0.12199076    -0.58386230    -0.00032882    -0.00073458    -0.00060820
H         0.87628623    -0.31774960     1.84826524    -0.00108022    -0.00040671     0.00011112
H        -0.94702638    -0.21438218     1.89277659    -0.00084580    -0.00139456     0.00055739
H        -1.03896350    -0.03357592    -0.61283720    -0.00028022    -0.00038393    -0.00080065
     6
  Step:    37            Position(A)                                  Velocity(au)
C        -0.03633356     0.04214440    -0.14585748     0.00004366     0.00010455    -0.00044374
N        -0.04567178    -0.03368123     1.44568843     0.00014866     0.00012065     0.00043122
H         0.97678056    -0.12589576    -0.58729147    -0.00037945    -0.00068209    -0.00061344
H         0.87018872    -0.32017185     1.84884073    -0.00110274    -0.00045771     0.00010354
H        -0.95175192    -0.22196261     1.89599810    -0.00084035    -0.00134481     0.00058742
H        -1.04051907    -0.03589515    -0.61726176    -0.00026362    -0.00043787    -0.00078224
     6
  Step:    38            Position(A)                                  Velocity(au)
C        -0.03607933     0.04272358    -0.14826602     0.00004642     0.00010385    -0.00042503
N        -0.04485260    -0.03300753     1.44802561     0.00014472     0.00012179     0.00041138
H         0.97452192    -0.12957382    -0.59068219    -0.00043050    -0.00064851    -0.00060269
H         0.86402663    -0.32283815     1.84941634    -0.00110209    -0.00049820     0.00011026
H        -0.95636890    -0.22933297     1.89930715    -0.00080776    -0.00131177     0.00059247
H        -1.04189432    -0.03844387    -0.62153373    -0.00022390    -0.00047137    -0.00075204
     6
  Step:    39            Position(A)                                  Velocity(au)
C        -0.03581745     0.04329903    -0.15058315     0.00004687     0.00010319    -0.00040946
N        -0.04406268    -0.03232715     1.45026232     0.00013801     0.00012304     0.00039409
H         0.97199402    -0.13310620    -0.59399251    -0.00047532    -0.00062651    -0.00058721
H         0.85793520    -0.32571104     1.85006662    -0.00107751    -0.00053511     0.00012918
H        -0.96073298    -0.23654747     1.90258546    -0.00075054    -0.00128488     0.00057865
H        -1.04300844    -0.04113609    -0.62562330    -0.00017298    -0.00049285    -0.00071786
     6
  Step:    40            Position(A)                                  Velocity(au)
C        -0.03555816     0.04387087    -0.15281867     0.00004574     0.00010256    -0.00039532
N        -0.04331814    -0.03163954     1.45240733     0.00012847     0.00012440     0.00037814
H         0.96923703    -0.13653970    -0.59721113    -0.00051281    -0.00061150    -0.00057078
H         0.85204624    -0.32878779     1.85085262    -0.00103021    -0.00057304     0.00015820
H        -0.96471382    -0.24361900     1.90574090    -0.00067145    -0.00125891     0.00054986
H        -1.04381757    -0.04392363    -0.62951532    -0.00011574    -0.00050737    -0.00068144
     6
  Step:    41            Position(A)                                  Velocity(au)
C        -0.03530896     0.04443925    -0.15497821     0.00004340     0.00010198    -0.00038209
N        -0.04263442    -0.03094410     1.45446640     0.00011632     0.00012589     0.00036318
H         0.96629275    -0.13990467    -0.60033821    -0.00054284    -0.00060126    -0.00055490
H         0.84648162    -0.33208190     1.85182546    -0.00096237    -0.00061405     0.00019564
H        -0.96819791    -0.25054359     1.90869863    -0.00057367    -0.00123175     0.00050890
H        -1.04429516    -0.04677690    -0.63319938    -0.00005470    -0.00051753    -0.00064349
     6
  Step:    42            Position(A)                                  Velocity(au)
C        -0.03507570     0.04500442    -0.15706592     0.00004012     0.00010146    -0.00036957
N        -0.04202516    -0.03024015     1.45644435     0.00010193     0.00012751     0.00034906
H         0.96320293    -0.14322322    -0.60337935    -0.00056548    -0.00059464    -0.00054035
H         0.84134869    -0.33561347     1.85302732    -0.00087687    -0.00065885     0.00023988
H        -0.97109063    -0.25731094     1.91139777    -0.00046064    -0.00120270     0.00045812
H        -1.04442566    -0.04967639    -0.63666823     0.00000839    -0.00052476    -0.00060452
     6
  Step:    43            Position(A)                                  Velocity(au)
C        -0.03486307     0.04556676    -0.15908531     0.00003609     0.00010102    -0.00035767
N        -0.04150163    -0.02952704     1.45834558     0.00008576     0.00012926     0.00033575
H         0.96000856    -0.14651295    -0.60634319    -0.00058089    -0.00059098    -0.00052754
H         0.83673688    -0.33940378     1.85449131    -0.00077714    -0.00070736     0.00028926
H        -0.97331701    -0.26390926     1.91378977    -0.00033586    -0.00117167     0.00039963
H        -1.04420189    -0.05260867    -0.63991746     0.00007219    -0.00052999    -0.00056502
     6
  Step:    44            Position(A)                                  Velocity(au)
C        -0.03467481     0.04612675    -0.16103946     0.00003144     0.00010069    -0.00034630
N        -0.04107242    -0.02880416     1.46017435     0.00006829     0.00013110     0.00032320
H         0.95674948    -0.14978873    -0.60924008    -0.00058931    -0.00058986    -0.00051669
H         0.83271498    -0.34347196     1.85624087    -0.00066702    -0.00075897     0.00034198
H        -0.97482189    -0.27032773     1.91583745    -0.00020280    -0.00113894     0.00033535
H        -1.04362367    -0.05556439    -0.64294538     0.00013551    -0.00053383    -0.00052545
     6