     6
  Step:     0            Position(A)                                  Velocity(au)
C        -0.03336139    -0.01146609     0.04111446     0.00012016     0.00000501     0.00023407
N        -0.04721348    -0.03010105     1.28355120    -0.00003788     0.00004728    -0.00017040
H         0.86919334     0.11370987    -0.52303258    -0.00004430    -0.00017194    -0.00015388
H         0.85391432    -0.19636523     1.87996798     0.00037364    -0.00024222    -0.00005930
H        -0.87155988    -0.12148377     1.75539912    -0.00031636    -0.00028154     0.00007996
H        -1.01085403     0.08928592    -0.54689451    -0.00091844    -0.00002106    -0.00028795
     6
  Step:     1            Position(A)                                  Velocity(au)
C        -0.03276068    -0.01144259     0.04197333     0.00009896     0.00000364     0.00007888
N        -0.04730950    -0.02983137     1.28295765     0.00000228     0.00005130    -0.00004550
H         0.86964821     0.11284023    -0.52402101     0.00021006    -0.00014635    -0.00020702
H         0.85556074    -0.19765903     1.87924755     0.00022596    -0.00023057    -0.00020493
H        -0.87450248    -0.12319942     1.75643918    -0.00074985    -0.00034555     0.00029489
H        -1.01583659     0.08913718    -0.54821136    -0.00089716    -0.00003390    -0.00019061
     6
  Step:     2            Position(A)                                  Velocity(au)
C        -0.03227922    -0.01142628     0.04197708     0.00007690     0.00000247    -0.00007794
N        -0.04718850    -0.02954001     1.28305368     0.00004090     0.00005531     0.00008133
H         0.87149047     0.11210947    -0.52529640     0.00046095    -0.00012217    -0.00025758
H         0.85638521    -0.19888658     1.87772704     0.00007511    -0.00021898    -0.00035081
H        -0.87975977    -0.12526249     1.75862381    -0.00115705    -0.00040876     0.00049513
H        -1.02066472     0.08891517    -0.54897893    -0.00086383    -0.00004814    -0.00008807
     6
  Step:     3            Position(A)                                  Velocity(au)
C        -0.03192012    -0.01141556     0.04112140     0.00005448     0.00000167    -0.00023489
N        -0.04686244    -0.02922688     1.28384659     0.00007681     0.00005935     0.00020899
H         0.87468640     0.11150487    -0.52683635     0.00070321    -0.00010107    -0.00030260
H         0.85638173    -0.20005250     1.87541324    -0.00007503    -0.00020885    -0.00049397
H        -0.88714896    -0.12766718     1.76185089    -0.00152475    -0.00047055     0.00067343
H        -1.02527824     0.08861097    -0.54917400    -0.00081995    -0.00006421     0.00001798
     6
  Step:     4            Position(A)                                  Velocity(au)
C        -0.03168390    -0.01140798     0.03941035     0.00003217     0.00000141    -0.00039004
N        -0.04634920    -0.02889151     1.28533739     0.00010890     0.00006346     0.00033597
H         0.87917486     0.11100506    -0.52860308     0.00093121    -0.00008461    -0.00033932
H         0.85556527    -0.20116879     1.87232918    -0.00022030    -0.00020152    -0.00063092
H        -0.89642157    -0.13040442     1.76598277    -0.00184098    -0.00053013     0.00082359
H        -1.02962476     0.08821346    -0.54878243    -0.00076655    -0.00008251     0.00012570
     6
  Step:     5            Position(A)                                  Velocity(au)
C        -0.03156854    -0.01140013     0.03685817     0.00001047     0.00000188    -0.00054103
N        -0.04567214    -0.02853321     1.28751883     0.00013615     0.00006769     0.00046029
H         0.88486472     0.11058011    -0.53054525     0.00113866    -0.00007441    -0.00036544
H         0.85397384    -0.20225519     1.86851707    -0.00035598    -0.00019848    -0.00075749
H        -0.90727128    -0.13346163     1.77085293    -0.00209507    -0.00058672     0.00094064
H        -1.03365682     0.08770915    -0.54780002    -0.00070431    -0.00010348     0.00023291
     6
  Step:     6            Position(A)                                  Velocity(au)
C        -0.03156938    -0.01138745     0.03349154    -0.00001007     0.00000330    -0.00068502
N        -0.04485976    -0.02815095     1.29037296     0.00015760     0.00007207     0.00057949
H         0.89163180     0.11019099    -0.53260100     0.00131862    -0.00007220    -0.00037937
H         0.85167081    -0.20334015     1.86404230    -0.00047700    -0.00020140    -0.00086870
H        -0.91934158    -0.13682313     1.77627333    -0.00227812    -0.00063963     0.00102122
H        -1.03732994     0.08708140    -0.54623442    -0.00063358    -0.00012772     0.00033694
     6
  Step:     7            Position(A)                                  Velocity(au)
C        -0.03167885    -0.01136395     0.02935160    -0.00002885     0.00000595    -0.00081896
N        -0.04394518    -0.02774342     1.29386893     0.00017242     0.00007663     0.00069080
H         0.89931431     0.10978898    -0.53470242     0.00146341    -0.00007961    -0.00038053
H         0.84874682    -0.20446216     1.85899769    -0.00057795    -0.00021208    -0.00095891
H        -0.93223527    -0.14047080     1.78204362    -0.00238361    -0.00068823     0.00106400
H        -1.04059968     0.08630958    -0.54410777    -0.00055417    -0.00015590     0.00043463
     6
  Step:     8            Position(A)                                  Velocity(au)
C        -0.03188631    -0.01132205     0.02449478    -0.00004528     0.00001005    -0.00093986
N        -0.04296557    -0.02730916     1.29796184     0.00018000     0.00008129     0.00079149
H         0.90770822     0.10931642    -0.53678135     0.00156496    -0.00009768    -0.00036955
H         0.84532170    -0.20566992     1.85350810    -0.00065359    -0.00023185    -0.00102194
H        -0.94552700    -0.14438376     1.78796204    -0.00240789    -0.00073146     0.00106995
H        -1.04341782     0.08536877    -0.54145979    -0.00046526    -0.00018838     0.00052232
     6
  Step:     9            Position(A)                                  Velocity(au)
C        -0.03217793    -0.01125318     0.01899189    -0.00005880     0.00001556    -0.00104508
N        -0.04196117    -0.02684744     1.30259313     0.00017996     0.00008574     0.00087900
H         0.91656424     0.10871234    -0.53877584     0.00161596    -0.00012549    -0.00034814
H         0.84154260    -0.20701775     1.84773324    -0.00069944    -0.00026039    -0.00105193
H        -0.95877642    -0.14853335     1.79383720    -0.00235093    -0.00076677     0.00104234
H        -1.04572803     0.08423320    -0.53835050    -0.00036582    -0.00022420     0.00059618
     6
  Step:    10            Position(A)                                  Velocity(au)
C        -0.03253711    -0.01114984     0.01292736    -0.00006903     0.00002199    -0.00113211
N        -0.04097364    -0.02636021     1.30769097     0.00017242     0.00008937     0.00095094
H         0.92559434     0.10792749    -0.54063467     0.00161279    -0.00015921    -0.00031844
H         0.83757997    -0.20855199     1.84186485    -0.00071215    -0.00029473    -0.00104490
H        -0.97154811    -0.15287074     1.79949917    -0.00221768    -0.00078976     0.00098614
H        -1.04746690     0.08288721    -0.53486100    -0.00025648    -0.00026027     0.00065294
     6
  Step:    11            Position(A)                                  Velocity(au)
C        -0.03294563    -0.01100861     0.00640135    -0.00007587     0.00002854    -0.00119862
N        -0.04004360    -0.02585356     1.31316883     0.00015801     0.00009159     0.00100516
H         0.93450055     0.10694174    -0.54231730     0.00155861    -0.00019352    -0.00028237
H         0.83362262    -0.21029554     1.83611265    -0.00068979    -0.00033070    -0.00100051
H        -0.98343983    -0.15731653     1.80480434    -0.00201901    -0.00079626     0.00090698
H        -1.04858046     0.08133869    -0.53108892    -0.00014149    -0.00029238     0.00069079
     6
  Step:    12            Position(A)                                  Velocity(au)
C        -0.03338516    -0.01083088    -0.00047012    -0.00007950     0.00003453    -0.00124355
N        -0.03920752    -0.02533646     1.31892601     0.00013786     0.00009223     0.00104069
H         0.94301559     0.10576449    -0.54379080     0.00146298    -0.00022451    -0.00024175
H         0.82986988    -0.21224836     1.83068179    -0.00063271    -0.00036557    -0.00092250
H        -0.99411537    -0.16177086     1.80963679    -0.00177083    -0.00078536     0.00081093
H        -1.04904837     0.07961913    -0.52713979    -0.00002786    -0.00031769     0.00070976
     6
  Step:    13            Position(A)                                  Velocity(au)
C        -0.03383849    -0.01062084    -0.00756463    -0.00008031     0.00003969    -0.00126842
N        -0.03849534    -0.02481774     1.32485657     0.00011341     0.00009158     0.00105890
H         0.95093092     0.10442029    -0.54503234     0.00133854    -0.00025092    -0.00019874
H         0.82651679    -0.21440121     1.82575224    -0.00054411    -0.00039902    -0.00081756
H        -1.00332755    -0.16613675     1.81391167    -0.00149108    -0.00075990     0.00070449
H        -1.04889332     0.07777076    -0.52311777     0.00007757    -0.00033573     0.00071162
     6
  Step:    14            Position(A)                                  Velocity(au)
C        -0.03429053    -0.01038340    -0.01476970    -0.00007880     0.00004407    -0.00127744
N        -0.03792894    -0.02430408     1.33086353     0.00008615     0.00009015     0.00106343
H         0.95810568     0.10293569    -0.54603136     0.00119779    -0.00027332    -0.00015552
H         0.82373582    -0.21674678     1.82146494    -0.00042952    -0.00043223    -0.00069357
H        -1.01092516    -0.17033762     1.81757887    -0.00119655    -0.00072472     0.00059402
H        -1.04817392     0.07583421    -0.51911728     0.00017009    -0.00034775     0.00069930
     6
  Step:    15            Position(A)                                  Velocity(au)
C        -0.03472883    -0.01012287    -0.02199769    -0.00007549     0.00004787    -0.00127612
N        -0.03752197    -0.02379915     1.33687170     0.00005734     0.00008850     0.00105907
H         0.96446403     0.10133223    -0.54678945     0.00105092    -0.00029304    -0.00011382
H         0.82166386    -0.21928479     1.81791596    -0.00029529    -0.00046683    -0.00055787
H        -1.01684670    -0.17432498     1.82062319    -0.00090029    -0.00068483     0.00048482
H        -1.04697153     0.07384170    -0.51521674     0.00024741    -0.00035564     0.00067602
     6
  Step:    16            Position(A)                                  Velocity(au)
C        -0.03514372    -0.00984235    -0.02919247    -0.00007078     0.00005131    -0.00126932
N        -0.03728091    -0.02330382     1.34283320     0.00002790     0.00008702     0.00105003
H         0.96998321     0.09962371    -0.54731772     0.00090467    -0.00031147    -0.00007476
H         0.82039839    -0.22202291     1.81515982    -0.00014736    -0.00050406    -0.00041614
H        -1.02110033    -0.17807759     1.82305830    -0.00061047    -0.00064407     0.00038038
H        -1.04537768     0.07181475    -0.51147682     0.00030883    -0.00036113     0.00064432
     6
  Step:    17            Position(A)                                  Velocity(au)
C        -0.03552770    -0.00954371    -0.03632504    -0.00006490     0.00005455    -0.00125992
N        -0.03720707    -0.02281691     1.34872380    -0.00000153     0.00008590     0.00103887
H         0.97467539     0.09781657    -0.54763333     0.00076241    -0.00032954    -0.00003895
H         0.82000059    -0.22497436     1.81321879     0.00000901    -0.00054430    -0.00027230
H        -1.02373730    -0.18159484     1.82491665    -0.00033112    -0.00060469     0.00028252
H        -1.04348562     0.06976554    -0.50794407     0.00035428    -0.00036531     0.00060546
     6
  Step:    18            Position(A)                                  Velocity(au)
C        -0.03587462    -0.00922796    -0.04338244    -0.00009321     0.00009276    -0.00200855
N        -0.03729816    -0.02233631     1.35453363    -0.00004894     0.00013699     0.00165105
H         0.97856993     0.09591227    -0.54775644     0.00100580    -0.00055917    -0.00001081
H         0.82049993    -0.22815310     1.81209303     0.00027134    -0.00094392    -0.00020788
H        -1.02482959    -0.18488797     1.82624018    -0.00010334    -0.00091302     0.00030897
H        -1.04138761     0.06770043    -0.50465772     0.00061697    -0.00059290     0.00090015
     6
  Step:    19            Position(A)                                  Velocity(au)
C        -0.03637294    -0.00873434    -0.05425934    -0.00008211     0.00008189    -0.00183429
N        -0.03764499    -0.02157923     1.36349396    -0.00007262     0.00013077     0.00151460
H         0.98401338     0.09293750    -0.54802594     0.00092016    -0.00049364    -0.00008276
H         0.82247552    -0.23349892     1.81138904     0.00042363    -0.00094614    -0.00004459
H        -1.02473192    -0.18979514     1.82774491     0.00012720    -0.00082337     0.00022817
H        -1.03814670     0.06452542    -0.50009482     0.00051656    -0.00052992     0.00070939
     6
  Step:    20            Position(A)                                  Velocity(au)
C        -0.03680444    -0.00830055    -0.06415500    -0.00006956     0.00007149    -0.00165965
N        -0.03812057    -0.02085543     1.37168579    -0.00009391     0.00012492     0.00137773
H         0.98899031     0.09032203    -0.54869371     0.00083869    -0.00043125    -0.00015094
H         0.82529734    -0.23886771     1.81158802     0.00056532    -0.00094907     0.00010872
H        -1.02338910    -0.19421225     1.82882414     0.00033478    -0.00073857     0.00015857
H        -1.03553776     0.06169929    -0.49662423     0.00039504    -0.00046889     0.00051472
     6
  Step:    21            Position(A)                                  Velocity(au)
C        -0.03716149    -0.00792396    -0.07307339    -0.00005603     0.00006177    -0.00149183
N        -0.03870952    -0.02016314     1.37911216    -0.00011248     0.00011971     0.00124650
H         0.99352086     0.08804880    -0.54973700     0.00076288    -0.00037313    -0.00021535
H         0.82888411    -0.24425774     1.81262147     0.00069112    -0.00095367     0.00024846
H        -1.02093683    -0.19816766     1.82954251     0.00051847    -0.00066125     0.00010107
H        -1.03366847     0.05921003    -0.49425992     0.00025833    -0.00041166     0.00032083
     6
  Step:    22            Position(A)                                  Velocity(au)
C        -0.03743926    -0.00760068    -0.08105686    -0.00004183     0.00005280    -0.00133338
N        -0.03939498    -0.01949913     1.38580812    -0.00012809     0.00011516     0.00112304
H         0.99763351     0.08609457    -0.55113350     0.00069231    -0.00031927    -0.00027623
H         0.83312749    -0.24967245     1.81440296     0.00079665    -0.00095926     0.00037252
H        -1.01751507    -0.20170397     1.82996926     0.00067812    -0.00059210     0.00005581
H        -1.03261099     0.05703538    -0.49298933     0.00011140    -0.00035884     0.00013032
     6
  Step:    23            Position(A)                                  Velocity(au)
C        -0.03763478    -0.00732655    -0.08816080    -0.00002720     0.00004452    -0.00118460
N        -0.04015894    -0.01886009     1.39181961    -0.00014049     0.00011115     0.00100763
H         1.00135444     0.08443622    -0.55286257     0.00062570    -0.00026916    -0.00033379
H         0.83789833    -0.25511198     1.81683659     0.00087835    -0.00096444     0.00047954
H        -1.01326379    -0.20486744     1.83017406     0.00081351    -0.00053097     0.00002271
H        -1.03240798     0.05514967    -0.49278532    -0.00004107    -0.00031053    -0.00005500
     6
  Step:    24            Position(A)                                  Velocity(au)
C        -0.03774663    -0.00709768    -0.09444150    -0.00001241     0.00003688    -0.00104505
N        -0.04098238    -0.01824325     1.39719316    -0.00014949     0.00010755     0.00089982
H         1.00470321     0.08305333    -0.55490498     0.00056170    -0.00022225    -0.00038820
H         0.84305183    -0.26056953     1.81982125     0.00093373    -0.00096776     0.00056874
H        -1.00832337    -0.20770327     1.83022587     0.00092426    -0.00047744     0.00000166
H        -1.03307503     0.05352679    -0.49361072    -0.00019441    -0.00026665    -0.00023345
     6
  Step:    25            Position(A)                                  Velocity(au)
C        -0.03777484    -0.00691045    -0.09995217     0.00000228     0.00002983    -0.00091413
N        -0.04184563    -0.01764654     1.40197230    -0.00015498     0.00010426     0.00079902
H         1.00769207     0.08192862    -0.55724261     0.00049906    -0.00017799    -0.00043957
H         0.84843358    -0.26603129     1.82325367     0.00096148    -0.00096808     0.00063983
H        -1.00283536    -0.21025435     1.83019274     0.00100992    -0.00043113    -0.00000742
H        -1.03460148     0.05214105    -0.49541938    -0.00034401    -0.00022715    -0.00040343
     6
  Step:    26            Position(A)                                  Velocity(au)
C        -0.03772090    -0.00676157    -0.10474227     0.00001663     0.00002332    -0.00079129
N        -0.04272876    -0.01706837     1.40619680    -0.00015695     0.00010121     0.00070465
H         1.01032680     0.08104770    -0.55985820     0.00043678    -0.00013595    -0.00048804
H         0.85388616    -0.27147821     1.82703113     0.00096154    -0.00096466     0.00069308
H        -0.99694326    -0.21256137     1.83014227     0.00107014    -0.00039174    -0.00000457
H        -1.03695140     0.05096716    -0.49815666    -0.00048552    -0.00019200    -0.00056340
     6
  Step:    27            Position(A)                                  Velocity(au)
C        -0.03758769    -0.00664797    -0.10885788     0.00003039     0.00001733    -0.00067604
N        -0.04361209    -0.01650750     1.40990287    -0.00015549     0.00009834     0.00061616
H         1.01260790     0.08039852    -0.56273536     0.00037406    -0.00009579    -0.00053376
H         0.85925530    -0.27688814     1.83105404     0.00093482    -0.00095712     0.00072916
H        -0.99079133    -0.21466318     1.83014130     0.00110490    -0.00035899     0.00001004
H        -1.04006587     0.04998015    -0.50176021    -0.00061511    -0.00016115    -0.00071206
     6
  Step:    28            Position(A)                                  Velocity(au)
C        -0.03737930    -0.00656678    -0.11234204     0.00004335     0.00001181    -0.00056792
N        -0.04447672    -0.01596289     1.41312343    -0.00015076     0.00009564     0.00053305
H         1.01453179     0.07997089    -0.56585850     0.00031028    -0.00005722    -0.00057686
H         0.86439493    -0.28223771     1.83522799     0.00088308    -0.00094540     0.00074909
H        -0.98452250    -0.21659698     1.83025519     0.00111462    -0.00033263     0.00003610
H        -1.04386619     0.04915554    -0.50616133    -0.00072955    -0.00013453    -0.00084838
     6
  Step:    29            Position(A)                                  Velocity(au)
C        -0.03710090    -0.00651536    -0.11523503     0.00005535     0.00000673    -0.00046649
N        -0.04530496    -0.01543358     1.41588846    -0.00014300     0.00009310     0.00045484
H         1.01609198     0.07975606    -0.56921284     0.00024503    -0.00002003    -0.00061747
H         0.86917133    -0.28750390     1.83946550     0.00080869    -0.00092963     0.00075417
H        -0.97827538    -0.21839827     1.83054667     0.00110025    -0.00031238     0.00007305
H        -1.04825787     0.04846953    -0.51128661    -0.00082632    -0.00011198    -0.00097163
     6
  Step:    30            Position(A)                                  Velocity(au)
C        -0.03675851    -0.00649124    -0.11757444     0.00006623     0.00000207    -0.00037129
N        -0.04608067    -0.01491864     1.41822517    -0.00013250     0.00009072     0.00038107
H         1.01728012     0.07974624    -0.57278435     0.00017806     0.00001590    -0.00065570
H         0.87346562    -0.29266489     1.84368711     0.00071435    -0.00091005     0.00074582
H        -0.97218149    -0.22010077     1.83107456     0.00106325    -0.00029791     0.00012011
H        -1.05313466     0.04789949    -0.51705964    -0.00090365    -0.00009328    -0.00108137
     6
  Step:    31            Position(A)                                  Velocity(au)
C        -0.03635882    -0.00649216    -0.11939515     0.00007590    -0.00000222    -0.00028187
N        -0.04678951    -0.01441715     1.42015817    -0.00011958     0.00008849     0.00031131
H         1.01808701     0.07993425    -0.57655962     0.00010931     0.00005065    -0.00069166
H         0.87717515    -0.29770047     1.84782193     0.00060296    -0.00088696     0.00072556
H        -0.96636234    -0.22173621     1.83189241     0.00100553    -0.00028888     0.00017624
H        -1.05838274     0.04742444    -0.52340276    -0.00096046    -0.00007808    -0.00117748
     6
  Step:    32            Position(A)                                  Velocity(au)
C        -0.03590899    -0.00651609    -0.12072930     0.00008427    -0.00000618    -0.00019775
N        -0.04741912    -0.01392819     1.42170959    -0.00010462     0.00008642     0.00024516
H         1.01850353     0.08031317    -0.58052584     0.00003885     0.00008424    -0.00072542
H         0.88021429    -0.30259231     1.85180806     0.00047755    -0.00086069     0.00069498
H        -0.96092697    -0.22333410     1.83304719     0.00092953    -0.00028485     0.00024017
H        -1.06388466     0.04702554    -0.53023868    -0.00099631    -0.00006600    -0.00126006
     6
  Step:    33            Position(A)                                  Velocity(au)
C        -0.03541653    -0.00656122    -0.12160626     0.00009130    -0.00000984    -0.00011848
N        -0.04795930    -0.01345090     1.42289932    -0.00008801     0.00008448     0.00018223
H         1.01852145     0.08087616    -0.58467070    -0.00003308     0.00011666    -0.00075705
H         0.88251477    -0.30732405     1.85559258     0.00034118    -0.00083159     0.00065562
H        -0.95596907    -0.22492119     1.83457780     0.00083818    -0.00028528     0.00031033
H        -1.06952266     0.04668648    -0.53749172    -0.00101132    -0.00005657    -0.00132943
     6
  Step:    34            Position(A)                                  Velocity(au)
C        -0.03488910    -0.00662598    -0.12205273     0.00009696    -0.00001325    -0.00004360
N        -0.04840216    -0.01298450     1.42374517    -0.00007015     0.00008267     0.00012221
H         1.01813404     0.08161633    -0.58898233    -0.00010618     0.00014790    -0.00078660
H         0.88402542    -0.31188139     1.85913146     0.00019685    -0.00080001     0.00060901
H        -0.95156431    -0.22652080     1.83651366     0.00073485    -0.00028950     0.00038492
H        -1.07518135     0.04639359    -0.54508877    -0.00100605    -0.00004934    -0.00138605
     6
  Step:    35            Position(A)                                  Velocity(au)
C        -0.03433442    -0.00670904    -0.12209279     0.00010125    -0.00001644     0.00002731
N        -0.04874222    -0.01252835     1.42426315    -0.00005151     0.00008094     0.00006481
H         1.01733648     0.08252672    -0.59344912    -0.00018007     0.00017793    -0.00081407
H         0.88471159    -0.31625214     1.86238910     0.00004743    -0.00076632     0.00055659
H        -0.94776811    -0.22815198     1.83887349     0.00062331    -0.00029667     0.00046192
H        -1.08075017     0.04613587    -0.55296002    -0.00098145    -0.00004384    -0.00143046
     6
  Step:    36            Position(A)                                  Velocity(au)
C        -0.03376008    -0.00680928    -0.12174817     0.00010419    -0.00001945     0.00009462
N        -0.04897648    -0.01208199     1.42446780    -0.00003251     0.00007926     0.00000981
H         1.01612614     0.08360039    -0.59805963    -0.00025434     0.00020676    -0.00083945
H         0.88455434    -0.32042630     1.86533779    -0.00010428    -0.00073093     0.00049974
H        -0.94461411    -0.22982878     1.84166433     0.00050752    -0.00030583     0.00053917
H        -1.08612508     0.04590480    -0.56103922    -0.00093877    -0.00003966    -0.00146327
     6
  Step:    37            Position(A)                                  Velocity(au)
C        -0.03317348    -0.00692579    -0.12103850     0.00010583    -0.00002232     0.00015864
N        -0.04910442    -0.01164520     1.42437245    -0.00001360     0.00007759    -0.00004294
H         1.01450264     0.08483044    -0.60280234    -0.00032854     0.00023437    -0.00086269
H         0.88354968    -0.32439623     1.86795727    -0.00025564    -0.00069427     0.00043974
H        -0.94211333    -0.23155956     1.84488095     0.00039157    -0.00031592     0.00061440
H        -1.09120996     0.04569398    -0.56926387    -0.00087942    -0.00003646    -0.00148507
     6
  Step:    38            Position(A)                                  Velocity(au)
C        -0.03258171    -0.00705781    -0.11998172     0.00010620    -0.00002506     0.00021962
N        -0.04912796    -0.01121804     1.42398962     0.00000476     0.00007588    -0.00009356
H         1.01246800     0.08621006    -0.60766538    -0.00040221     0.00026078    -0.00088367
H         0.88170787    -0.32815678     1.87023417    -0.00040407    -0.00065680     0.00037780
H        -0.94025415    -0.23334645     1.84850550     0.00027947    -0.00032580     0.00068532
H        -1.09591711     0.04549883    -0.57757492    -0.00080489    -0.00003395    -0.00149637
     6
  Step:    39            Position(A)                                  Velocity(au)
C        -0.03199158    -0.00720471    -0.11859442     0.00010537    -0.00002770     0.00027773
N        -0.04905143    -0.01080080     1.42333129     0.00002217     0.00007407    -0.00014207
H         1.01002660     0.08773257    -0.61263630    -0.00047489     0.00028599    -0.00090224
H         0.87905293    -0.33170552     1.87216166    -0.00054708    -0.00061904     0.00031508
H        -0.93900327    -0.23518523     1.85250764     0.00017499    -0.00033432     0.00074970
H        -1.10016721     0.04531619    -0.58591632    -0.00071671    -0.00003190    -0.00149765
     6
  Step:    40            Position(A)                                  Velocity(au)
C        -0.03140954    -0.00736597    -0.11689227     0.00010340    -0.00003025     0.00033306
N        -0.04888137    -0.01039404     1.42240920     0.00003822     0.00007214    -0.00018849
H         1.00718533     0.08939135    -0.61770182    -0.00054609     0.00030998    -0.00091821
H         0.87562214    -0.33504293     1.87373915    -0.00068225    -0.00058152     0.00025272
H        -0.93830756    -0.23706537     1.85684517     0.00008151    -0.00034038     0.00080546
H        -1.10388977     0.04514398    -0.59423474    -0.00061651    -0.00003014    -0.00148937
     6
  Step:    41            Position(A)                                  Velocity(au)
C        -0.03084165    -0.00754114    -0.11489045     0.00010037    -0.00003272     0.00038566
N        -0.04862635    -0.00999851     1.42123507     0.00005258     0.00007005    -0.00023278
H         1.00395357     0.09117985    -0.62284763    -0.00061532     0.00033276    -0.00093138
H         0.87146572    -0.33817255     1.87497214    -0.00080722    -0.00054484     0.00019182
H        -0.93809678    -0.23897052     1.86146502     0.00000185    -0.00034299     0.00085072
H        -1.10702338     0.04498095    -0.60247937    -0.00050597    -0.00002855    -0.00147193
     6
  Step:    42            Position(A)                                  Velocity(au)
C        -0.03029351    -0.00772979    -0.11260396     0.00009635    -0.00003511     0.00043548
N        -0.04829672    -0.00961509     1.41982086     0.00006493     0.00006779    -0.00027484
H         1.00034333     0.09309148    -0.62805825    -0.00068206     0.00035430    -0.00094151
H         0.86664633    -0.34110123     1.87587203    -0.00091974    -0.00050960     0.00013345
H        -0.93828695    -0.24087923     1.86630471    -0.00006180    -0.00034132     0.00088395
H        -1.10951592     0.04482649    -0.61060177    -0.00038683    -0.00002703    -0.00144577
     6
  Step:    43            Position(A)                                  Velocity(au)
C        -0.02977029    -0.00793154    -0.11004805     0.00009143    -0.00003742     0.00048245
N        -0.04790431    -0.00924473     1.41817892     0.00007504     0.00006534    -0.00031460
H         0.99636926     0.09511956    -0.63331695    -0.00074582     0.00037457    -0.00094838
H         0.86123851    -0.34383917     1.87645603    -0.00101771    -0.00047644     0.00007867
H        -0.93878401    -0.24276591     1.87129419    -0.00010799    -0.00033473     0.00090394
H        -1.11132476     0.04468039    -0.61855581    -0.00026082    -0.00002551    -0.00141131
     6
  Step:    44            Position(A)                                  Velocity(au)
C        -0.02927666    -0.00814596    -0.10723844     0.00008571    -0.00003965     0.00052643
N        -0.04746212    -0.00888839     1.41632208     0.00008274     0.00006273    -0.00035193
H         0.99204868     0.09725723    -0.63860573    -0.00080610     0.00039352    -0.00095178
H         0.85532780    -0.34639998     1.87674693    -0.00109925    -0.00044598     0.00002847
H        -0.93948799    -0.24460194     1.87635790    -0.00013601    -0.00032279     0.00090993
H        -1.11241660     0.04454274    -0.62629766    -0.00012970    -0.00002396    -0.00136902
     6