     6
  Step:     0            Position(A)                                  Velocity(au)
C        -0.03286874     0.00929082     0.00938639    -0.00005898     0.00005941     0.00021916
N        -0.04022959    -0.05149971     1.31118497    -0.00011786     0.00011483    -0.00024922
H         0.90136667     0.03029095    -0.55710187    -0.00087389    -0.00064520     0.00071512
H         0.81116334    -0.11569921     1.83675081     0.00133517    -0.00060323     0.00124761
H        -0.96747502    -0.05032470     1.79472725     0.00128790    -0.00077065    -0.00093158
H        -1.00728255     0.07090308    -0.51487186     0.00059140    -0.00028461    -0.00017941
     6
  Step:     1            Position(A)                                  Velocity(au)
C        -0.03320005     0.00961806     0.01050705    -0.00006221     0.00006024     0.00018992
N        -0.04090829    -0.05087251     1.30989224    -0.00012739     0.00011432    -0.00022183
H         0.89674612     0.02678274    -0.55342570    -0.00080723    -0.00063743     0.00062364
H         0.81876328    -0.11903904     1.84390240     0.00141737    -0.00061591     0.00134905
H        -0.96025070    -0.05454753     1.78969263     0.00133615    -0.00077340    -0.00089909
H        -1.00410721     0.06935849    -0.51605455     0.00056525    -0.00027982    -0.00025398
     6
  Step:     2            Position(A)                                  Velocity(au)
C        -0.03354947     0.00995001     0.01146450    -0.00006549     0.00006106     0.00015938
N        -0.04162351    -0.05024880     1.30875764    -0.00013103     0.00011342    -0.00019137
H         0.89253388     0.02331616    -0.55027797    -0.00072441    -0.00062926     0.00052178
H         0.82667230    -0.12243853     1.85151222     0.00144717    -0.00062410     0.00141363
H        -0.95285482    -0.05878730     1.78488936     0.00134779    -0.00077606    -0.00084534
H        -1.00109751     0.06784131    -0.51765088     0.00053056    -0.00027427    -0.00032995
     6
  Step:     3            Position(A)                                  Velocity(au)
C        -0.03391709     0.01028656     0.01225212    -0.00006875     0.00006185     0.00012782
N        -0.04234292    -0.04963067     1.30779696    -0.00012885     0.00011217    -0.00015834
H         0.88881452     0.01989289    -0.54771264    -0.00062737    -0.00062097     0.00041105
H         0.83460850    -0.12587240     1.85938030     0.00142742    -0.00062770     0.00144267
H        -0.94549365    -0.06304462     1.78043690     0.00132133    -0.00077913    -0.00076974
H        -0.99829802     0.06635549    -0.51966717     0.00048840    -0.00026809    -0.00040664
     6
  Step:     4            Position(A)                                  Velocity(au)
C        -0.03430268     0.01062765     0.01286477    -0.00007195     0.00006265     0.00009550
N        -0.04303513    -0.04901991     1.30702292    -0.00012114     0.00011065    -0.00012335
H         0.88566079     0.01651322    -0.54577476    -0.00051854    -0.00061284     0.00029320
H         0.84231022    -0.12931523     1.86731719     0.00136258    -0.00062682     0.00143874
H        -0.93837909    -0.06732296     1.77645657     0.00125662    -0.00078321    -0.00067241
H        -0.99574694     0.06490433    -0.52210573     0.00044005    -0.00026141    -0.00048334
     6
  Step:     5            Position(A)                                  Velocity(au)
C        -0.03470566     0.01097327     0.01329881    -0.00007502     0.00006347     0.00006267
N        -0.04367070    -0.04841787     1.30644498    -0.00010834     0.00010895    -0.00008697
H         0.88313104     0.01317586    -0.54449897    -0.00040070    -0.00060518     0.00017021
H         0.84954310    -0.13274264     1.87514961     0.00125814    -0.00062176     0.00140523
H        -0.93172045    -0.07162905     1.77306697     0.00115498    -0.00078893    -0.00055430
H        -0.99347486     0.06349033    -0.52496488     0.00038699    -0.00025439    -0.00055940
     6
  Step:     6            Position(A)                                  Velocity(au)
C        -0.03512517     0.01132350     0.01355192    -0.00007791     0.00006431     0.00002956
N        -0.04422301    -0.04782541     1.30606940    -0.00009102     0.00010715    -0.00004973
H         0.88126748     0.00987796    -0.54390855    -0.00027684    -0.00059826     0.00004413
H         0.85610471    -0.13613227     1.88272434     0.00112003    -0.00061295     0.00134597
H        -0.92571568    -0.07597293     1.77037919     0.00101928    -0.00079688    -0.00041717
H        -0.99150397     0.06211519    -0.52823911     0.00033077    -0.00024718    -0.00063418
     6
  Step:     7            Position(A)                                  Velocity(au)
C        -0.03556003     0.01167846     0.01362301    -0.00008057     0.00006518    -0.00000364
N        -0.04466889    -0.04724288     1.30589965    -0.00006986     0.00010534    -0.00001208
H         0.88009517     0.00661526    -0.54401505    -0.00015005    -0.00059232    -0.00008297
H         0.86182542    -0.13946433     1.88990970     0.00095409    -0.00060089     0.00126489
H        -0.92054293    -0.08036766     1.76849224     0.00085381    -0.00080754    -0.00026358
H        -0.98984760     0.06077977    -0.53191933     0.00027299    -0.00023992    -0.00070707
     6
  Step:     8            Position(A)                                  Velocity(au)
C        -0.03600878     0.01203834     0.01351199    -0.00008296     0.00006611    -0.00003679
N        -0.04498910    -0.04667017     1.30593692    -0.00004558     0.00010361     0.00002562
H         0.87962194     0.00338236    -0.54481845    -0.00002337    -0.00058751    -0.00020908
H         0.86656766    -0.14272184     1.89659565     0.00076589    -0.00058607     0.00116578
H        -0.91635249    -0.08482870     1.76748867     0.00066420    -0.00082125    -0.00009682
H        -0.98851025     0.05948413    -0.53599314     0.00021520    -0.00023274    -0.00077752
     6
  Step:     9            Position(A)                                  Velocity(au)
C        -0.03646973     0.01240333     0.01321956    -0.00008503     0.00006707    -0.00006976
N        -0.04516869    -0.04610677     1.30618062    -0.00001898     0.00010200     0.00006313
H         0.87983893     0.00017310    -0.54630765     0.00010031    -0.00058390    -0.00033228
H         0.87022363    -0.14589069     1.90269277     0.00056047    -0.00056896     0.00105213
H        -0.91325976    -0.08937289     1.76743060     0.00045722    -0.00083814     0.00007917
H        -0.98748787     0.05822776    -0.54044502     0.00015888    -0.00022571    -0.00084495
     6
  Step:    10            Position(A)                                  Velocity(au)
C        -0.03694098     0.01277361     0.01274717    -0.00008674     0.00006806    -0.00010243
N        -0.04519715    -0.04555190     1.30662898     0.00000914     0.00010056     0.00010025
H         0.88072168    -0.00301896    -0.54846122     0.00021829    -0.00058147    -0.00045077
H         0.87271218    -0.14895941     1.90813031     0.00034237    -0.00054999     0.00092712
H        -0.91133993    -0.09401726     1.76835664     0.00024044    -0.00085806     0.00025994
H        -0.98676841     0.05700962    -0.54525641     0.00010542    -0.00021891    -0.00090878
     6
  Step:    11            Position(A)                                  Velocity(au)
C        -0.03742043     0.01314929     0.01209690    -0.00008805     0.00006906    -0.00013466
N        -0.04506852    -0.04500462     1.30727935     0.00003795     0.00009928     0.00013684
H         0.88223154    -0.00620006    -0.55124828     0.00032813    -0.00058012    -0.00056289
H         0.87397612    -0.15191883     1.91285439     0.00011571    -0.00052953     0.00079360
H        -0.91062444    -0.09877757     1.77027963     0.00002192    -0.00088062     0.00044068
H        -0.98633239     0.05582842    -0.55040564     0.00005609    -0.00021235    -0.00096838
     6
  Step:    12            Position(A)                                  Velocity(au)
C        -0.03790584     0.01353035     0.01127160    -0.00008894     0.00007003    -0.00016630
N        -0.04478133    -0.04446398     1.30812847     0.00006663     0.00009816     0.00017279
H         0.88431726    -0.00937577    -0.55462929     0.00042765    -0.00057963    -0.00066709
H         0.87398014    -0.15476187     1.91682642    -0.00011560    -0.00050789     0.00065422
H        -0.91109974    -0.10366690     1.77318549    -0.00019018    -0.00090514     0.00061642
H        -0.98615373     0.05468277    -0.55586774     0.00001205    -0.00020601    -0.00102306
     6
  Step:    13            Position(A)                                  Velocity(au)
C        -0.03839489     0.01391658     0.01027498    -0.00008939     0.00007095    -0.00019714
N        -0.04433854    -0.04392916     1.30917239     0.00009438     0.00009717     0.00020792
H         0.88691678    -0.01255046    -0.55855691     0.00051497    -0.00057974    -0.00076196
H         0.87270961    -0.15748321     1.92002202    -0.00034774    -0.00048536     0.00051155
H        -0.91270808    -0.10869417     1.77703306    -0.00038800    -0.00093070     0.00078224
H        -0.98620043     0.05357136    -0.56161417    -0.00002571    -0.00019987    -0.00107206
     6
  Step:    14            Position(A)                                  Velocity(au)
C        -0.03888514     0.01430757     0.00911191    -0.00008938     0.00007174    -0.00022693
N        -0.04374732    -0.04339951     1.31040629     0.00012045     0.00009625     0.00024202
H         0.88995896    -0.01572696    -0.56297675     0.00058855    -0.00058008    -0.00084617
H         0.87017055    -0.16007919     1.92243058    -0.00057674    -0.00046225     0.00036815
H        -0.91535046    -0.11386299     1.78175519    -0.00056437    -0.00095619     0.00093349
H        -0.98643542     0.05249313    -0.56761250    -0.00005631    -0.00019385    -0.00111459
     6
  Step:    15            Position(A)                                  Velocity(au)
C        -0.03937416     0.01470262     0.00778866    -0.00008890     0.00007237    -0.00025536
N        -0.04301881    -0.04287464     1.31182408     0.00014412     0.00009535     0.00027478
H         0.89336522    -0.01890615    -0.56782802     0.00064712    -0.00058028    -0.00091858
H         0.86639054    -0.16254787     1.92405568    -0.00079835    -0.00043887     0.00022678
H        -0.91889157    -0.11917069     1.78726087    -0.00071314    -0.00098037     0.00106599
H        -0.98681744     0.05144741    -0.57382620    -0.00007906    -0.00018788    -0.00114983
     6
  Step:    16            Position(A)                                  Velocity(au)
C        -0.03985946     0.01510073     0.00631321    -0.00008795     0.00007277    -0.00028207
N        -0.04216782    -0.04235448     1.31341790     0.00016473     0.00009442     0.00030581
H         0.89705140    -0.02208681    -0.57304434     0.00068982    -0.00057992    -0.00097818
H         0.86142064    -0.16488918     1.92491604    -0.00100794    -0.00041561     0.00009040
H        -0.92316639    -0.12460780     1.79343841    -0.00082952    -0.00100194     0.00117626
H        -0.98730196     0.05043400    -0.58021454    -0.00009345    -0.00018185    -0.00117697
     6
  Step:    17            Position(A)                                  Velocity(au)
C        -0.04033864     0.01550060     0.00469549    -0.00008655     0.00007289    -0.00030668
N        -0.04121245    -0.04183919     1.31517759     0.00018171     0.00009343     0.00033463
H         0.90092972    -0.02526546    -0.57855467     0.00071617    -0.00057858    -0.00102422
H         0.85533760    -0.16710534     1.92504699    -0.00120048    -0.00039293    -0.00003773
H        -0.92798803    -0.13015788     1.80015956    -0.00091028    -0.00101966     0.00126164
H        -0.98784224     0.04945322    -0.58673274    -0.00009919    -0.00017569    -0.00119532
     6
  Step:    18            Position(A)                                  Velocity(au)
C        -0.04080934     0.01590061     0.00294755    -0.00008472     0.00007267    -0.00032879
N        -0.04017368    -0.04132916     1.31709022     0.00019458     0.00009233     0.00036067
H         0.90491094    -0.02843640    -0.58428453     0.00072613    -0.00057590    -0.00105620
H         0.84824616    -0.16920135     1.92450200    -0.00137064    -0.00037142    -0.00015411
H        -0.93315611    -0.13579796     1.80728409    -0.00095376    -0.00103240     0.00132043
H        -0.98839049     0.04850593    -0.59333239    -0.00009621    -0.00016929    -0.00120429
     6
  Step:    19            Position(A)                                  Velocity(au)
C        -0.04126936     0.01629888     0.00108362    -0.00008249     0.00007207    -0.00034800
N        -0.03907487    -0.04082490     1.31913972     0.00020297     0.00009112     0.00038337
H         0.90890656    -0.03159196    -0.59015741     0.00072007    -0.00057155    -0.00107391
H         0.84028056    -0.17118551     1.92335399    -0.00151300    -0.00035174    -0.00025511
H        -0.93846547    -0.14149922     1.81466497    -0.00096000    -0.00103925     0.00135195
H        -0.98889918     0.04759350    -0.59996228    -0.00008474    -0.00016258    -0.00120352
     6
  Step:    20            Position(A)                                  Velocity(au)
C        -0.04171664     0.01669330    -0.00088002    -0.00007989     0.00007107    -0.00036399
N        -0.03794125    -0.04032692     1.32130676     0.00020661     0.00008982     0.00040214
H         0.91283075    -0.03472271    -0.59609618     0.00069876    -0.00056530    -0.00107751
H         0.83160520    -0.17307007     1.92169617    -0.00162224    -0.00033468    -0.00033705
H        -0.94371480    -0.14722831     1.82215374    -0.00093054    -0.00103957     0.00135654
H        -0.98932248     0.04671774    -0.60656953    -0.00006523    -0.00015551    -0.00119293
     6
  Step:    21            Position(A)                                  Velocity(au)
C        -0.04214927     0.01708159    -0.00292536    -0.00007697     0.00006964    -0.00037651
N        -0.03679926    -0.03983562     1.32356887     0.00020538     0.00008846     0.00041650
H         0.91660256    -0.03781804    -0.60202491     0.00066338    -0.00055701    -0.00106749
H         0.82241346    -0.17487166     1.91964174    -0.00169363    -0.00032107    -0.00039655
H        -0.94871425    -0.15294883     1.82960570    -0.00086825    -0.00103304     0.00133549
H        -0.98961763     0.04588079    -0.61310106    -0.00003842    -0.00014803    -0.00117274
     6
  Step:    22            Position(A)                                  Velocity(au)
C        -0.04256559     0.01746141    -0.00503302    -0.00007376     0.00006779    -0.00038539
N        -0.03567589    -0.03935114     1.32590084     0.00019927     0.00008711     0.00042604
H         0.92014806    -0.04086665    -0.60787089     0.00061550    -0.00054667    -0.00104475
H         0.81292394    -0.17661156     1.91732206    -0.00172337    -0.00031175    -0.00043072
H        -0.95329185    -0.15862310     1.83688463    -0.00077707    -0.00101972     0.00129094
H        -0.98974628     0.04508497    -0.61950525    -0.00000525    -0.00014013    -0.00114350
     6
  Step:    23            Position(A)                                  Velocity(au)
C        -0.04296416     0.01783046    -0.00718290    -0.00007033     0.00006554    -0.00039061
N        -0.03459789    -0.03887331     1.32827544     0.00018844     0.00008583     0.00043054
H         0.92340219    -0.04385726    -0.61356660     0.00055693    -0.00053440    -0.00101052
H         0.80337489    -0.17831562     1.91488348    -0.00170897    -0.00030751    -0.00043744
H        -0.95729881    -0.16421403     1.84386717    -0.00066170    -0.00099999     0.00122572
H        -0.98967562     0.04433268    -0.62573369     0.00003318    -0.00013185    -0.00110608
     6
  Step:    24            Position(A)                                  Velocity(au)
C        -0.04334378     0.01818653    -0.00935480    -0.00006673     0.00006293    -0.00039228
N        -0.03359099    -0.03840150     1.33066433     0.00017319     0.00008472     0.00042996
H         0.92630993    -0.04677926    -0.61905136     0.00048963    -0.00052043    -0.00096630
H         0.79401579    -0.18001382     1.91248223    -0.00164968    -0.00030901    -0.00041568
H        -0.96061290    -0.16968703     1.85044611    -0.00052720    -0.00097455     0.00114314
H        -0.98937920     0.04362622    -0.63174296     0.00007565    -0.00012320    -0.00106162
     6
  Step:    25            Position(A)                                  Velocity(au)
C        -0.04370351     0.01852766    -0.01152923    -0.00006300     0.00006000    -0.00039062
N        -0.03267901    -0.03793464     1.33303925     0.00015396     0.00008386     0.00042449
H         0.92882705    -0.04962337    -0.62427276     0.00041562    -0.00050506    -0.00091376
H         0.78509709    -0.18173933     1.91027795    -0.00154669    -0.00031670    -0.00036566
H        -0.96313994    -0.17501160     1.85653265    -0.00037868    -0.00094435     0.00104674
H        -0.98883745     0.04296767    -0.63749602     0.00012093    -0.00011426    -0.00101150
     6
  Step:    26            Position(A)                                  Velocity(au)
C        -0.04404264     0.01885215    -0.01368795    -0.00005918     0.00005683    -0.00038596
N        -0.03188311    -0.03747125     1.33537316     0.00013131     0.00008333     0.00041448
H         0.93092039    -0.05238194    -0.62918767     0.00033686    -0.00048871    -0.00085468
H         0.77685840    -0.18352700     1.90842597    -0.00140308    -0.00033078    -0.00028892
H        -0.96481364    -0.18016264     1.86205757    -0.00022109    -0.00091053     0.00094015
H        -0.98803777     0.04235870    -0.64296350     0.00016781    -0.00010509    -0.00095718
     6
  Step:    27            Position(A)                                  Velocity(au)
C        -0.04436065     0.01915862    -0.01581468    -0.00005532     0.00005346    -0.00037869
N        -0.03122106    -0.03700942     1.33764137     0.00010588     0.00008319     0.00040045
H         0.93256735    -0.05504978    -0.63376260     0.00025513    -0.00047183    -0.00079078
H         0.76951813    -0.18541209     1.90706996    -0.00122368    -0.00035113    -0.00018825
H        -0.96559475    -0.18512157     1.86697156    -0.00005891    -0.00087432     0.00082684
H        -0.98697415     0.04180078    -0.64812405     0.00021523    -0.00009574    -0.00090015
     6
  Step:    28            Position(A)                                  Velocity(au)
C        -0.04465724     0.01944605    -0.01789534    -0.00005143     0.00004995    -0.00036924
N        -0.03070675    -0.03654699     1.33982234     0.00007840     0.00008348     0.00038305
H         0.93375499    -0.05762415    -0.63797352     0.00017198    -0.00045485    -0.00072368
H         0.76326294    -0.18742823     1.90633444    -0.00101489    -0.00037732    -0.00006763
H        -0.96546810    -0.18987665     1.87124406     0.00010396    -0.00083696     0.00070996
H        -0.98564655     0.04129504    -0.65296451     0.00026220    -0.00008624    -0.00084180
     6
  Step:    29            Position(A)                                  Velocity(au)
C        -0.04493217     0.01971374    -0.01991816    -0.00004752     0.00004636    -0.00035800
N        -0.03034977    -0.03608163     1.34189835     0.00004962     0.00008423     0.00036295
H         0.93447867    -0.06010471    -0.64180505     0.00008868    -0.00043816    -0.00065474
H         0.75823934    -0.18960543     1.90631836    -0.00078424    -0.00040855     0.00006803
H        -0.96443937    -0.19442302     1.87486155     0.00026424    -0.00079959     0.00059223
H        -0.98406025     0.04084240    -0.65747930     0.00030790    -0.00007662    -0.00078335
     6
  Step:    30            Position(A)                                  Velocity(au)
C        -0.04518527     0.01996123    -0.02187360    -0.00004359     0.00004272    -0.00034532
N        -0.03015530    -0.03561100     1.34385569     0.00002031     0.00008541     0.00034085
H         0.93474050    -0.06249326    -0.64524929     0.00000623    -0.00042209    -0.00058508
H         0.75454805    -0.19196828     1.90709039    -0.00053997    -0.00044372     0.00021314
H        -0.96253176    -0.19876218     1.87782527     0.00041917    -0.00076324     0.00047599
H        -0.98222501     0.04044364    -0.66166950     0.00035162    -0.00006687    -0.00072580
     6
  Step:    31            Position(A)                                  Velocity(au)
C        -0.04541634     0.02018831    -0.02375409    -0.00003962     0.00003906    -0.00033149
N        -0.03012411    -0.03513292     1.34568464    -0.00000877     0.00008697     0.00031740
H         0.93454784    -0.06479344    -0.64830432    -0.00007462    -0.00040689    -0.00051558
H         0.75224119    -0.19453439     1.90868600    -0.00029057    -0.00048147     0.00036178
H        -0.95978307    -0.20290135     1.88014895     0.00056644    -0.00072880     0.00036316
H        -0.98015441     0.04009959    -0.66554164     0.00039272    -0.00005697    -0.00066991
     6
  Step:    32            Position(A)                                  Velocity(au)
C        -0.04562510     0.02039489    -0.02555359    -0.00003559     0.00003540    -0.00031672
N        -0.03025268    -0.03464549     1.34737917    -0.00003691     0.00008887     0.00029316
H         0.93391211    -0.06701026    -0.65097285    -0.00015326    -0.00039274    -0.00044686
H         0.75132231    -0.19731316     1.91110660    -0.00004440    -0.00052025     0.00050795
H        -0.95624355    -0.20685270     1.88185680     0.00070397    -0.00069701     0.00025540
H        -0.97786534     0.03981122    -0.66910637     0.00043064    -0.00004686    -0.00061626
     6
  Step:    33            Position(A)                                  Velocity(au)
C        -0.04581110     0.02058098    -0.02726725    -0.00003146     0.00003174    -0.00030115
N        -0.03053351    -0.03414714     1.34893643    -0.00006342     0.00009103     0.00026864
H         0.93284781    -0.06914974    -0.65326099    -0.00022921    -0.00037973    -0.00037940
H         0.75174870    -0.20030513     1.91432032     0.00019073    -0.00055843     0.00064592
H        -0.95197445    -0.21063266     1.88298194     0.00082982    -0.00066855     0.00015416
H        -0.97537772     0.03957984    -0.67237730     0.00046482    -0.00003647    -0.00056521
     6
  Step:    34            Position(A)                                  Velocity(au)
C        -0.04597376     0.02074661    -0.02889097    -0.00002609     0.00002996    -0.00032823
N        -0.03095549    -0.03363671     1.35035621    -0.00008865     0.00009338     0.00027724
H         0.93137206    -0.07121846    -0.65517730    -0.00033454    -0.00042581    -0.00027248
H         0.75343603    -0.20350168     1.91826470     0.00040492    -0.00054161     0.00076620
H        -0.94704752    -0.21426159     1.88356523     0.00096173    -0.00071140     0.00003973
H        -0.97271425     0.03940710    -0.67536998     0.00051065     0.00002420    -0.00047491
     6
  Step:    35            Position(A)                                  Velocity(au)
C        -0.04610000     0.02091269    -0.03090132    -0.00001903     0.00003017    -0.00040099
N        -0.03151499    -0.03311330     1.35200600    -0.00011234     0.00009546     0.00032211
H         0.92914378    -0.07386425    -0.65627781    -0.00046920    -0.00052004    -0.00012489
H         0.75623190    -0.20630171     1.92280358     0.00059127    -0.00047828     0.00085822
H        -0.94132634    -0.21850920     1.88342177     0.00109921    -0.00081234    -0.00008751
H        -0.96972392     0.03984783    -0.67763542     0.00056651     0.00012466    -0.00034379
     6
  Step:    36            Position(A)                                  Velocity(au)
C        -0.04618427     0.02108037    -0.03332734    -0.00001120     0.00003045    -0.00047602
N        -0.03219834    -0.03258062     1.35391990    -0.00013311     0.00009703     0.00037061
H         0.92618099    -0.07697199    -0.65655899    -0.00059861    -0.00059833     0.00002129
H         0.75997755    -0.20879314     1.92775969     0.00074815    -0.00042539     0.00092052
H        -0.93488633    -0.22324894     1.88259709     0.00121954    -0.00089684    -0.00020489
H        -0.96644665     0.04078629    -0.67917348     0.00061409     0.00020927    -0.00021468
     6
  Step:    37            Position(A)                                  Velocity(au)
C        -0.04622387     0.02124943    -0.03616531    -0.00000297     0.00003064    -0.00054907
N        -0.03298694    -0.03204028     1.35610425    -0.00015022     0.00009835     0.00041917
H         0.92252419    -0.08048072    -0.65604236    -0.00071912    -0.00066709     0.00016235
H         0.76450511    -0.21100581     1.93298295     0.00087379    -0.00037571     0.00095595
H        -0.92784029    -0.22842670     1.88115605     0.00131678    -0.00097373    -0.00030924
H        -0.96293311     0.04216198    -0.68000945     0.00065140     0.00028465    -0.00009122
     6
  Step:    38            Position(A)                                  Velocity(au)
C        -0.04621714     0.02141918    -0.03939810     0.00000549     0.00003068    -0.00061803
N        -0.03385919    -0.03149324     1.35855442    -0.00016317     0.00009949     0.00046610
H         0.91823018    -0.08434760    -0.65476403    -0.00082772    -0.00072880     0.00029564
H         0.76963850    -0.21294709     1.93832902     0.00096699    -0.00032609     0.00096540
H        -0.92032750    -0.23401489     1.87917808     0.00138634    -0.00104672    -0.00039789
H        -0.95924453     0.04393345    -0.68018207     0.00067652     0.00035334     0.00002425
     6
  Step:    39            Position(A)                                  Velocity(au)
C        -0.04616320     0.02158873    -0.04299940     0.00001403     0.00003054    -0.00068136
N        -0.03479129    -0.03094010     1.36125833    -0.00017164     0.00010054     0.00051016
H         0.91337141    -0.08853960    -0.65277322    -0.00092151    -0.00078486     0.00041870
H         0.77519787    -0.21461163     1.94365813     0.00102748    -0.00027479     0.00094995
H        -0.91251045    -0.24000114     1.87675631     0.00142433    -0.00111816    -0.00046846
H        -0.95545232     0.04606919    -0.67974130     0.00068767     0.00041677     0.00012968
     6
  Step:    40            Position(A)                                  Velocity(au)
C        -0.04606196     0.02175706    -0.04693558     0.00002250     0.00003021    -0.00073786
N        -0.03575792    -0.03038108     1.36419793    -0.00017542     0.00010155     0.00055034
H         0.90803613    -0.09302997    -0.65013219    -0.00099768    -0.00083632     0.00052915
H         0.78100484    -0.21598695     1.94883762     0.00105606    -0.00022093     0.00091128
H        -0.90457113    -0.24638433     1.87399588     0.00142783    -0.00118986    -0.00051902
H        -0.95163725     0.04854386    -0.67874747     0.00068336     0.00047583     0.00022321
     6
  Step:    41            Position(A)                                  Velocity(au)
C        -0.04591414     0.02192319    -0.05116700     0.00003075     0.00002971    -0.00078658
N        -0.03673309    -0.02981597     1.36735024    -0.00017450     0.00010264     0.00058588
H         0.90232768    -0.09779715    -0.64691586    -0.00105360    -0.00088406     0.00062471
H         0.78688779    -0.21705718     1.95374540     0.00105455    -0.00016420     0.00085175
H        -0.89670523    -0.25317218     1.87101105     0.00139514    -0.00126332    -0.00054830
H        -0.94788797     0.05133633    -0.67727047     0.00066239     0.00053120     0.00030320
     6
  Step:    42            Position(A)                                  Velocity(au)
C        -0.04572136     0.02208622    -0.05564952     0.00003859     0.00002906    -0.00082693
N        -0.03769103    -0.02924403     1.37068845    -0.00016902     0.00010389     0.00061624
H         0.89636406    -0.10282378    -0.64321146    -0.00108695    -0.00092889     0.00070339
H         0.79268739    -0.21780595     1.95827348     0.00102569    -0.00010472     0.00077429
H        -0.88911546    -0.26037969     1.86792163     0.00132602    -0.00133977    -0.00055585
H        -0.94429912     0.05442858    -0.67538855     0.00062407     0.00058340     0.00036836
     6
  Step:    43            Position(A)                                  Velocity(au)
C        -0.04548619     0.02224542    -0.06033606     0.00004588     0.00002830    -0.00085859
N        -0.03860718    -0.02866405     1.37418319    -0.00015932     0.00010540     0.00064115
H         0.89027545    -0.10809682    -0.63911665    -0.00109592    -0.00097176     0.00076356
H         0.79826072    -0.21821828     1.96233080     0.00097290    -0.00004294     0.00068222
H        -0.88200221    -0.26802763     1.86484777     0.00122200    -0.00142014    -0.00054223
H        -0.94096826     0.05780511    -0.67318601     0.00056825     0.00063295     0.00041790
     6
  Step:    44            Position(A)                                  Velocity(au)
C        -0.04521220     0.02240033    -0.06517830     0.00005242     0.00002749    -0.00088158
N        -0.03945916    -0.02807434     1.37780397    -0.00014589     0.00010724     0.00066056
H         0.88420136    -0.11360846    -0.63473737    -0.00107926    -0.00101365     0.00080410
H         0.80348480    -0.21828248     1.96584489     0.00090010     0.00002049     0.00057906
H        -0.87555355    -0.27614064     1.86190394     0.00108636    -0.00150505    -0.00050907
H        -0.93799257     0.06145310    -0.67075067     0.00049541     0.00068034     0.00045150
     6