     6
  Step:   600            Position(A)                                  Velocity(au)
C         0.00509056     0.00150194    -0.05694038     0.00007047    -0.00052463     0.00063196
N        -0.08541804    -0.11617490     1.36423896    -0.00039631     0.00007831    -0.00117082
H         1.12179916     0.37247084    -0.25965101    -0.00218968     0.00004837     0.00431080
H         0.76928887    -0.23450260     1.63769030     0.00349158     0.00366585    -0.00099539
H        -0.67275536     0.82527248     1.24298196     0.00219325    -0.00011909     0.00479277
H        -1.30494283    -0.03624681    -0.00877074     0.00117253     0.00156824     0.00063155
