     6
  Step:     0            Position(A)                                  Velocity(au)
C        -0.03951783     0.03155055     0.03015677    -0.00009188     0.00002167     0.00023082
N        -0.03281618    -0.07218407     1.28496509     0.00023054    -0.00002538    -0.00018312
H         0.88996905    -0.08186841    -0.53487681    -0.00044614    -0.00001253     0.00017598
H         0.74404770    -0.09264156     1.89922975    -0.00180648    -0.00001726    -0.00121384
H        -0.92258905     0.09519977     1.83356525    -0.00101243     0.00040818     0.00044947
H        -0.99744399     0.03666976    -0.52155335     0.00115620    -0.00028394     0.00038262
     6
  Step:     1            Position(A)                                  Velocity(au)
C        -0.04001522     0.03169117     0.03099569    -0.00008935     0.00002992     0.00007469
N        -0.03162486    -0.07237192     1.28431979     0.00020222    -0.00004306    -0.00005230
H         0.88772606    -0.08184428    -0.53394455    -0.00037416     0.00002098     0.00016253
H         0.73486179    -0.09260769     1.89284116    -0.00152507     0.00002834    -0.00109996
H        -0.92798021     0.09752832     1.83588094    -0.00094620     0.00043973     0.00039103
H        -0.99125219     0.03521793    -0.51944214     0.00109997    -0.00024723     0.00038315
     6
  Step:     2            Position(A)                                  Velocity(au)
C        -0.04049521     0.03187786     0.03097379    -0.00008566     0.00003871    -0.00008408
N        -0.03060408    -0.07265512     1.28439300     0.00016860    -0.00005993     0.00007968
H         0.88587604    -0.08163885    -0.53309883    -0.00030533     0.00005247     0.00014348
H         0.72736465    -0.09233156     1.88719711    -0.00119250     0.00006915    -0.00094197
H        -0.93293975     0.10001010     1.83784281    -0.00085624     0.00046262     0.00032237
H        -0.98541119     0.03396529    -0.51736200     0.00103180    -0.00021270     0.00037077
     6
  Step:     3            Position(A)                                  Velocity(au)
C        -0.04095224     0.03211461     0.03007594    -0.00008104     0.00004842    -0.00024456
N        -0.02978048    -0.07302751     1.28519141     0.00013062    -0.00007540     0.00021210
H         0.88438589    -0.08127025    -0.53237502    -0.00024232     0.00007894     0.00011793
H         0.72181666    -0.09185124     1.88253663    -0.00081646     0.00010121    -0.00074335
H        -0.93734695     0.10258904     1.83940746    -0.00074670     0.00047422     0.00024704
H        -0.97996500     0.03289118    -0.51538620     0.00095604    -0.00018363     0.00034513
     6
  Step:     4            Position(A)                                  Velocity(au)
C        -0.04138162     0.03240746     0.02829883    -0.00007551     0.00005913    -0.00040397
N        -0.02917541    -0.07347979     1.28671293     0.00008916    -0.00008914     0.00034294
H         0.88322563    -0.08077547    -0.53180898    -0.00018268     0.00009842     0.00008639
H         0.71843436    -0.09122452     1.87906642    -0.00040509     0.00012321    -0.00051156
H        -0.94110705     0.10519710     1.84054487    -0.00062190     0.00047399     0.00016676
H        -0.97495419     0.03195682    -0.51358705     0.00087032    -0.00016150     0.00030643
     6
  Step:     5            Position(A)                                  Velocity(au)
C        -0.04177804     0.03276130     0.02565790    -0.00006889     0.00007045    -0.00055890
N        -0.02880531    -0.07400243     1.28894205     0.00004519    -0.00010124     0.00046982
H         0.88238801    -0.08019385    -0.53143022    -0.00012281     0.00011147     0.00005001
H         0.71738632    -0.09050376     1.87694191     0.00003147     0.00013720    -0.00025668
H        -0.94414845     0.10777288     1.84123128    -0.00048555     0.00046368     0.00008284
H        -0.97044661     0.03112494    -0.51203484     0.00076983    -0.00014500     0.00025494
     6
  Step:     6            Position(A)                                  Velocity(au)
C        -0.04213519     0.03317805     0.02218555    -0.00006104     0.00008181    -0.00070616
N        -0.02868112    -0.07458715     1.29185184    -0.00000016    -0.00011184     0.00059059
H         0.88188236    -0.07955619    -0.53126202    -0.00006054     0.00011959     0.00000978
H         0.71877862    -0.08972381     1.87625886     0.00047987     0.00014614     0.00000964
H        -0.94641803     0.11026883     1.84145093    -0.00034101     0.00044549    -0.00000289
H        -0.96653379     0.03037079    -0.51079849     0.00065128    -0.00013191     0.00019100
     6
  Step:     7            Position(A)                                  Velocity(au)
C        -0.04244606     0.03365668     0.01792950    -0.00005186     0.00009268    -0.00084254
N        -0.02880710    -0.07522646     1.29540566    -0.00004549    -0.00012099     0.00070315
H         0.88172546    -0.07888508    -0.53132314     0.00000487     0.00012395    -0.00003346
H         0.72263811    -0.08890432     1.87704736     0.00092351     0.00015232     0.00027452
H        -0.94788060     0.11264840     1.84119962    -0.00019195     0.00042104    -0.00008790
H        -0.96331887     0.02968127    -0.50994446     0.00051359    -0.00012039     0.00011542
     6
  Step:     8            Position(A)                                  Velocity(au)
C        -0.04270342     0.03419357     0.01295344    -0.00004138     0.00010255    -0.00096462
N        -0.02917954    -0.07591287     1.29955653    -0.00008913    -0.00012858     0.00080513
H         0.88193574    -0.07819799    -0.53162864     0.00007322     0.00012527    -0.00007894
H         0.72889792    -0.08805480     1.87926695     0.00134338     0.00015716     0.00052439
H        -0.94852131     0.11488238     1.84048773    -0.00004273     0.00039152    -0.00016910
H        -0.96090612     0.02905160    -0.50953375     0.00035774    -0.00010918     0.00002976
     6
  Step:     9            Position(A)                                  Velocity(au)
C        -0.04290039     0.03478263     0.00733855    -0.00002976     0.00011097    -0.00106878
N        -0.02978567    -0.07663818     1.30424547    -0.00012928    -0.00013443     0.00089391
H         0.88252941    -0.07750964    -0.53218984     0.00014362     0.00012393    -0.00012579
H         0.73738763    -0.08717884     1.88280483     0.00171937     0.00016143     0.00074580
H        -0.94834972     0.11694701     1.83934298     0.00010143     0.00035792    -0.00024294
H        -0.95939106     0.02848251    -0.50961767     0.00018670    -0.00009748    -0.00006351
     6
  Step:    10            Position(A)                                  Velocity(au)
C        -0.04303116     0.03541547     0.00118467    -0.00001732     0.00011752    -0.00115156
N        -0.03060305    -0.07739315     1.30939972    -0.00016411    -0.00013835     0.00096679
H         0.88351722    -0.07683334    -0.53301380     0.00021460     0.00012015    -0.00017304
H         0.74783061    -0.08627719     1.88747922     0.00203225     0.00016545     0.00092678
H        -0.94740446     0.11882362     1.83781263     0.00023455     0.00032138    -0.00030564
H        -0.95885034     0.02797825    -0.51023304     0.00000542    -0.00008481    -0.00016101
     6
  Step:    11            Position(A)                                  Velocity(au)
C        -0.04309182     0.03608162    -0.00539059    -0.00000449     0.00012188    -0.00121021
N        -0.03159966    -0.07816744     1.31493227    -0.00019199    -0.00014017     0.00102145
H         0.88490153    -0.07618153    -0.53410255     0.00028424     0.00011415    -0.00021959
H         0.75985175    -0.08535001     1.89304935     0.00226622     0.00016919     0.00105833
H        -0.94575702     0.12049953     1.83596447     0.00035038     0.00028327    -0.00035358
H        -0.95933113     0.02754503    -0.51139741    -0.00017933    -0.00007100    -0.00025867
     6
  Step:    12            Position(A)                                  Velocity(au)
C        -0.04308104     0.03676899    -0.01225554     0.00000818     0.00012389    -0.00124349
N        -0.03273525    -0.07894987     1.32074361    -0.00021178    -0.00013990     0.00105654
H         0.88667393    -0.07556568    -0.53545247     0.00035049     0.00010622    -0.00026438
H         0.77299842    -0.08439827     1.89923271     0.00241167     0.00017250     0.00113578
H        -0.94351327     0.12196955     1.83388585     0.00044311     0.00024525    -0.00038384
H        -0.96084197     0.02718971    -0.51310572    -0.00035980    -0.00005611    -0.00035225
     6
  Step:    13            Position(A)                                  Velocity(au)
C        -0.04300055     0.03746468    -0.01927250     0.00002013     0.00012363    -0.00125244
N        -0.03396387    -0.07972928     1.32672721    -0.00022301    -0.00013774     0.00107249
H         0.88881433    -0.07499568    -0.53705400     0.00041153     0.00009683    -0.00030653
H         0.78677495    -0.08342428     1.90572884     0.00246756     0.00017528     0.00115979
H        -0.94081023     0.12323747     1.83167942     0.00050849     0.00020919    -0.00039478
H        -0.96334781     0.02691864    -0.51532981    -0.00052844    -0.00004036    -0.00043809
     6
  Step:    14            Position(A)                                  Velocity(au)
C        -0.04285516     0.03815632    -0.02631048     0.00003091     0.00012143    -0.00124089
N        -0.03523786    -0.08049560     1.33277917    -0.00022611    -0.00013414     0.00107194
H         0.89129218    -0.07447904    -0.53889237     0.00046630     0.00008655    -0.00034558
H         0.80068944    -0.08243122     1.91224790     0.00244227     0.00017764     0.00113644
H        -0.93780697     0.12431707     1.82945562     0.00054469     0.00017692    -0.00038648
H        -0.96677211     0.02673676    -0.51802196    -0.00067951    -0.00002408    -0.00051390
     6
  Step:    15            Position(A)                                  Velocity(au)
C        -0.04265208     0.03883347    -0.03325986     0.00004028     0.00011787    -0.00121492
N        -0.03651261    -0.08124129     1.33881013    -0.00022227    -0.00012974     0.00105946
H         0.89407048    -0.07402007    -0.54094936     0.00051475     0.00007602    -0.00038154
H         0.81430430    -0.08142194     1.91853882     0.00235176     0.00017992     0.00107572
H        -0.93467047     0.12523175     1.82732294     0.00055256     0.00015001    -0.00036061
H        -0.97100729     0.02664718    -0.52112251    -0.00081023    -0.00000756    -0.00057918
     6
  Step:    16            Position(A)                                  Velocity(au)
C        -0.04239986     0.03948880    -0.04004447     0.00004817     0.00011358    -0.00118144
N        -0.03775053    -0.08196228     1.34475578    -0.00021307    -0.00012525     0.00104047
H         0.89711116    -0.07361966    -0.54320550     0.00055783     0.00006580    -0.00041503
H         0.82727484    -0.08039737     1.92440836     0.00221492     0.00018267     0.00098883
H        -0.93156058     0.12601282     1.82537916     0.00053491     0.00012947    -0.00031964
H        -0.97593134     0.02665133    -0.52456932    -0.00092073     0.00000906    -0.00063486
     6
  Step:    17            Position(A)                                  Velocity(au)
C        -0.04210714     0.04011849    -0.04662602     0.00005469     0.00010910    -0.00114632
N        -0.03892317    -0.08265826     1.35058146    -0.00020000    -0.00012120     0.00101965
H         0.90038140    -0.07327565    -0.54564477     0.00059688     0.00005626    -0.00044704
H         0.83936262    -0.07935537     1.92972590     0.00204830     0.00018640     0.00088538
H        -0.92861877     0.12669648     1.82370676     0.00049506     0.00011573    -0.00026595
H        -0.98142390     0.02674967    -0.52830490    -0.00101272     0.00002578    -0.00068229
     6
  Step:    18            Position(A)                                  Velocity(au)
C        -0.04178183     0.04072167    -0.05299818     0.00005998     0.00010472    -0.00111302
N        -0.04001056    -0.08333188     1.35627815    -0.00018411    -0.00011790     0.00099976
H         0.90385608    -0.07298386    -0.54825716     0.00063281     0.00004758    -0.00047831
H         0.85042121    -0.07829095     1.93441339     0.00186306     0.00019142     0.00077195
H        -0.92596629     0.12732061     1.82237382     0.00043571     0.00010870    -0.00020128
H        -0.98737539     0.02694262    -0.53227938    -0.00108788     0.00004273    -0.00072262
     6
  Step:    19            Position(A)                                  Velocity(au)
C        -0.04143101     0.04129906    -0.05917334     0.00006410     0.00010052    -0.00108257
N        -0.04099863    -0.08398734     1.36185199    -0.00016599    -0.00011537     0.00098152
H         0.90751522    -0.07273924    -0.55103688     0.00066555     0.00003978    -0.00050890
H         0.86036527    -0.07719743     1.93842824     0.00166512     0.00019772     0.00065243
H        -0.92370697     0.12792189     1.82143772     0.00035894     0.00010790    -0.00012682
H        -0.99368779     0.02723141    -0.53645109    -0.00114672     0.00006008    -0.00075623
     6
  Step:    20            Position(A)                                  Velocity(au)
C        -0.04106120     0.04185177    -0.06516914     0.00006707     0.00009641    -0.00105440
N        -0.04187676    -0.08462898     1.36731298    -0.00014601    -0.00011350     0.00096427
H         0.91133862    -0.07253665    -0.55397857     0.00069416     0.00003281    -0.00053823
H         0.86914158    -0.07606801     1.94174840     0.00145739     0.00020510     0.00052917
H        -0.92193087     0.12853364     1.82094800     0.00026676     0.00011256    -0.00004378
H        -1.00026757     0.02761803    -0.54078144    -0.00118855     0.00007788    -0.00078272
     6
  Step:    21            Position(A)                                  Velocity(au)
C        -0.04067870     0.04238046    -0.07099984     0.00006889     0.00009228    -0.00102736
N        -0.04263633    -0.08526037     1.37266757    -0.00012447    -0.00011207     0.00094690
H         0.91530121    -0.07237128    -0.55707387     0.00071734     0.00002662    -0.00056540
H         0.87671196    -0.07489696     1.94436358     0.00124193     0.00021325     0.00040404
H        -0.92071493     0.12918442     1.82094665     0.00016170     0.00012175     0.00004628
H        -1.00701901     0.02810488    -0.54523039    -0.00121224     0.00009611    -0.00080134
     6
  Step:    22            Position(A)                                  Velocity(au)
C        -0.04028977     0.04288514    -0.07667322     0.00006957     0.00008803    -0.00100040
N        -0.04327052    -0.08588394     1.37791612    -0.00010176    -0.00011090     0.00092841
H         0.91937124    -0.07223861    -0.56030973     0.00073381     0.00002117    -0.00058949
H         0.88304845    -0.07368012     1.94627269     0.00102112     0.00022188     0.00027895
H        -0.92012020     0.12989699     1.82146618     0.00004716     0.00013436     0.00014126
H        -1.01384192     0.02869425    -0.54975464    -0.00121697     0.00011469    -0.00081148
     6
  Step:    23            Position(A)                                  Velocity(au)
C        -0.03990049     0.04336528    -0.08219109     0.00006914     0.00008360    -0.00097281
N        -0.04377468    -0.08650100     1.38305353    -0.00007838    -0.00010982     0.00090816
H         0.92351016    -0.07213445    -0.56366838     0.00074255     0.00001644    -0.00060977
H         0.88813497    -0.07241481     1.94748408     0.00079800     0.00023079     0.00015598
H        -0.92018731     0.13068745     1.82252687    -0.00007265     0.00014914     0.00023864
H        -1.02063295     0.02938791    -0.55430824    -0.00120257     0.00013349    -0.00081290
     6
  Step:    24            Position(A)                                  Velocity(au)
C        -0.03951664     0.04381998    -0.08755120     0.00006771     0.00007897    -0.00094425
N        -0.04414699    -0.08711192     1.38807116    -0.00005493    -0.00010869     0.00088586
H         0.92767437    -0.07205483    -0.56712821     0.00074293     0.00001238    -0.00062574
H         0.89197161    -0.07109946     1.94801680     0.00057622     0.00023983     0.00003731
H        -0.92093254     0.13156466     1.82413469    -0.00019303     0.00016478     0.00033569
H        -1.02728898     0.03018697    -0.55884442    -0.00116965     0.00015239    -0.00080576
     6
  Step:    25            Position(A)                                  Velocity(au)
C        -0.03914343     0.04424825    -0.09274918     0.00006538     0.00007414    -0.00091464
N        -0.04438885    -0.08771629     1.39295873    -0.00003202    -0.00010741     0.00086152
H         0.93181722    -0.07199608    -0.57066510     0.00073473     0.00000894    -0.00063715
H         0.89457790    -0.06973312     1.94790128     0.00035972     0.00024898    -0.00007489
H        -0.92234563     0.13252990     1.82628032    -0.00030913     0.00017994     0.00042964
H        -1.03371129     0.03109188    -0.56331777    -0.00111953     0.00017128    -0.00079061
     6
  Step:    26            Position(A)                                  Velocity(au)
C        -0.03878540     0.04464914    -0.09778017     0.00006232     0.00006916    -0.00088412
N        -0.04450506    -0.08831315     1.39770598    -0.00001027    -0.00010591     0.00083534
H         0.93589126    -0.07195490    -0.57425381     0.00071806     0.00000604    -0.00064398
H         0.89599453    -0.06831500     1.94717928     0.00015246     0.00025826    -0.00017862
H        -0.92438969     0.13357704     1.82893958    -0.00041633     0.00019336     0.00051797
H        -1.03980932     0.03210253    -0.56768628    -0.00105409     0.00019009    -0.00076831
     6
  Step:    27            Position(A)                                  Velocity(au)
C        -0.03844623     0.04502190    -0.10263989     0.00005868     0.00006406    -0.00085295
N        -0.04450376    -0.08890115     1.40230369     0.00000974    -0.00010415     0.00080766
H         0.93985014    -0.07192854    -0.57786927     0.00069333     0.00000357    -0.00064641
H         0.89628346    -0.06684397     1.94590308    -0.00004179     0.00026779    -0.00027210
H        -0.92700316     0.13469303     1.83207484    -0.00051058     0.00020389     0.00059851
H        -1.04550337     0.03321843    -0.57191282    -0.00097553     0.00020878    -0.00073987
     6
  Step:    28            Position(A)                                  Velocity(au)
C        -0.03812876     0.04536598    -0.10732531     0.00005461     0.00005889    -0.00082141
N        -0.04439606    -0.08947870     1.40674439     0.00002753    -0.00010210     0.00077887
H         0.94365022    -0.07191490    -0.58148767     0.00066120     0.00000141    -0.00064480
H         0.89552687    -0.06531818     1.94413431    -0.00021959     0.00027776    -0.00035381
H        -0.93010353     0.13585873     1.83563741    -0.00058860     0.00021056     0.00066958
H        -1.05072626     0.03443898    -0.57596603    -0.00088626     0.00022737    -0.00070644
     6
  Step:    29            Position(A)                                  Velocity(au)
C        -0.03783493     0.04568111    -0.11183495     0.00005027     0.00005370    -0.00078984
N        -0.04419563    -0.09004409     1.41102252     0.00004268    -0.00009976     0.00074934
H         0.94725178    -0.07191275    -0.58508729     0.00062246    -0.00000063    -0.00063960
H         0.89382531    -0.06373464     1.94194246    -0.00037792     0.00028841    -0.00042254
H        -0.93359207     0.13705004     1.83957031    -0.00064802     0.00021260     0.00073002
H        -1.05542431     0.03576368    -0.57982087    -0.00078872     0.00024592    -0.00066919
     6
  Step:    30            Position(A)                                  Velocity(au)
C        -0.03756586     0.04596729    -0.11616894     0.00004582     0.00004855    -0.00075851
N        -0.04391815    -0.09059564     1.41513453     0.00005491    -0.00009713     0.00071941
H         0.95061979    -0.07192190    -0.58864911     0.00057801    -0.00000274    -0.00063135
H         0.89129533    -0.06208889     1.93940326    -0.00051419     0.00030005    -0.00047731
H        -0.93735929     0.13823912     1.84381133    -0.00068746     0.00020946     0.00077920
H        -1.05955743     0.03719244    -0.58345878    -0.00068534     0.00026452    -0.00062927
     6
  Step:    31            Position(A)                                  Velocity(au)
C        -0.03732188     0.04622475    -0.12032887     0.00004137     0.00004346    -0.00072767
N        -0.04358076    -0.09113179     1.41907858     0.00006399    -0.00009426     0.00068937
H         0.95372442    -0.07194344    -0.59215723     0.00052878    -0.00000518    -0.00062063
H         0.88806735    -0.06037462     1.93659747    -0.00062618     0.00031305    -0.00051739
H        -0.94129033     0.13939558     1.84829597    -0.00070642     0.00020078     0.00081697
H        -1.06309883     0.03872581    -0.58686750    -0.00057836     0.00028334    -0.00058776
     6
  Step:    32            Position(A)                                  Velocity(au)
C        -0.03710263     0.04645393    -0.12431754     0.00003704     0.00003847    -0.00069746
N        -0.04320156    -0.09165116     1.42285426     0.00006981    -0.00009117     0.00065941
H         0.95654119    -0.07197994    -0.59559909     0.00047570    -0.00000825    -0.00060806
H         0.88428322    -0.05858331     1.93360942    -0.00071215     0.00032784    -0.00054228
H        -0.94526996     0.14048754     1.85296002    -0.00070524     0.00018638     0.00084360
H        -1.06603403     0.04036532    -0.59004070    -0.00046987     0.00030258    -0.00054569
     6
  Step:    33            Position(A)                                  Velocity(au)
C        -0.03690711     0.04665546    -0.12813834     0.00003295     0.00003360    -0.00066792
N        -0.04279907    -0.09215261     1.42646200     0.00007234    -0.00008791     0.00062962
H         0.95905086    -0.07203585    -0.59896565     0.00041969    -0.00001233    -0.00059427
H         0.88009334    -0.05670383     1.93052550    -0.00077092     0.00034493    -0.00055179
H        -0.94918687     0.14148244     1.85774173    -0.00068493     0.00016616     0.00085968
H        -1.06835998     0.04211377    -0.59297758    -0.00036179     0.00032251    -0.00050398
     6
  Step:    34            Position(A)                                  Velocity(au)
C        -0.03673376     0.04683006    -0.13179461     0.00002918     0.00002887    -0.00063900
N        -0.04239173    -0.09263527     1.42990248     0.00007163    -0.00008453     0.00059999
H         0.96123942    -0.07211796    -0.60225158     0.00036164    -0.00001790    -0.00057993
H         0.87565323    -0.05472196     1.92743242    -0.00080187     0.00036495    -0.00054601
H        -0.95293740     0.14234757     1.86258367    -0.00064711     0.00014010     0.00086610
H        -1.07008408     0.04397561    -0.59568248    -0.00025588     0.00034346    -0.00046352
     6
  Step:    35            Position(A)                                  Velocity(au)
C        -0.03658051     0.04697855    -0.13528918     0.00002583     0.00002430    -0.00061058
N        -0.04199744    -0.09309855     1.43317631     0.00006782    -0.00008108     0.00057052
H         0.96309785    -0.07223613    -0.60545552     0.00030241    -0.00002561    -0.00056581
H         0.87111982    -0.05261981     1.92441526    -0.00080509     0.00038863    -0.00052538
H        -0.95642845     0.14305026     1.86743404    -0.00059381     0.00010816     0.00086395
H        -1.07122343     0.04595737    -0.59816467    -0.00015380     0.00036589    -0.00042518
     6
  Step:    36            Position(A)                                  Velocity(au)
C        -0.03644479     0.04710192    -0.13862440     0.00002299     0.00001993    -0.00058247
N        -0.04163312    -0.09354218     1.43628415     0.00006110    -0.00007761     0.00054113
H         0.96462211    -0.07240440    -0.60858065     0.00024290    -0.00003638    -0.00055282
H         0.86664768    -0.05037489     1.92155561    -0.00078127     0.00041692    -0.00049066
H        -0.95957958     0.14355743     1.87224760    -0.00052739     0.00007016     0.00085443
H        -1.07180448     0.04806839    -0.60043845    -0.00005725     0.00039036    -0.00038992
     6
  Step:    37            Position(A)                                  Velocity(au)
C        -0.03632349     0.04720135    -0.14180117     0.00002075     0.00001578    -0.00055421
N        -0.04131436    -0.09396625     1.43922610     0.00005173    -0.00007418     0.00051159
H         0.96581343    -0.07264285    -0.61163596     0.00018414    -0.00005158    -0.00054222
H         0.86238532    -0.04795872     1.91892975    -0.00073175     0.00045109    -0.00044291
H        -0.96232460     0.14383465     1.87698644    -0.00045048     0.00002567     0.00083887
H        -1.07186344     0.05032154    -0.60252390     0.00003189     0.00041761    -0.00035895
     6
  Step:    38            Position(A)                                  Velocity(au)
C        -0.03621290     0.04727826    -0.14481665     0.00001925     0.00001192    -0.00052465
N        -0.04105511    -0.09437104     1.44200018     0.00004004    -0.00007081     0.00048119
H         0.96667955    -0.07298072    -0.61463891     0.00012762    -0.00007333    -0.00053606
H         0.85847166    -0.04533476     1.91660686    -0.00065856     0.00049287    -0.00038353
H        -0.96461291     0.14384429     1.88162045    -0.00036599    -0.00002611     0.00081873
H        -1.07144818     0.05273443    -0.60444903     0.00011108     0.00044856    -0.00033417
     6
  Step:    39            Position(A)                                  Velocity(au)
C        -0.03610852     0.04733441    -0.14765925     0.00001862     0.00000842    -0.00049131
N        -0.04086727    -0.09475688     1.44459891     0.00002642    -0.00006746     0.00044834
H         0.96723839    -0.07346162    -0.61762141     0.00007608    -0.00010480    -0.00053812
H         0.85503202    -0.04245550     1.91464731    -0.00056434     0.00054431    -0.00031412
H        -0.96641115     0.14354306     1.88612812    -0.00027713    -0.00008625     0.00079557
H        -1.07062318     0.05533001    -0.60625517     0.00017635     0.00048387    -0.00031911
     6
  Step:    40            Position(A)                                  Velocity(au)
C        -0.03600513     0.04737217    -0.15029854     0.00001889     0.00000545    -0.00044936
N        -0.04076032    -0.09512371     1.44700258     0.00001135    -0.00006401     0.00040985
H         0.96752845    -0.07415008    -0.62064304     0.00003531    -0.00014935    -0.00055527
H         0.85217494    -0.03926148     1.91310196    -0.00045224     0.00060609    -0.00023610
H        -0.96770501     0.14288191     1.89049715    -0.00018722    -0.00015422     0.00077098
H        -1.06948054     0.05813328    -0.60800957     0.00022136     0.00052200    -0.00032043
     6
  Step:    41            Position(A)                                  Velocity(au)
C        -0.03589797     0.04739516    -0.15266925     0.00001961     0.00000321    -0.00039299
N        -0.04074071    -0.09547048     1.44916840    -0.00000458    -0.00006026     0.00036187
H         0.96763205    -0.07512670    -0.62381214     0.00001404    -0.00020511    -0.00059524
H         0.84998995    -0.03569815     1.91201505    -0.00032594     0.00067209    -0.00015014
H        -0.96849846     0.14182360     1.89472386    -0.00009837    -0.00022297     0.00074584
H        -1.06815525     0.06114981    -0.60982772     0.00024020     0.00055520    -0.00034633
     6
  Step:    42            Position(A)                                  Velocity(au)
C        -0.03578663     0.04740788    -0.15467641     0.00001997     0.00000166    -0.00032190
N        -0.04081136    -0.09579502     1.45103384    -0.00002080    -0.00005619     0.00030425
H         0.96768491    -0.07643495    -0.62727399     0.00001580    -0.00026154    -0.00065731
H         0.84854399    -0.03177442     1.91142940    -0.00019015     0.00072980    -0.00005723
H        -0.96880086     0.14039807     1.89880578    -0.00001024    -0.00028003     0.00071972
H        -1.06680467     0.06431818    -0.61186764     0.00023568     0.00057285    -0.00039736
     6
  Step:    43            Position(A)                                  Velocity(au)
C        -0.03567568     0.04741366    -0.15625207     0.00001951     0.00000055    -0.00024255
N        -0.04097224    -0.09609593     1.45255476    -0.00003686    -0.00005200     0.00024137
H         0.96780786    -0.07803775    -0.63112823     0.00003377    -0.00030869    -0.00073133
H         0.84787349    -0.02757528     1.91137811    -0.00005062     0.00077181     0.00003978
H        -0.96861240     0.13870675     1.90273455     0.00007810    -0.00031893     0.00069201
H        -1.06553204     0.06752583    -0.61425044     0.00021843     0.00057190    -0.00046433
     6
  Step:    44            Position(A)                                  Velocity(au)
C        -0.03556967     0.04741401    -0.15737363     0.00001838    -0.00000037    -0.00016111
N        -0.04122120    -0.09637331     1.45371789    -0.00005236    -0.00004789     0.00017744
H         0.96806040    -0.07986769    -0.63540656     0.00005852    -0.00034418    -0.00080793
H         0.84798108    -0.02319168     1.91187178     0.00008679     0.00079925     0.00013685
H        -0.96793242     0.13685147     1.90650109     0.00016607    -0.00034157     0.00066292
H        -1.06437573     0.07067782    -0.61703108     0.00019720     0.00055648    -0.00053791
     6