     6
  Step:     0            Position(A)                                  Velocity(au)
C        -0.04535877     0.01575678     0.03754855    -0.00005668    -0.00009323     0.00028836
N        -0.04588967    -0.04025017     1.28721391    -0.00006967     0.00002258    -0.00029283
H         0.95120620    -0.02932797    -0.53088941     0.00044242     0.00026189    -0.00000736
H         0.86492233    -0.23839561     1.84713474     0.00048874     0.00005902     0.00033399
H        -0.88275415    -0.08027600     1.78349496     0.00045511     0.00000002     0.00061397
H        -0.96811501     0.04979267    -0.54270699     0.00025729     0.00047628    -0.00030743
     6
  Step:     1            Position(A)                                  Velocity(au)
C        -0.04563490     0.01525461     0.03888756    -0.00004423    -0.00009049     0.00019965
N        -0.04618475    -0.04013436     1.28581362    -0.00003818     0.00001969    -0.00021768
H         0.95343587    -0.02786538    -0.53096644     0.00037065     0.00027337    -0.00001898
H         0.86708388    -0.23801995     1.84872100     0.00029792     0.00007933     0.00024281
H        -0.88099425    -0.08033737     1.78743143     0.00019155    -0.00002237     0.00082444
H        -0.96687514     0.05239060    -0.54464943     0.00019746     0.00047445    -0.00040238
     6
  Step:     2            Position(A)                                  Velocity(au)
C        -0.04584232     0.01476749     0.03973124    -0.00003173    -0.00008795     0.00010792
N        -0.04630705    -0.04003496     1.28483414    -0.00000693     0.00001665    -0.00013953
H         0.95525835    -0.02633929    -0.53109693     0.00029480     0.00028575    -0.00002737
H         0.86817937    -0.23752831     1.84978925     0.00010093     0.00010126     0.00014617
H        -0.88066005    -0.08052055     1.79250826    -0.00006204    -0.00004441     0.00103045
H        -0.96595631     0.05497963    -0.54710605     0.00014070     0.00047411    -0.00049624
     6
  Step:     3            Position(A)                                  Velocity(au)
C        -0.04598139     0.01429421     0.04006603    -0.00001936    -0.00008565     0.00001385
N        -0.04626042    -0.03995255     1.28428995     0.00002334     0.00001353    -0.00005876
H         0.95665509    -0.02474500    -0.53126529     0.00021591     0.00029906    -0.00003331
H         0.86818598    -0.23691419     1.85031716    -0.00009922     0.00012408     0.00004634
H        -0.88167177    -0.08082234     1.79868392    -0.00029806    -0.00006575     0.00122702
H        -0.96533875     0.05756781    -0.55006828     0.00008779     0.00047528    -0.00058858
     6
  Step:     4            Position(A)                                  Velocity(au)
C        -0.04605347     0.01383331     0.03988235    -0.00000728    -0.00008361    -0.00008180
N        -0.04605254    -0.03988739     1.28419326     0.00005194     0.00001038     0.00002421
H         0.95761318    -0.02307758    -0.53146027     0.00013489     0.00031321    -0.00003759
H         0.86709715    -0.23617497     1.85029468    -0.00029951     0.00014705    -0.00005445
H        -0.88391087    -0.08123765     1.80589102    -0.00050980    -0.00008604     0.00140918
H        -0.96499879     0.06016335    -0.55352549     0.00003939     0.00047780    -0.00067881
     6
  Step:     5            Position(A)                                  Velocity(au)
C        -0.04606073     0.01338332     0.03917481     0.00000434    -0.00008179    -0.00017811
N        -0.04569450    -0.03983943     1.28455371     0.00007825     0.00000726     0.00010875
H         0.95812471    -0.02133257    -0.53167487     0.00005271     0.00032799    -0.00004095
H         0.86492279    -0.23531203     1.84972394    -0.00049647     0.00016933    -0.00015377
H        -0.88722612    -0.08175971     1.81403706    -0.00069147    -0.00010493     0.00157191
H        -0.96490964     0.06277349    -0.55746396    -0.00000395     0.00048131    -0.00076600
     6
  Step:     6            Position(A)                                  Velocity(au)
C        -0.04600618     0.01294285     0.03794320     0.00001534    -0.00008016    -0.00027382
N        -0.04520060    -0.03980830     1.28537723     0.00010163     0.00000425     0.00019389
H         0.95818705    -0.01950667    -0.53190615    -0.00002947     0.00034303    -0.00004411
H         0.86169194    -0.23433137     1.84862049    -0.00068581     0.00018994    -0.00024881
H        -0.89143912    -0.08238001     1.82300502    -0.00083813    -0.00012206     0.00171026
H        -0.96504176     0.06540355    -0.56186524    -0.00004165     0.00048527    -0.00084884
     6
  Step:     7            Position(A)                                  Velocity(au)
C        -0.04589372     0.01251080     0.03619420     0.00002551    -0.00007864    -0.00036726
N        -0.04458827    -0.03979321     1.28666426     0.00012143     0.00000142     0.00027824
H         0.95780388    -0.01759857    -0.53215507    -0.00011021     0.00035782    -0.00004777
H         0.85745752    -0.23324449     1.84701556    -0.00086216     0.00020770    -0.00033620
H        -0.89634953    -0.08308832     1.83265387    -0.00094587    -0.00013705     0.00181938
H        -0.96536300     0.06805587    -0.56670394    -0.00007317     0.00048897    -0.00092556
     6
  Step:     8            Position(A)                                  Velocity(au)
C        -0.04572831     0.01208642     0.03394341     0.00003463    -0.00007715    -0.00045636
N        -0.04387818    -0.03979288     1.28840746     0.00013700    -0.00000112     0.00035993
H         0.95698677    -0.01560974    -0.53242638    -0.00018768     0.00037170    -0.00005257
H         0.85230238    -0.23206938     1.84495902    -0.00101898     0.00022127    -0.00041203
H        -0.90174039    -0.08387259     1.84281949    -0.00101186    -0.00014953     0.00189482
H        -0.96583861     0.07072886    -0.57194527    -0.00009797     0.00049157    -0.00099396
     6
  Step:     9            Position(A)                                  Velocity(au)
C        -0.04551608     0.01166948     0.03121768     0.00004245    -0.00007560    -0.00053864
N        -0.04309429    -0.03980547     1.29058926     0.00014774    -0.00000325     0.00043668
H         0.95575725    -0.01354521    -0.53272836    -0.00025970     0.00038393    -0.00005912
H         0.84634568    -0.23083156     1.84252246    -0.00114885     0.00022920    -0.00047198
H        -0.90738368    -0.08471887     1.85331656    -0.00103469    -0.00015912     0.00193289
H        -0.96643137     0.07341631    -0.57754290    -0.00011561     0.00049213    -0.00105160
     6
  Step:    10            Position(A)                                  Velocity(au)
C        -0.04526444     0.01126024     0.02805700     0.00004872    -0.00007389    -0.00061145
N        -0.04226367    -0.03982844     1.29317964     0.00015311    -0.00000485     0.00050593
H         0.95414870    -0.01141411    -0.53307248    -0.00032383     0.00039369    -0.00006792
H         0.83974756    -0.22956462     1.83980107    -0.00124396     0.00023004    -0.00051170
H        -0.91304767    -0.08561146     1.86394256    -0.00101463    -0.00016552     0.00193113
H        -0.96710201     0.07610693    -0.58343738    -0.00012578     0.00048973    -0.00109596
     6
  Step:    11            Position(A)                                  Velocity(au)
C        -0.04498205     0.01085951     0.02451548     0.00005323    -0.00007195    -0.00067217
N        -0.04141606    -0.03985860     1.29613480     0.00015275    -0.00000579     0.00056505
H         0.95220769    -0.00922986    -0.53347281    -0.00037757     0.00040026    -0.00007932
H         0.83271044    -0.22831011     1.83691362    -0.00129707     0.00022250    -0.00052725
H        -0.91850525    -0.08653313     1.87448394    -0.00095390    -0.00016851     0.00188875
H        -0.96781006     0.07878437    -0.58955590    -0.00012843     0.00048358    -0.00112479
     6
  Step:    12            Position(A)                                  Velocity(au)
C        -0.04467869     0.01046857     0.02066100     0.00005584    -0.00006971    -0.00071856
N        -0.04058297    -0.03989212     1.29939705     0.00014655    -0.00000598     0.00061175
H         0.94999417    -0.00700993    -0.53394522    -0.00041868     0.00040304    -0.00009350
H         0.82547561    -0.22711643     1.83399959    -0.00130257     0.00020570    -0.00051578
H        -0.92354360    -0.08746565     1.88472489    -0.00085674    -0.00016805     0.00180715
H        -0.96851515     0.08142790    -0.59581370    -0.00012383     0.00047310    -0.00113648
     6
  Step:    13            Position(A)                                  Velocity(au)
C        -0.04436489     0.01008904     0.01657310     0.00005647    -0.00006715    -0.00074918
N        -0.03979625    -0.03992471     1.30289652     0.00013474    -0.00000537     0.00064435
H         0.94757998    -0.00477496    -0.53450629    -0.00044547     0.00040173    -0.00011045
H         0.81831290    -0.22603652     1.83121257    -0.00125775     0.00017934    -0.00047617
H        -0.92797492    -0.08839060     1.89445870    -0.00072939    -0.00016426     0.00169017
H        -0.96917873     0.08401366    -0.60211757    -0.00011260     0.00045810    -0.00113045
     6
  Step:    14            Position(A)                                  Velocity(au)
C        -0.04405142     0.00972264     0.01233864     0.00005520    -0.00006432    -0.00076373
N        -0.03908623    -0.03995183     1.30655494     0.00011792    -0.00000397     0.00066230
H         0.94504560    -0.00254719    -0.53517220    -0.00045721     0.00039645    -0.00013000
H         0.81150369    -0.22512424     1.82870998    -0.00116374     0.00014386    -0.00040946
H        -0.93164619    -0.08929041     1.90350045    -0.00057966    -0.00015753     0.00154414
H        -0.96976604     0.08651673    -0.60837145    -0.00009576     0.00043886    -0.00110755
     6
  Step:    15            Position(A)                                  Velocity(au)
C        -0.04374856     0.00937091     0.00804546     0.00005223    -0.00006131    -0.00076337
N        -0.03847963    -0.03996906     1.31029158     0.00009704    -0.00000183     0.00066636
H         0.94247489    -0.00034823    -0.53595783    -0.00045434     0.00038784    -0.00015189
H         0.80531887    -0.22443019     1.82664060    -0.00102587     0.00010045    -0.00031896
H        -0.93444725    -0.09014958     1.91170026    -0.00041616    -0.00014847     0.00137754
H        -0.97024802     0.08891386    -0.61448425    -0.00007459     0.00041625    -0.00107029
     6
  Step:    16            Position(A)                                  Velocity(au)
C        -0.04346541     0.00903484     0.00377456     0.00004790    -0.00005829    -0.00075071
N        -0.03799755    -0.03997239     1.31403067     0.00007330     0.00000094     0.00065872
H         0.93994842     0.00180384    -0.53687623    -0.00043855     0.00037703    -0.00017594
H         0.79999469    -0.22399734     1.82513166    -0.00085308     0.00005081    -0.00020971
H        -0.93631495    -0.09095601     1.91895467    -0.00024724    -0.00013786     0.00120004
H        -0.97060286     0.09118648    -0.62037875    -0.00005049     0.00039162    -0.00102268
     6
  Step:    17            Position(A)                                  Velocity(au)
C        -0.04320921     0.00871453    -0.00040773     0.00004257    -0.00005547    -0.00072938
N        -0.03765426    -0.03995847     1.31770894     0.00004790     0.00000423     0.00064259
H         0.93753677     0.00389717    -0.53793896    -0.00041236     0.00036552    -0.00020215
H         0.79571301    -0.22385809     1.82427918    -0.00065609    -0.00000321    -0.00008749
H        -0.93723127    -0.09170194     1.92521289    -0.00007975    -0.00012660     0.00102100
H        -0.97081650     0.09332354    -0.62599987    -0.00002473     0.00036660    -0.00096965
     6
  Step:    18            Position(A)                                  Velocity(au)
C        -0.04298504     0.00840895    -0.00445523     0.00003663    -0.00005304    -0.00070323
N        -0.03745710    -0.03992471     1.32128115     0.00002187     0.00000791     0.00062147
H         0.93529568     0.00592812    -0.53915713    -0.00037858     0.00035486    -0.00023074
H         0.79259186    -0.22403354     1.82414451    -0.00044530    -0.00005999     0.00004236
H        -0.93721478    -0.09238441     1.93047481     0.00008184    -0.00011545     0.00084790
H        -0.97088189     0.09532289    -0.63131947     0.00000170     0.00034272    -0.00091595
     6
  Step:    19            Position(A)                                  Velocity(au)
C        -0.04279592     0.00811602    -0.00834294     0.00003034    -0.00005114    -0.00067540
N        -0.03740751    -0.03986921     1.32472156    -0.00000405     0.00001191     0.00059831
H         0.93326491     0.00790141    -0.54054268    -0.00033958     0.00034624    -0.00026206
H         0.79068825    -0.22453497     1.82475718    -0.00022924    -0.00011832     0.00017550
H        -0.93630776    -0.09300473     1.93478062     0.00023535    -0.00010502     0.00068541
H        -0.97079726     0.09719080    -0.63633541     0.00002823     0.00032107    -0.00086519
     6
  Step:    20            Position(A)                                  Velocity(au)
C        -0.04264328     0.00783289    -0.01206310     0.00002389    -0.00004983    -0.00064781
N        -0.03750275    -0.03979059     1.32802076    -0.00002936     0.00001614     0.00057504
H         0.93147060     0.00982832    -0.54210911    -0.00029698     0.00034035    -0.00029636
H         0.79000967    -0.22536638     1.82612143    -0.00001436    -0.00017732     0.00030852
H        -0.93456369    -0.09356735     1.93819550     0.00038004    -0.00009561     0.00053553
H        -0.97056395     0.09893949    -0.64106522     0.00005454     0.00030211    -0.00081929
     6
  Step:    21            Position(A)                                  Velocity(au)
C        -0.04252757     0.00755635    -0.01561844     0.00001739    -0.00004911    -0.00062114
N        -0.03773722    -0.03968791     1.33117977    -0.00005365     0.00002055     0.00055243
H         0.92992955     0.01172381    -0.54387102    -0.00025172     0.00033729    -0.00033356
H         0.79052694    -0.22652646     1.82822209     0.00019413    -0.00023610     0.00043831
H        -0.93203955    -0.09407848     1.94079512     0.00051547    -0.00008735     0.00039857
H        -0.97018478     0.10058378    -0.64553677     0.00008046     0.00028578    -0.00077859
     6
  Step:    22            Position(A)                                  Velocity(au)
C        -0.04244868     0.00728325    -0.01901522     0.00001088    -0.00004890    -0.00059517
N        -0.03810320    -0.03956058     1.33420387    -0.00007650     0.00002505     0.00053048
H         0.92865318     0.01360345    -0.54584254    -0.00020436     0.00033680    -0.00037326
H         0.79218243    -0.22800897     1.83102729     0.00039132    -0.00029360     0.00056164
H        -0.92879432    -0.09454503     1.94265653     0.00064065    -0.00008027     0.00027428
H        -0.96966338     0.10213814    -0.64977966     0.00010581     0.00027168    -0.00074243
     6
  Step:    23            Position(A)                                  Velocity(au)
C        -0.04240615     0.00701082    -0.02225846     0.00000445    -0.00004912    -0.00056929
N        -0.03859072    -0.03940845     1.33709815    -0.00009742     0.00002954     0.00050880
H         0.92764955     0.01548128    -0.54803528    -0.00015544     0.00033839    -0.00041465
H         0.79489269    -0.22980201     1.83448812     0.00057212    -0.00034851     0.00067497
H        -0.92489214    -0.09497397     1.94385516     0.00075379    -0.00007435     0.00016263
H        -0.96900430     0.10361481    -0.65381969     0.00013031     0.00025928    -0.00070970
     6
  Step:    24            Position(A)                                  Velocity(au)
C        -0.04239913     0.00673672    -0.02534975     0.00000057    -0.00004672    -0.00059420
N        -0.03918725    -0.03923187     1.33986530    -0.00011618     0.00003260     0.00052760
H         0.92692356     0.01736871    -0.55045644    -0.00014147     0.00037698    -0.00041362
H         0.79854848    -0.23188692     1.83853778     0.00070741    -0.00044442     0.00074839
H        -0.92040675    -0.09537230     1.94446618     0.00087089    -0.00002767     0.00005057
H        -0.96821344     0.10502319    -0.65767654     0.00017081     0.00019880    -0.00063648
     6
  Step:    25            Position(A)                                  Velocity(au)
C        -0.04239981     0.00649185    -0.02885853    -0.00000091    -0.00004145    -0.00066922
N        -0.03988114    -0.03904629     1.34295841    -0.00013199     0.00003388     0.00058656
H         0.92607814     0.01966851    -0.55262956    -0.00016227     0.00044005    -0.00036978
H         0.80275019    -0.23473832     1.84280081     0.00079278    -0.00056601     0.00077851
H        -0.91521881    -0.09528130     1.94441691     0.00098740     0.00004949    -0.00006412
H        -0.96710706     0.10582300    -0.66088933     0.00022704     0.00009959    -0.00052110
     6
  Step:    26            Position(A)                                  Velocity(au)
C        -0.04240918     0.00627662    -0.03277864    -0.00000251    -0.00003612    -0.00073970
N        -0.04065242    -0.03885578     1.34637652    -0.00014373     0.00003449     0.00064227
H         0.92512221     0.02225363    -0.55456130    -0.00017979     0.00048469    -0.00032721
H         0.80734894    -0.23817004     1.84717984     0.00084926    -0.00065901     0.00079000
H        -0.90944586    -0.09482295     1.94375442     0.00107801     0.00010921    -0.00016661
H        -0.96569312     0.10612872    -0.66346115     0.00027965     0.00001627    -0.00040713
     6
  Step:    27            Position(A)                                  Velocity(au)
C        -0.04242765     0.00609061    -0.03707467    -0.00000412    -0.00003087    -0.00080142
N        -0.04147757    -0.03866318     1.35009238    -0.00015080     0.00003458     0.00069099
H         0.92408113     0.02505219    -0.55626401    -0.00019166     0.00051735    -0.00028689
H         0.81218329    -0.24205823     1.85157576     0.00087511    -0.00073050     0.00078267
H        -0.90324483    -0.09406822     1.94256630     0.00113614     0.00015743    -0.00025061
H        -0.96400082     0.10600370    -0.66541153     0.00032514    -0.00005697    -0.00029756
     6
  Step:    28            Position(A)                                  Velocity(au)
C        -0.04245502     0.00593318    -0.04169476    -0.00000564    -0.00002575    -0.00085193
N        -0.04233017    -0.03847106     1.35406399    -0.00015283     0.00003419     0.00073049
H         0.92298988     0.02800933    -0.55775311    -0.00019649     0.00054035    -0.00024959
H         0.81708484    -0.24629709     1.85588730     0.00087005    -0.00078288     0.00075683
H        -0.89680592    -0.09307144     1.94096632     0.00115673     0.00019631    -0.00031182
H        -0.96207579     0.10549496    -0.66677161     0.00036076    -0.00012203    -0.00019485
     6
  Step:    29            Position(A)                                  Velocity(au)
C        -0.04249057     0.00580347    -0.04657539    -0.00000697    -0.00002082    -0.00088975
N        -0.04318197    -0.03828191     1.35823875    -0.00014969     0.00003336     0.00075942
H         0.92188989     0.03107819    -0.55904744    -0.00019343     0.00055510    -0.00021604
H         0.82188611    -0.25078887     1.86001587     0.00083560    -0.00081773     0.00071391
H        -0.89034497    -0.09187894     1.93908891     0.00113674     0.00022694    -0.00034729
H        -0.95997759     0.10464280    -0.66758444     0.00038434    -0.00017976    -0.00010138
     6
  Step:    30            Position(A)                                  Velocity(au)
C        -0.04253297     0.00570035    -0.05164603    -0.00000801    -0.00001615    -0.00091448
N        -0.04400438    -0.03809799     1.36255755    -0.00014157     0.00003215     0.00077735
H         0.92082647     0.03421774    -0.56016932    -0.00018225     0.00056280    -0.00018691
H         0.82643037    -0.25544276     1.86387183     0.00077499    -0.00083676     0.00065645
H        -0.88409234    -0.09053323     1.93708217     0.00107561     0.00025011    -0.00035564
H        -0.95777721     0.10348449    -0.66790548     0.00039445    -0.00023054    -0.00001927
     6
  Step:    31            Position(A)                                  Velocity(au)
C        -0.04258044     0.00562233    -0.05683450    -0.00000869    -0.00001180    -0.00092677
N        -0.04477020    -0.03792120     1.36695949    -0.00012896     0.00003066     0.00078479
H         0.91984530     0.03739202    -0.56114434    -0.00016326     0.00056475    -0.00016277
H         0.83058041    -0.26017610     1.86738023     0.00069290    -0.00084220     0.00058783
H        -0.87827821    -0.08907311     1.93509916     0.00097553     0.00026666    -0.00033726
H        -0.95555245     0.10205647    -0.66780064     0.00039051    -0.00027472     0.00004993
     6
  Step:    32            Position(A)                                  Velocity(au)
C        -0.04263073     0.00556762    -0.06207283    -0.00000894    -0.00000782    -0.00092824
N        -0.04545531    -0.03775301     1.37138696    -0.00011260     0.00002899     0.00078308
H         0.91898964     0.04057156    -0.56200060    -0.00013721     0.00056244    -0.00014394
H         0.83422599    -0.26491807     1.87048534     0.00059477    -0.00083682     0.00051186
H        -0.87311697    -0.08753312     1.93328781     0.00084107     0.00027763    -0.00029422
H        -0.95338372     0.10039375    -0.66734371     0.00037271    -0.00031285     0.00010538
     6
  Step:    33            Position(A)                                  Velocity(au)
C        -0.04268129     0.00553416    -0.06730221    -0.00000874    -0.00000423    -0.00092108
N        -0.04604001    -0.03759433     1.37579018    -0.00009335     0.00002722     0.00077408
H         0.91829798     0.04373457    -0.56276757    -0.00010509     0.00055742    -0.00013052
H         0.83728761    -0.26961285     1.87315239     0.00048609    -0.00082367     0.00043219
H        -0.86879349    -0.08594235     1.93178128     0.00067844     0.00028417    -0.00022992
H        -0.95134946     0.09852850    -0.66661225     0.00034184    -0.00034575     0.00014700
     6
  Step:    34            Position(A)                                  Velocity(au)
C        -0.04272940     0.00551980    -0.07247606    -0.00000804    -0.00000104    -0.00090756
N        -0.04650963    -0.03744554     1.38012988    -0.00007207     0.00002546     0.00075977
H         0.91780266     0.04686738    -0.56347475    -0.00006799     0.00055111    -0.00012235
H         0.83971625    -0.27422108     1.87536678     0.00037179    -0.00080566     0.00035200
H        -0.86545421    -0.08432353     1.93069091     0.00049459     0.00028749    -0.00014858
H        -0.94952278     0.09648867    -0.66568340     0.00029902    -0.00037436     0.00017534
     6
  Step:    35            Position(A)                                  Velocity(au)
C        -0.04277222     0.00552242    -0.07756047    -0.00000686     0.00000179    -0.00088968
N        -0.04685467    -0.03730655     1.38437801    -0.00004961     0.00002376     0.00074194
H         0.91752951     0.04996389    -0.56415047    -0.00002695     0.00054466    -0.00011908
H         0.84149005    -0.27871933     1.87713105     0.00025594    -0.00078529     0.00027373
H        -0.86320308    -0.08269276     1.93010191     0.00029662     0.00028871    -0.00005478
H        -0.94796954     0.09429707    -0.66463035     0.00024550    -0.00039964     0.00019137
     6
  Step:    36            Position(A)                                  Velocity(au)
C        -0.04280694     0.00554004    -0.08253260    -0.00000518     0.00000429    -0.00086892
N        -0.04707038    -0.03717691     1.38851641    -0.00002670     0.00002218     0.00072192
H         0.91749802     0.05302398    -0.56482081     0.00001702     0.00053880    -0.00012024
H         0.84260928    -0.28309766     1.87846097     0.00014176    -0.00076447     0.00019922
H        -0.86210134    -0.08106003     1.93007169     0.00009150     0.00028877     0.00004674
H        -0.94674778     0.09197128    -0.66352019     0.00018247    -0.00042243     0.00019627
     6
  Step:    37            Position(A)                                  Velocity(au)
C        -0.04283074     0.00557087    -0.08737773    -0.00000301     0.00000650    -0.00084624
N        -0.04715633    -0.03705593     1.39253447    -0.00000404     0.00002074     0.00070067
H         0.91772185     0.05605142    -0.56550891     0.00006297     0.00053395    -0.00012522
H         0.84309169    -0.28735648     1.87938187     0.00003183    -0.00074457     0.00012975
H        -0.86216933    -0.07943020     1.93063002    -0.00011400     0.00028839     0.00015131
H        -0.94590793     0.08952435    -0.66241287     0.00011118    -0.00044337     0.00019127
     6
  Step:    38            Position(A)                                  Velocity(au)
C        -0.04284095     0.00561337    -0.09208642    -0.00000038     0.00000845    -0.00082218
N        -0.04711593    -0.03694276     1.39642675     0.00001775     0.00001946     0.00067875
H         0.91820897     0.05905210    -0.56623450     0.00010992     0.00053022    -0.00013339
H         0.84296858    -0.29150365     1.87992584    -0.00007174    -0.00072654     0.00006632
H        -0.86338839    -0.07780420     1.93177992    -0.00031328     0.00028812     0.00025436
H        -0.94549263     0.08696572    -0.66136076     0.00003296    -0.00046294     0.00017769
     6
  Step:    39            Position(A)                                  Velocity(au)
C        -0.04283504     0.00566624    -0.09665223     0.00000268     0.00001020    -0.00079704
N        -0.04695609    -0.03683643     1.40019103     0.00003807     0.00001835     0.00065653
H         0.91896179     0.06203254    -0.56701363     0.00015685     0.00052759    -0.00014408
H         0.84228249    -0.29555215     1.88012997    -0.00016706    -0.00071106     0.00000971
H        -0.86570328    -0.07618014     1.93349931    -0.00050006     0.00028831     0.00035162
H        -0.94553613     0.08430222    -0.66040850    -0.00005063    -0.00048145     0.00015686
     6
  Step:    40            Position(A)                                  Velocity(au)
C        -0.04281079     0.00572838    -0.10107028     0.00000610     0.00001177    -0.00077097
N        -0.04668686    -0.03673589     1.40382692     0.00005638     0.00001744     0.00063423
H         0.91997697     0.06499886    -0.56785854     0.00020275     0.00052590    -0.00015662
H         0.84108559    -0.29951845     1.88003527    -0.00025245    -0.00069864    -0.00003941
H        -0.86902484    -0.07455451     1.93574323    -0.00066861     0.00028922     0.00043926
H        -0.94606326     0.08153905    -0.65959269    -0.00013780    -0.00049914     0.00013021
     6
  Step:    41            Position(A)                                  Velocity(au)
C        -0.04276634     0.00579888    -0.10533661     0.00000981     0.00001320    -0.00074413
N        -0.04632104    -0.03663997     1.40733514     0.00007222     0.00001674     0.00061201
H         0.92124557     0.06795636    -0.56877787     0.00024658     0.00052499    -0.00017038
H         0.83943881    -0.30342180     1.87968603    -0.00032644    -0.00068973    -0.00008049
H        -0.87323464    -0.07292233     1.93844727    -0.00081408     0.00029102     0.00051412
H        -0.94708833     0.07867985    -0.65894183    -0.00022658    -0.00051622     0.00009918
     6
  Step:    42            Position(A)                                  Velocity(au)
C        -0.04270036     0.00587702    -0.10944801     0.00001371     0.00001452    -0.00071668
N        -0.04587374    -0.03654742     1.41071715     0.00008524     0.00001627     0.00058999
H         0.92275305     0.07090936    -0.56977673     0.00028737     0.00052469    -0.00018474
H         0.83741039    -0.30728366     1.87912906    -0.00038781    -0.00068470    -0.00011312
H        -0.87819012    -0.07127805     1.94153143    -0.00093270     0.00029379     0.00057380
H        -0.94861416     0.07572728    -0.65847605    -0.00031484    -0.00053286     0.00006528
     6
  Step:    43            Position(A)                                  Velocity(au)
C        -0.04261203     0.00596223    -0.11340208     0.00001771     0.00001574    -0.00068880
N        -0.04536171    -0.03645684     1.41397490     0.00009520     0.00001606     0.00056830
H         0.92447961     0.07386123    -0.57085696     0.00032422     0.00052488    -0.00019916
H         0.83507439    -0.31112745     1.87841295    -0.00043568    -0.00068393    -0.00013706
H        -0.88373126    -0.06961603     1.94490483    -0.00102199     0.00029751     0.00061679
H        -0.95063156     0.07268304    -0.65820713    -0.00040045    -0.00054924     0.00002999
     6
  Step:    44            Position(A)                                  Velocity(au)
C        -0.04250115     0.00605410    -0.11719745     0.00002168     0.00001690    -0.00066076
N        -0.04480271    -0.03636670     1.41711083     0.00010197     0.00001614     0.00054704
H         0.92640077     0.07681455    -0.57201743     0.00035639     0.00052546    -0.00021316
H         0.83250870    -0.31497827     1.87758705    -0.00046956    -0.00068771    -0.00015225
H        -0.88968810    -0.06793086     1.94847068    -0.00108084     0.00030214     0.00064247
H        -0.95311943     0.06954801    -0.65813870    -0.00048133    -0.00056553    -0.00000531
     6