 Fermi distribution function

Calculation with static geometry


********************************************************************************
 iSCC Total electronic   Diff electronic      SCC error    
   10   -0.53991397E+01   -0.69899642E-12    0.66421315E-07
********************************************************************************

 Total charge:     1.00000000

 Atomic gross charges (e)
 Atom           Charge
    1       0.20411057
    2      -0.10303006
    3       0.19300687
    4       0.27944308
    5       0.28549553
    6       0.14097401

Nr. of electrons (up):     12.00000000
Atom populations (up)
 Atom       Population
    1       3.79588943
    2       5.10303006
    3       0.80699313
    4       0.72055692
    5       0.71450447
    6       0.85902599

l-shell populations (up)
 Atom Sh.   l       Population
    1   1   0       1.31267935
    1   2   1       2.48321008
    2   1   0       1.41740621
    2   2   1       3.68562384
    3   1   0       0.80699313
    4   1   0       0.72055692
    5   1   0       0.71450447
    6   1   0       0.85902599

Orbital populations (up)
 Atom Sh.   l   m       Population  Label
    1   1   0   0       1.31267935  s
    1   2   1  -1       0.57329805  p_y
    1   2   1   0       0.88256720  p_z
    1   2   1   1       1.02734484  p_x
    2   1   0   0       1.41740621  s
    2   2   1  -1       1.31996461  p_y
    2   2   1   0       1.08968813  p_z
    2   2   1   1       1.27597110  p_x
    3   1   0   0       0.80699313  s
    4   1   0   0       0.72055692  s
    5   1   0   0       0.71450447  s
    6   1   0   0       0.85902599  s

Fermi level:                        -0.4908614126 H          -13.3570 eV
Band energy:                        -8.8947456998 H         -242.0383 eV
TS:                                  0.0000000000 H            0.0000 eV
Band free energy (E-TS):            -8.8947456998 H         -242.0383 eV
Extrapolated E(0K):                 -8.8947456998 H         -242.0383 eV
Input / Output electrons (q):     12.0000000000     12.0000000000

Energy H0:                          -5.5317891067 H         -150.5276 eV
Energy SCC:                          0.1326493885 H            3.6096 eV
Total Electronic energy:            -5.3991397182 H         -146.9181 eV
Repulsive energy:                    0.1910869011 H            5.1997 eV
Total energy:                       -5.2080528171 H         -141.7183 eV
Extrapolated to 0:                  -5.2080528171 H         -141.7183 eV
Total Mermin free energy:           -5.2080528171 H         -141.7183 eV
Force related energy:               -5.2080528171 H         -141.7183 eV

SCC converged

Excitation Energy:                   0.1147841958 H            3.1234 eV

Total Forces
    1      0.006111489673      0.009590916792      0.036964424221
    2      0.010982338018     -0.007999140159     -0.045691704982
    3     -0.008956934450      0.004042632104      0.000660225222
    4     -0.013071237177     -0.005622799243      0.001842513176
    5      0.002651270407      0.010281133797      0.006044422578
    6      0.002283073529     -0.010292743292      0.000180119785

Maximal derivative component:        0.456917E-01 au


