 Fermi distribution function

Calculation with static geometry


********************************************************************************
 iSCC Total electronic   Diff electronic      SCC error    
   10   -0.54274573E+01   -0.26911806E-12    0.24539895E-06
********************************************************************************

 Total charge:     1.00000000

 Atomic gross charges (e)
 Atom           Charge
    1       0.20215692
    2      -0.09294934
    3       0.18273560
    4       0.27715406
    5       0.29262194
    6       0.13828081

Nr. of electrons (up):     12.00000000
Atom populations (up)
 Atom       Population
    1       3.79784308
    2       5.09294934
    3       0.81726440
    4       0.72284594
    5       0.70737806
    6       0.86171919

l-shell populations (up)
 Atom Sh.   l       Population
    1   1   0       1.28471146
    1   2   1       2.51313162
    2   1   0       1.40094617
    2   2   1       3.69200316
    3   1   0       0.81726440
    4   1   0       0.72284594
    5   1   0       0.70737806
    6   1   0       0.86171919

Orbital populations (up)
 Atom Sh.   l   m       Population  Label
    1   1   0   0       1.28471146  s
    1   2   1  -1       0.57700050  p_y
    1   2   1   0       0.89707155  p_z
    1   2   1   1       1.03905957  p_x
    2   1   0   0       1.40094617  s
    2   2   1  -1       1.29710008  p_y
    2   2   1   0       1.09486092  p_z
    2   2   1   1       1.30004216  p_x
    3   1   0   0       0.81726440  s
    4   1   0   0       0.72284594  s
    5   1   0   0       0.70737806  s
    6   1   0   0       0.86171919  s

Fermi level:                        -0.4826833092 H          -13.1345 eV
Band energy:                        -8.9488225754 H         -243.5099 eV
TS:                                  0.0000000000 H            0.0000 eV
Band free energy (E-TS):            -8.9488225754 H         -243.5099 eV
Extrapolated E(0K):                 -8.9488225754 H         -243.5099 eV
Input / Output electrons (q):     12.0000000000     12.0000000000

Energy H0:                          -5.5610236223 H         -151.3232 eV
Energy SCC:                          0.1335663121 H            3.6345 eV
Total Electronic energy:            -5.4274573103 H         -147.6886 eV
Repulsive energy:                    0.2191615364 H            5.9637 eV
Total energy:                       -5.2082957738 H         -141.7249 eV
Extrapolated to 0:                  -5.2082957738 H         -141.7249 eV
Total Mermin free energy:           -5.2082957738 H         -141.7249 eV
Force related energy:               -5.2082957738 H         -141.7249 eV

SCC converged

Excitation Energy:                   0.1126796495 H            3.0662 eV

Total Forces
    1      0.011896751091      0.008245802139     -0.037680698264
    2      0.000340752910     -0.001145155167      0.026162492059
    3     -0.006653155318      0.006243687944      0.002373592398
    4     -0.011542505802     -0.008278613721      0.002249391008
    5      0.007439930248      0.007708474319      0.004177361134
    6     -0.001481773129     -0.012774195515      0.002717861666

Maximal derivative component:        0.376807E-01 au


