|===============================================================================
|
|  DFTB+ release 20.1
|
|  Copyright (C) 2006 - 2020  DFTB+ developers group
|
|===============================================================================
|
|  When publishing results obtained with DFTB+, please cite the following
|  reference:
|
|  * DFTB+, a software package for efficient approximate density functional
|    theory based atomistic simulations, J. Chem. Phys. 152, 124101 (2020).
|    [doi: 10.1063/1.5143190]
|
|  You should also cite additional publications crediting the parametrization
|  data you use. Please consult the documentation of the SK-files for the
|  references.
|
|===============================================================================

Reading input file 'dftb_in.hsd'
Parser version: 8

--------------------------------------------------------------------------------
Reading SK-files:
Done.


Processed input in HSD format written to 'dftb_pin.hsd'

Starting initialization...
--------------------------------------------------------------------------------
WARNING!
-> Excited state forces are not implemented yet for fractional occupations, kT=  0.3158E-02K
OpenMP threads:              1
Chosen random seed:          507140152
Mode:                        Static calculation
Self consistent charges:     Yes
SCC-tolerance:                 0.100000E-05
Max. scc iterations:                    100
Shell resolved Hubbard:      No
Spin polarisation:           No
Nr. of up electrons:             6.000000
Nr. of down electrons:           6.000000
Periodic boundaries:         No
Electronic solver:           Relatively robust
Mixer:                       Broyden mixer
Mixing parameter:                  0.200000
Maximal SCC-cycles:                     100
Nr. of chrg. vec. in memory:              0
Electronic temperature:        0.100000E-07 H      0.272114E-06 eV
Initial charges:             Set automatically (system chrg:   0.100E+01)
Included shells:             C:  s, p
                             N:  s, p
                             H:  s
Extra options:
                             Mulliken analysis
                             Force calculation
Force type                   original
                             Eigenvector printing

--------------------------------------------------------------------------------

***  Geometry step: 0

 iSCC Total electronic   Diff electronic      SCC error    
    1   -0.54203423E+01    0.00000000E+00    0.69986369E+00
    2   -0.54242143E+01   -0.38719556E-02    0.48464588E+00
    3   -0.54272155E+01   -0.30011856E-02    0.60699109E-01
    4   -0.54274323E+01   -0.21679975E-03    0.31141639E-01
    5   -0.54274568E+01   -0.24548444E-04    0.85703149E-02
    6   -0.54274573E+01   -0.48887088E-06    0.87409025E-03
    7   -0.54274573E+01   -0.97181330E-08    0.97875742E-04
    8   -0.54274573E+01   -0.32877345E-09    0.18918662E-04
    9   -0.54274573E+01   -0.11735501E-10    0.28779572E-05
   10   -0.54274573E+01   -0.26911806E-12    0.24539895E-06
>> Charges saved for restart in charges.bin

Total Energy:                       -5.0956161243 H         -138.6588 eV
Extrapolated to 0:                  -5.2082957738 H         -141.7249 eV
Total Mermin free energy:           -5.0956161243 H         -138.6588 eV
Force related energy:               -5.2082957738 H         -141.7249 eV

--------------------------------------------------------------------------------
DFTB+ running times                          cpu [s]             wall clock [s]
--------------------------------------------------------------------------------
SCC                                    +     0.02  ( 52.7%)      0.07  ( 71.9%)
Post-SCC processing                    +     0.02  ( 40.3%)      0.02  ( 22.9%)
--------------------------------------------------------------------------------
Missing                                +     0.00  (  7.0%)      0.01  (  5.2%)
Total                                  =     0.04  (100.0%)      0.10  (100.0%)
--------------------------------------------------------------------------------
