     6
  Step:     0            Position(A)                                  Velocity(au)
C        -0.03897296     0.02567369     0.00912648     0.00008983    -0.00010742    -0.00020813
N        -0.03747699    -0.06527098     1.30971859    -0.00018869     0.00009423     0.00013113
H         0.91311809    -0.03025655    -0.55303674    -0.00091565     0.00054542     0.00050583
H         0.83881160    -0.09972919     1.85321537     0.00189121    -0.00055196     0.00088449
H        -0.98981233     0.03428161     1.79107325     0.00072330    -0.00030597    -0.00096318
H        -0.98985773     0.02702565    -0.50827289    -0.00014726     0.00028311     0.00023077
     6
  Step:     1            Position(A)                                  Velocity(au)
C        -0.03846039     0.02511037     0.00765235     0.00009671    -0.00009867    -0.00032911
N        -0.03854437    -0.06477251     1.31072554    -0.00019891     0.00008792     0.00023646
H         0.90805038    -0.02727986    -0.55023986    -0.00092696     0.00054237     0.00051057
H         0.84918430    -0.10274284     1.85814117     0.00187683    -0.00054843     0.00090228
H        -0.98544739     0.03255859     1.78577489     0.00085959    -0.00032244    -0.00096589
H        -0.99080321     0.02857147    -0.50712403    -0.00019786     0.00028257     0.00018888
     6
  Step:     2            Position(A)                                  Velocity(au)
C        -0.03791473     0.02459400     0.00552535     0.00010166    -0.00009015    -0.00044548
N        -0.03965347    -0.06430896     1.31230591    -0.00020359     0.00008135     0.00033954
H         0.90297518    -0.02432189    -0.54745000    -0.00091600     0.00053774     0.00050185
H         0.85934809    -0.10573011     1.86308820     0.00181399    -0.00054139     0.00089225
H        -0.98040663     0.03075346     1.78050445     0.00096652    -0.00033531    -0.00095042
H        -0.99202276     0.03011751    -0.50620616    -0.00024680     0.00028277     0.00014624
     6
  Step:     3            Position(A)                                  Velocity(au)
C        -0.03734710     0.02412311     0.00277406     0.00010442    -0.00008192    -0.00055541
N        -0.04077389    -0.06388163     1.31444381    -0.00020264     0.00007455     0.00043854
H         0.89801953    -0.02139125    -0.54474418    -0.00088066     0.00053127     0.00047836
H         0.86904884    -0.10867152     1.86791203     0.00170651    -0.00053056     0.00085712
H        -0.97486330     0.02888669     1.77536703     0.00103889    -0.00034413    -0.00091447
H        -0.99350583     0.03166803    -0.50552258    -0.00029324     0.00028360     0.00010321
     6
  Step:     4            Position(A)                                  Velocity(au)
C        -0.03676998     0.02369596    -0.00056329     0.00010478    -0.00007402    -0.00065710
N        -0.04187485    -0.06349169     1.31711339    -0.00019604     0.00006755     0.00053157
H         0.89332112    -0.01849788    -0.54220604    -0.00081944     0.00052275     0.00043918
H         0.87805549    -0.11154631     1.87248430     0.00155925    -0.00051576     0.00080013
H        -0.96901792     0.02698103     1.77047965     0.00107218    -0.00034852    -0.00085625
H        -0.99523742     0.03322642    -0.50507473    -0.00033636     0.00028486     0.00006016
     6
  Step:     5            Position(A)                                  Velocity(au)
C        -0.03619696     0.02331060    -0.00443896     0.00010256    -0.00006649    -0.00074879
N        -0.04292582    -0.06314012     1.32027886    -0.00018393     0.00006039     0.00061679
H         0.88902446    -0.01565296    -0.53992328    -0.00073171     0.00051198     0.00038395
H         0.88616482    -0.11433307     1.87669512     0.00137783    -0.00049696     0.00072488
H        -0.96309394     0.02506098     1.76596787     0.00106290    -0.00034824    -0.00077473
H        -0.99719810     0.03479493    -0.50486217    -0.00037533     0.00028632     0.00001748
     6
  Step:     6            Position(A)                                  Velocity(au)
C        -0.03564233     0.02296489    -0.00879617     0.00009771    -0.00005938    -0.00082893
N        -0.04389710    -0.06282767     1.32389491    -0.00016657     0.00005314     0.00069255
H         0.88527599    -0.01286864    -0.53798452    -0.00061795     0.00049887     0.00031304
H         0.89320461    -0.11701038     1.88045426     0.00116837    -0.00047426     0.00063511
H        -0.95733137     0.02315214     1.76196154     0.00100918    -0.00034321    -0.00066987
H        -0.99936415     0.03637453    -0.50488259    -0.00040940     0.00028777    -0.00002450
     6
  Step:     7            Position(A)                                  Velocity(au)
C        -0.03512055     0.02265652    -0.01357032     0.00009029    -0.00005271    -0.00089630
N        -0.04476067    -0.06255479     1.32790782    -0.00014441     0.00004585     0.00075749
H         0.88221723    -0.01015753    -0.53647492    -0.00048004     0.00048341     0.00022766
H         0.89903539    -0.11955738     1.88369131     0.00093747    -0.00044787     0.00053467
H        -0.95197706     0.02128029     1.75858870     0.00091123    -0.00033354    -0.00054288
H        -1.00170802     0.03796495    -0.50513202    -0.00043797     0.00028899    -0.00006544
     6
  Step:     8            Position(A)                                  Velocity(au)
C        -0.03464554     0.02238300    -0.01869072     0.00008050    -0.00004652    -0.00095009
N        -0.04549125    -0.06232152     1.33225712    -0.00011811     0.00003862     0.00081066
H         0.87997668    -0.00753216    -0.53547132    -0.00032132     0.00046572     0.00012991
H         0.90355361    -0.12195459     1.88635660     0.00069217    -0.00041819     0.00042752
H        -0.94727204     0.01947008     1.75596853     0.00077181    -0.00031961    -0.00039630
H        -1.00419905     0.03956475    -0.50560498    -0.00046059     0.00028980    -0.00010507
     6
  Step:     9            Position(A)                                  Velocity(au)
C        -0.03422987     0.02214176    -0.02408302     0.00006866    -0.00004083    -0.00099000
N        -0.04606759    -0.06212747     1.33687779    -0.00008857     0.00003154     0.00085157
H         0.87866185    -0.00500435    -0.53503746    -0.00014653     0.00044605     0.00002270
H         0.90669425    -0.12418463     1.88842182     0.00043985    -0.00038573     0.00031766
H        -0.94343702     0.01774376     1.75420369     0.00059638    -0.00030206    -0.00023401
H        -1.00680446     0.04117157    -0.50629467    -0.00047704     0.00029008    -0.00014316
     6
  Step:    10            Position(A)                                  Velocity(au)
C        -0.03388400     0.02193008    -0.02967179     0.00005524    -0.00003567    -0.00101630
N        -0.04647371    -0.06197170     1.34170275    -0.00005687     0.00002471     0.00088025
H         0.87835136    -0.00258455    -0.53521950     0.00003839     0.00042476    -0.00009038
H         0.90843243    -0.12623314     1.88988007     0.00018790    -0.00035117     0.00020897
H        -0.94065695     0.01611964     1.75337284     0.00039300    -0.00028176    -0.00006107
H        -1.00949042     0.04278233    -0.50719291    -0.00048733     0.00028978    -0.00017945
     6
  Step:    11            Position(A)                                  Velocity(au)
C        -0.03361560     0.02174517    -0.03538356     0.00007449    -0.00005664    -0.00187961
N        -0.04669997    -0.06185267     1.34666556    -0.00004421     0.00003332     0.00163766
H         0.87908874    -0.00028134    -0.53604245     0.00041389     0.00073422    -0.00037479
H         0.90878356    -0.12808944     1.89074536    -0.00010329    -0.00057545     0.00019178
H        -0.93906717     0.01461081     1.75352460     0.00031331    -0.00047413     0.00021310
H        -1.01222317     0.04439370    -0.50829005    -0.00089733     0.00052730    -0.00039000
     6
  Step:    12            Position(A)                                  Velocity(au)
C        -0.03323231     0.02143438    -0.04552634     0.00006116    -0.00005390    -0.00171178
N        -0.04685659    -0.06167524     1.35556363    -0.00001180     0.00002983     0.00151176
H         0.88213148     0.00373322    -0.53879508     0.00065834     0.00068986    -0.00059417
H         0.90759413    -0.13121290     1.89155201    -0.00030644    -0.00053216     0.00010095
H        -0.93800806     0.01209656     1.75525151     0.00005869    -0.00041705     0.00039727
H        -1.01752722     0.04725489    -0.51085960    -0.00097555     0.00048724    -0.00051428
     6
  Step:    13            Position(A)                                  Velocity(au)
C        -0.03292453     0.02113608    -0.05472540     0.00002399    -0.00002605    -0.00077329
N        -0.04683329    -0.06151565     1.36374731     0.00000950     0.00001349     0.00069282
H         0.88652746     0.00751363    -0.54275615     0.00044421     0.00032557    -0.00040001
H         0.90532106    -0.13410247     1.89188605    -0.00024298    -0.00024635     0.00001235
H        -0.93840400     0.00989849     1.75801351    -0.00009788    -0.00018127     0.00028826
H        -1.02324623     0.04989912    -0.51410101    -0.00052128     0.00022510    -0.00031364
     6
  Step:    14            Position(A)                                  Velocity(au)
C        -0.03283544     0.02099843    -0.05903536     0.00000810    -0.00002296    -0.00075336
N        -0.04668948    -0.06145458     1.36761400     0.00004012     0.00000844     0.00067648
H         0.88950745     0.00927565    -0.54529045     0.00060357     0.00029981    -0.00049355
H         0.90338191    -0.13537849     1.89173911    -0.00043374    -0.00020711    -0.00005896
H        -0.93964880     0.00893899     1.76013835    -0.00033459    -0.00016003     0.00045863
H        -1.02610275     0.05116445    -0.51591965    -0.00048939     0.00022362    -0.00032957
     6
  Step:    15            Position(A)                                  Velocity(au)
C        -0.03283313     0.02087697    -0.06322722    -0.00000663    -0.00002045    -0.00073766
N        -0.04638049    -0.06142036     1.37138148     0.00006819     0.00000402     0.00066328
H         0.89333884     0.01089701    -0.54832596     0.00075029     0.00027788    -0.00058145
H         0.90042625    -0.13643974     1.89122064    -0.00060684    -0.00017173    -0.00011969
H        -0.94217988     0.00809254     1.76318919    -0.00055404    -0.00014263     0.00061965
H        -1.02876908     0.05242270    -0.51782026    -0.00045799     0.00022436    -0.00034566
     6
  Step:    16            Position(A)                                  Velocity(au)
C        -0.03290997     0.02076862    -0.06732549    -0.00002007    -0.00001841    -0.00072583
N        -0.04592317    -0.06140945     1.37506821     0.00009327     0.00000016     0.00065295
H         0.89793946     0.01239856    -0.55182496     0.00088265     0.00025908    -0.00066285
H         0.89656205    -0.13730842     1.89039394    -0.00076159    -0.00013976    -0.00016936
H        -0.94587530     0.00733609     1.76710219    -0.00075115    -0.00012921     0.00076981
H        -1.03124980     0.05368592    -0.51980427    -0.00042698     0.00022710    -0.00036217
     6
  Step:    17            Position(A)                                  Velocity(au)
C        -0.03305780     0.02067085    -0.07135247    -0.00003207    -0.00001675    -0.00071683
N        -0.04533634    -0.06141858     1.37869088     0.00011487    -0.00000315     0.00064457
H         0.90321966     0.01379728    -0.55574617     0.00099819     0.00024258    -0.00073632
H         0.89190067    -0.13800425     1.88932474    -0.00089583    -0.00011079    -0.00020698
H        -0.95058861     0.00664615     1.77180684    -0.00092061    -0.00011977     0.00090691
H        -1.03354884     0.05496491    -0.52187455    -0.00039589     0.00023141    -0.00037897
     6
  Step:    18            Position(A)                                  Velocity(au)
C        -0.03326784     0.02058166    -0.07532461    -0.00004246    -0.00001539    -0.00070948
N        -0.04464137    -0.06144460     1.38226097     0.00013238    -0.00000592     0.00063707
H         0.90907833     0.01510549    -0.56004161     0.00109412     0.00022760    -0.00080019
H         0.88656547    -0.13854473     1.88808424    -0.00100621    -0.00008459    -0.00023116
H        -0.95614841     0.00599959     1.77722246    -0.00105725    -0.00011426     0.00102835
H        -1.03566756     0.05626827    -0.52403318    -0.00036430     0.00023687    -0.00039571
     6
  Step:    19            Position(A)                                  Velocity(au)
C        -0.03353055     0.02049952    -0.07925179    -0.00005108    -0.00001425    -0.00070278
N        -0.04386248    -0.06148447     1.38578397     0.00014525    -0.00000814     0.00062952
H         0.91540150     0.01633132    -0.56465543     0.00116796     0.00021353    -0.00085293
H         0.88069765    -0.13894603     1.88675101    -0.00108899    -0.00006109    -0.00024040
H        -0.96235988     0.00537401     1.78325635    -0.00115683    -0.00011258     0.00113172
H        -1.03760492     0.05760224    -0.52628036    -0.00033199     0.00024308    -0.00041205
     6
  Step:    20            Position(A)                                  Velocity(au)
C        -0.03383570     0.02042323    -0.08313816    -0.00005779    -0.00001329    -0.00069595
N        -0.04302650    -0.06153511     1.38926002     0.00015306    -0.00000981     0.00062119
H         0.92206366     0.01747949    -0.56952451     0.00121788     0.00019991    -0.00089339
H         0.87445812    -0.13922396     1.88541142    -0.00114070    -0.00004037    -0.00023339
H        -0.96901002     0.00474796     1.78980485    -0.00121664    -0.00011456     0.00121519
H        -1.03935856     0.05897089    -0.52861429    -0.00029895     0.00024972    -0.00042766
     6
  Step:    21            Position(A)                                  Velocity(au)
C        -0.03417252     0.02035187    -0.08698353    -0.00006251    -0.00001247    -0.00068848
N        -0.04216210    -0.06159346     1.39268513     0.00015556    -0.00001093     0.00061158
H         0.92893163     0.01855228    -0.57458056     0.00124306     0.00018644    -0.00092095
H         0.86802500    -0.13939451     1.88415819    -0.00115873    -0.00002252    -0.00020921
H        -0.97587614     0.00410130     1.79675653    -0.00123581    -0.00011997     0.00127778
H        -1.04092609     0.06037656    -0.53103148    -0.00026538     0.00025655    -0.00044234
     6
  Step:    22            Position(A)                                  Velocity(au)
C        -0.03453000     0.02028470    -0.09078476    -0.00006525    -0.00001177    -0.00068005
N        -0.04129877    -0.06165649     1.39605251     0.00015273    -0.00001151     0.00060039
H         0.93586973     0.01955023    -0.57975307     0.00124363     0.00017291    -0.00093557
H         0.86158862    -0.13947403     1.88308783    -0.00114162    -0.00000762    -0.00016752
H        -0.98273555     0.00341556     1.80399660    -0.00121529    -0.00012848     0.00131941
H        -1.04230606     0.06182032    -0.53352720    -0.00023162     0.00026342    -0.00045597
     6
  Step:    23            Position(A)                                  Velocity(au)
C        -0.03489725     0.02022113    -0.09453698    -0.00006605    -0.00001116    -0.00067056
N        -0.04046572    -0.06172131     1.39935374     0.00014474    -0.00001158     0.00058753
H         0.94274477     0.02047284    -0.58497209     0.00122062     0.00015920    -0.00093770
H         0.85534487    -0.13947913     1.88229755    -0.00108926     0.00000431    -0.00010859
H        -0.98937453     0.00267424     1.81141141    -0.00115762    -0.00013974     0.00134080
H        -1.04349874     0.06330242    -0.53609602    -0.00019806     0.00027024    -0.00046851
     6
  Step:    24            Position(A)                                  Velocity(au)
C        -0.03526380     0.02016068    -0.09823460    -0.00006503    -0.00001063    -0.00066002
N        -0.03969075    -0.06178519     1.40257984     0.00013196    -0.00001119     0.00057304
H         0.94943059     0.02131895    -0.59017081     0.00117581     0.00014526    -0.00092823
H         0.84948716    -0.13942615     1.88188143    -0.00100306     0.00001337    -0.00003342
H        -0.99559656     0.00186304     1.81889268    -0.00106663    -0.00015335     0.00134339
H        -1.04450644     0.06482264    -0.53873231    -0.00016510     0.00027699    -0.00048002
     6
  Step:    25            Position(A)                                  Velocity(au)
C        -0.03561994     0.02010294    -0.10187209    -0.00006234    -0.00001018    -0.00064855
N        -0.03899915    -0.06184568     1.40572216     0.00011495    -0.00001039     0.00055710
H         0.95581202     0.02208715    -0.59528785     0.00111155     0.00013106    -0.00090834
H         0.84419743    -0.13933057     1.88192617    -0.00088598     0.00001978     0.00005629
H        -1.00122839     0.00096998     1.82634104    -0.00094696    -0.00016891     0.00132913
H        -1.04533360     0.06638067    -0.54143066    -0.00013315     0.00028369    -0.00049060
     6
  Step:    26            Position(A)                                  Velocity(au)
C        -0.03595686     0.02004754    -0.10544447    -0.00005818    -0.00000978    -0.00063632
N        -0.03841287    -0.06190066     1.40877308     0.00009437    -0.00000924     0.00053998
H         0.96178751     0.02277593    -0.60026876     0.00103048     0.00011661    -0.00087944
H         0.83963779    -0.13920621     1.88250720    -0.00074236     0.00002393     0.00015817
H        -1.00612382    -0.00001469     1.83366849    -0.00080377    -0.00018603     0.00130032
H        -1.04598663     0.06797641    -0.54418621    -0.00010252     0.00029043    -0.00050040
     6
  Step:    27            Position(A)                                  Velocity(au)
C        -0.03626688     0.01999416    -0.10894766    -0.00005275    -0.00000945    -0.00062351
N        -0.03794978    -0.06194840     1.41172651     0.00007101    -0.00000782     0.00052199
H         0.96727048     0.02338383    -0.60506690     0.00093538     0.00010192    -0.00084299
H         0.83594267    -0.13906447     1.88368493    -0.00057776     0.00002631     0.00026925
H        -1.01016598    -0.00109857     1.84080004    -0.00064238    -0.00020436     0.00125940
H        -1.04647364     0.06961018    -0.54699489    -0.00007350     0.00029731    -0.00050959
     6
  Step:    28            Position(A)                                  Velocity(au)
C        -0.03654345     0.01994250    -0.11237861    -0.00004625    -0.00000916    -0.00061031
N        -0.03762319    -0.06198759     1.41457818     0.00004569    -0.00000620     0.00050346
H         0.97219002     0.02390942    -0.60964379     0.00082903     0.00008699    -0.00080044
H         0.83321242    -0.13891365     1.88550159    -0.00039865     0.00002752     0.00038612
H        -1.01326783    -0.00228738     1.84767451    -0.00046803    -0.00022358     0.00120886
H        -1.04680406     0.07128288    -0.54985350    -0.00004627     0.00030445    -0.00051835
     6
  Step:    29            Position(A)                                  Velocity(au)
C        -0.03678123     0.01989226    -0.11573524    -0.00003890    -0.00000893    -0.00059687
N        -0.03744158    -0.06201737     1.41732580     0.00001929    -0.00000447     0.00048475
H         0.97649056     0.02435132    -0.61396902     0.00071406     0.00007182    -0.00075318
H         0.83150906    -0.13875837     1.88797918    -0.00021205     0.00002827     0.00050507
H        -1.01537124    -0.00358514     1.85424438    -0.00028570    -0.00024343     0.00115105
H        -1.04698824     0.07299609    -0.55275971    -0.00002094     0.00031196    -0.00052680
     6
  Step:    30            Position(A)                                  Velocity(au)
C        -0.03697601     0.01984317    -0.11901628    -0.00003089    -0.00000875    -0.00058330
N        -0.03740864    -0.06203733     1.41996895    -0.00000735    -0.00000271     0.00046615
H         0.98013092     0.02470807    -0.61801977     0.00059292     0.00005637    -0.00070249
H         0.83085423    -0.13859929     1.89111837    -0.00002515     0.00002927     0.00062229
H        -1.01644505    -0.00499453     1.86047507    -0.00009997    -0.00026369     0.00108818
H        -1.04703697     0.07475208    -0.55571192     0.00000243     0.00031997    -0.00053506
     6
  Step:    31            Position(A)                                  Velocity(au)
C        -0.03712466     0.01979496    -0.12222102    -0.00002240    -0.00000862    -0.00056966
N        -0.03752336    -0.06204748     1.42250894    -0.00003344    -0.00000098     0.00044793
H         0.98308323     0.02497806    -0.62178009     0.00046784     0.00004060    -0.00064951
H         0.83122937    -0.13843296     1.89489848     0.00015506     0.00003125     0.00073403
H        -1.01648285    -0.00651709     1.86634389     0.00008493    -0.00028416     0.00102224
H        -1.04696127     0.07655386    -0.55870908     0.00002384     0.00032861    -0.00054319
     6
  Step:    32            Position(A)                                  Velocity(au)
C        -0.03722508     0.01974736    -0.12534908    -0.00001363    -0.00000853    -0.00055595
N        -0.03778040    -0.06204820     1.42494848    -0.00005823     0.00000065     0.00043028
H         0.98533182     0.02515940    -0.62524022     0.00034090     0.00002445    -0.00059527
H         0.83257798    -0.13825192     1.89927842     0.00032214     0.00003490     0.00083679
H        -1.01550089    -0.00815350     1.87183903     0.00026512    -0.00030473     0.00095505
H        -1.04677200     0.07840512    -0.56175049     0.00004332     0.00033798    -0.00055123
     6
  Step:    33            Position(A)                                  Velocity(au)
C        -0.03727612     0.01970012    -0.12839992    -0.00000472    -0.00000850    -0.00054209
N        -0.03817049    -0.06204022     1.42729118    -0.00008104     0.00000213     0.00041332
H         0.98687212     0.02524978    -0.62839600     0.00021402     0.00000783    -0.00054070
H         0.83480965    -0.13804503     1.90419874     0.00047046     0.00004087     0.00092749
H        -1.01353622    -0.00990387     1.87695852     0.00043699    -0.00032528     0.00088830
H        -1.04647978     0.08031027    -0.56483555     0.00006095     0.00034822    -0.00055915
     6
  Step:    34            Position(A)                                  Velocity(au)
C        -0.03727757     0.01965295    -0.13137262     0.00000415    -0.00000851    -0.00052801
N        -0.03868088    -0.06202452     1.42954117    -0.00010131     0.00000341     0.00039710
H         0.98770992     0.02524636    -0.63124833     0.00008899    -0.00000938    -0.00048670
H         0.83780556    -0.13779780     1.90958433     0.00059547     0.00004970     0.00100357
H        -1.01064520    -0.01176792     1.88170951     0.00059716    -0.00034579     0.00082355
H        -1.04609477     0.08227447    -0.56796362     0.00007679     0.00035947    -0.00056694
     6
  Step:    35            Position(A)                                  Velocity(au)
C        -0.03723005     0.01960557    -0.13426571     0.00001283    -0.00000858    -0.00051358
N        -0.03929598    -0.06200230     1.43170272    -0.00011857     0.00000447     0.00038161
H         0.98786070     0.02514557    -0.63380287    -0.00003248    -0.00002733    -0.00043408
H         0.84142495    -0.13749291     1.91534776     0.00069383     0.00006187     0.00106315
H        -1.00690216    -0.01374539     1.88610760     0.00074248    -0.00036629     0.00076228
H        -1.04562668     0.08430374    -0.57113387     0.00009093     0.00037190    -0.00057455
     6
  Step:    36            Position(A)                                  Velocity(au)
C        -0.03713503     0.01955768    -0.13707708     0.00002119    -0.00000870    -0.00049871
N        -0.03999790    -0.06197490     1.43377986    -0.00013246     0.00000527     0.00036681
H         0.98734919     0.02494284    -0.63606984    -0.00014871    -0.00004622    -0.00038370
H         0.84551220    -0.13711061     1.92139308     0.00076350     0.00007779     0.00110502
H        -1.00239821    -0.01583644     1.89017645     0.00087004    -0.00038691     0.00070591
H        -1.04508476     0.08640524    -0.57434530     0.00010344     0.00038574    -0.00058195
     6
  Step:    37            Position(A)                                  Velocity(au)
C        -0.03699475     0.01950895    -0.13980419     0.00002907    -0.00000888    -0.00048331
N        -0.04076707    -0.06194374     1.43577641    -0.00014274     0.00000582     0.00035263
H         0.98620915     0.02463224    -0.63806409    -0.00025810    -0.00006638    -0.00033640
H         0.84990411    -0.13662900     1.92761979     0.00080369     0.00009786     0.00112870
H        -0.99723980    -0.01804233     1.89394726     0.00097720    -0.00040794     0.00065577
H        -1.04447794     0.08858767    -0.57759687     0.00011434     0.00040136    -0.00058918
     6
  Step:    38            Position(A)                                  Velocity(au)
C        -0.03681222     0.01945908    -0.14244393     0.00003635    -0.00000912    -0.00046723
N        -0.04158292    -0.06191024     1.43769560    -0.00014927     0.00000612     0.00033891
H         0.98448317     0.02420577    -0.63980536    -0.00035902    -0.00008826    -0.00029316
H         0.85443669    -0.13602390     1.93392660     0.00081480     0.00012257     0.00113436
H        -0.99154705    -0.02036640     1.89745835     0.00106168    -0.00042991     0.00061308
H        -1.04381510     0.09086205    -0.58088780     0.00012358     0.00041929    -0.00059636
     6
  Step:    39            Position(A)                                  Velocity(au)
C        -0.03659112     0.01940765    -0.14499198     0.00004292    -0.00000945    -0.00045014
N        -0.04242441    -0.06187579     1.43953944    -0.00015202     0.00000619     0.00032535
H         0.98222286     0.02365224    -0.64131910    -0.00044977    -0.00011266    -0.00025517
H         0.85895106    -0.13526811     1.94021489     0.00079824     0.00015264     0.00112278
H        -0.98545170    -0.02281573     1.90075446     0.00112164    -0.00045377     0.00057894
H        -1.04310577     0.09324319    -0.58421838     0.00013090     0.00044049    -0.00060383
     6
  Step:    40            Position(A)                                  Velocity(au)
C        -0.03633573     0.01935411    -0.14744145     0.00004867    -0.00000993    -0.00043122
N        -0.04327063    -0.06184155     1.44130769    -0.00015107     0.00000608     0.00031129
H         0.97948969     0.02295496    -0.64263834    -0.00052828    -0.00014102    -0.00022432
H         0.86329895    -0.13432925     1.94639196     0.00075638     0.00018950     0.00109534
H        -0.97909434    -0.02540421     1.90388584     0.00115575    -0.00048133     0.00055426
H        -1.04236182     0.09575244    -0.58759167     0.00013545     0.00046670    -0.00061255
     6
  Step:    41            Position(A)                                  Velocity(au)
C        -0.03605079     0.01929746    -0.14977895     0.00005357    -0.00001070    -0.00040802
N        -0.04410142    -0.06180834     1.44299502    -0.00014661     0.00000591     0.00029493
H         0.97635849     0.02208683    -0.64380931    -0.00059077    -0.00017616    -0.00020485
H         0.86734757    -0.13316452     1.95237417     0.00069247     0.00023613     0.00105402
H        -0.97262181    -0.02815895     1.90690733     0.00116301    -0.00051627     0.00053991
H        -1.04160217     0.09842400    -0.59101830     0.00013432     0.00050162    -0.00062552
     6
  Step:    42            Position(A)                                  Velocity(au)
C        -0.03574115     0.01923536    -0.15197019     0.00006170    -0.00001325    -0.00039681
N        -0.04489792    -0.06177592     1.44458119    -0.00014863     0.00000656     0.00028844
H         0.97293247     0.02099968    -0.64491204    -0.00066906    -0.00023650    -0.00022582
H         0.87098492    -0.13170832     1.95809092     0.00065390     0.00031658     0.00107200
H        -0.96618572    -0.03113453     1.90987845     0.00122195    -0.00060270     0.00057505
H        -1.04087090     0.10132009    -0.59453450     0.00012328     0.00058943    -0.00070095
     6
  Step:    43            Position(A)                                  Velocity(au)
C        -0.03539117     0.01915502    -0.15401715     0.00006377    -0.00001456    -0.00036002
N        -0.04569388    -0.06173687     1.44607609    -0.00013685     0.00000665     0.00026348
H         0.96921965     0.01989184    -0.64622964    -0.00068649    -0.00017821    -0.00022610
H         0.87434249    -0.13015178     1.96386528     0.00054657     0.00026168     0.00100167
H        -0.95949715    -0.03423465     1.91309649     0.00117806    -0.00052978     0.00058664
H        -1.04031379     0.10438637    -0.59859115     0.00010372     0.00052740    -0.00073366
     6
  Step:    44            Position(A)                                  Velocity(au)
C        -0.03503354     0.01907381    -0.15596504     0.00006458    -0.00001453    -0.00034582
N        -0.04641650    -0.06170213     1.44750486    -0.00012243     0.00000566     0.00025416
H         0.96531497     0.01902221    -0.64742092    -0.00071968    -0.00014947    -0.00020222
H         0.87704985    -0.12880467     1.96920573     0.00042362     0.00024022     0.00091933
H        -0.95311356    -0.03701314     1.91638801     0.00111139    -0.00048753     0.00060382
H        -1.03972000     0.10717229    -0.60267541     0.00011643     0.00049125    -0.00073205
     6