|===============================================================================
|
|  DFTB+ release 20.1
|
|  Copyright (C) 2006 - 2020  DFTB+ developers group
|
|===============================================================================
|
|  When publishing results obtained with DFTB+, please cite the following
|  reference:
|
|  * DFTB+, a software package for efficient approximate density functional
|    theory based atomistic simulations, J. Chem. Phys. 152, 124101 (2020).
|    [doi: 10.1063/1.5143190]
|
|  You should also cite additional publications crediting the parametrization
|  data you use. Please consult the documentation of the SK-files for the
|  references.
|
|===============================================================================

Reading input file 'dftb_in.hsd'
Parser version: 8

--------------------------------------------------------------------------------
Reading SK-files:
Done.


Processed input in HSD format written to 'dftb_pin.hsd'

Starting initialization...
--------------------------------------------------------------------------------
OpenMP threads:              1
Chosen random seed:          497991889
Mode:                        Static calculation
Self consistent charges:     Yes
SCC-tolerance:                 0.100000E-05
Max. scc iterations:                   1000
Shell resolved Hubbard:      No
Spin polarisation:           No
Nr. of up electrons:            16.000000
Nr. of down electrons:          16.000000
Periodic boundaries:         No
Electronic solver:           Relatively robust
Maximal SCC-cycles:                    1000
Initial charges:             Set automatically (system chrg:   0.100E+01)
Included shells:             C:  s, p
                             H:  s
                             N:  s, p
Spin coupling constants:     C   1(s)-1(s):  -0.455900E-01
                             C   1(s)-2(p):  -0.293000E-01
                             C   2(p)-1(s):  -0.293000E-01
                             C   2(p)-2(p):  -0.275500E-01
                             H   1(s)-1(s):  -0.792500E-01
                             N   1(s)-1(s):  -0.468700E-01
                             N   1(s)-2(p):  -0.317000E-01
                             N   2(p)-1(s):  -0.317000E-01
                             N   2(p)-2(p):  -0.307200E-01
Range separated hybrid:      Yes
  Screening parameter omega:   0.300000E+00
  Range separated algorithm:   MatrixBased
Extra options:
                             Mulliken analysis
                             Force calculation
Force type                   original
                             Eigenvector printing


REKS Calcuation:             Yes
SSR(2,2) Calcuation:         Yes
Energy Functional:           (PPS+OSS)/2
Number of Core Orbitals:                 15
Number of Active Orbitals:                2
Number of Basis:                         32
Number of States:                         2
State-Averaging Weight:          0.500000
                                 0.500000
State of Interest:                        1
Initial Guess:               Diagonalize H0 matrix
Newton-Raphson for FON opt:  Yes
NR max. Iterations:                      50
Level Shifting:              Yes
Shift Value:                     0.300000
W Scale Factor:              C  =    3.200000
                             H  =    3.200000
                             N  =    3.200000
Transition Dipole:           No
Gradient of Microstate:      No
CP-REKS Solver:              Preconditioned Conjugate-Gradient
CG max. Iterations:                     100
CG Tolerance:                  0.100000E-07
Memory for A and Hxc:        Direct Updating Without Saving
Non-Adiabatic Coupling:      Yes

--------------------------------------------------------------------------------

***  Geometry step: 0

  iSCC       reks energy        Diff energy         x_a       SCC error   
    1      -16.4282818385       0.0000000000     0.993957    1.23351222
    2      -16.4471958207      -0.0189139822     0.999089    0.05911834
    3      -16.4508071857      -0.0036113651     0.999624    0.02360388
    4      -16.4520394815      -0.0012322958     0.999767    0.01123627
    5      -16.4525856775      -0.0005461960     0.999828    0.00776481
    6      -16.4528617726      -0.0002760951     0.999859    0.00560483
    7      -16.4530144782      -0.0001527057     0.999878    0.00413891
    8      -16.4531049152      -0.0000904369     0.999889    0.00310246
    9      -16.4531615095      -0.0000565943     0.999897    0.00235289
   10      -16.4531985771      -0.0000370676     0.999902    0.00198902
   11      -16.4532237833      -0.0000252063     0.999906    0.00169774
   12      -16.4532414501      -0.0000176667     0.999909    0.00144769
   13      -16.4532541304      -0.0000126804     0.999911    0.00123426
   14      -16.4532634001      -0.0000092696     0.999912    0.00105266
   15      -16.4532702711      -0.0000068710     0.999914    0.00089839
   16      -16.4532754177      -0.0000051466     0.999915    0.00076741
   17      -16.4532793030      -0.0000038853     0.999916    0.00065616
   18      -16.4532822536      -0.0000029506     0.999916    0.00056162
   19      -16.4532845046      -0.0000022510     0.999917    0.00048121
   20      -16.4532862280      -0.0000017234     0.999917    0.00041273
   21      -16.4532875512      -0.0000013232     0.999918    0.00035435
   22      -16.4532885696      -0.0000010184     0.999918    0.00030451
   23      -16.4532893549      -0.0000007853     0.999918    0.00026192
   24      -16.4532899616      -0.0000006067     0.999919    0.00022547
   25      -16.4532904311      -0.0000004694     0.999919    0.00019425
   26      -16.4532907948      -0.0000003638     0.999919    0.00016747
   27      -16.4532910771      -0.0000002823     0.999919    0.00014448
   28      -16.4532912965      -0.0000002193     0.999919    0.00012472
   29      -16.4532914671      -0.0000001707     0.999920    0.00010773
   30      -16.4532916001      -0.0000001330     0.999920    0.00009311
   31      -16.4532917038      -0.0000001037     0.999920    0.00008051
   32      -16.4532917848      -0.0000000810     0.999920    0.00006964
   33      -16.4532918482      -0.0000000633     0.999920    0.00006027
   34      -16.4532918978      -0.0000000496     0.999920    0.00005218
   35      -16.4532919367      -0.0000000389     0.999920    0.00004520
   36      -16.4532919672      -0.0000000305     0.999920    0.00003916
   37      -16.4532919911      -0.0000000240     0.999920    0.00003395
   38      -16.4532920100      -0.0000000189     0.999920    0.00002943
   39      -16.4532920249      -0.0000000149     0.999920    0.00002553
   40      -16.4532920366      -0.0000000117     0.999920    0.00002215
   41      -16.4532920458      -0.0000000092     0.999920    0.00001943
   42      -16.4532920531      -0.0000000073     0.999920    0.00001745
   43      -16.4532920589      -0.0000000058     0.999920    0.00001567
   44      -16.4532920635      -0.0000000046     0.999920    0.00001407
   45      -16.4532920671      -0.0000000036     0.999920    0.00001264
   46      -16.4532920700      -0.0000000029     0.999920    0.00001135
   47      -16.4532920722      -0.0000000023     0.999920    0.00001020
   48      -16.4532920740      -0.0000000018     0.999920    0.00000916
   49      -16.4532920755      -0.0000000014     0.999920    0.00000823
   50      -16.4532920766      -0.0000000011     0.999920    0.00000739
   51      -16.4532920776      -0.0000000009     0.999920    0.00000664
   52      -16.4532920783      -0.0000000007     0.999920    0.00000596
   53      -16.4532920789      -0.0000000006     0.999920    0.00000536
   54      -16.4532920793      -0.0000000005     0.999920    0.00000481
   55      -16.4532920797      -0.0000000004     0.999920    0.00000432
   56      -16.4532920800      -0.0000000003     0.999920    0.00000388
   57      -16.4532920802      -0.0000000002     0.999920    0.00000349
   58      -16.4532920804      -0.0000000002     0.999920    0.00000313
   59      -16.4532920806      -0.0000000002     0.999920    0.00000282
   60      -16.4532920807      -0.0000000001     0.999920    0.00000253
   61      -16.4532920808      -0.0000000001     0.999920    0.00000227
   62      -16.4532920809      -0.0000000001     0.999920    0.00000204
   63      -16.4532920809      -0.0000000001     0.999920    0.00000183
   64      -16.4532920810      -0.0000000001     0.999920    0.00000165
   65      -16.4532920810      -0.0000000000     0.999920    0.00000148
   66      -16.4532920810      -0.0000000000     0.999920    0.00000133
   67      -16.4532920811      -0.0000000000     0.999920    0.00000120
   68      -16.4532920811      -0.0000000000     0.999920    0.00000107
   69      -16.4532920811      -0.0000000000     0.999920    0.00000096
  
--------------------------------------------------
 Final SA-REKS(2,2) energy:     -16.45329208
  
 State     Energy      FON(1)    FON(2)   Spin
  PPS  -16.51142235   1.999841  0.000159  0.00
  OSS  -16.39516181   1.000000  1.000000  0.00
 Trip  -16.43964732   1.000000  1.000000  1.00
--------------------------------------------------

 Lagrangian Wab:   0.01585536  0.01585564

--------------------------------------------------
 SSR: 2SI-2SA-REKS(2,2) Hamiltonian matrix
               PPS           OSS
   PPS   -16.51142235    0.02222185
   OSS     0.02222185  -16.39516181
--------------------------------------------------

----------------------------------------------------------------
 SSR: 2SI-2SA-REKS(2,2) states
                    E_n       C_{PPS}    C_{OSS}
 SSR state  1  -16.51552503  -0.983381   0.181555
 SSR state  2  -16.39105914  -0.181555  -0.983381
----------------------------------------------------------------

 unrelaxed SSR FONs for S0:  1.966884  0.033116

Total Energy:                      -16.5155250266 H         -449.4103 eV
Extrapolated to 0:                 -16.5155250266 H         -449.4103 eV

----------------------------------------------------------------------------------
 Solving CP-REKS equation for  1 state vector...
----------------------------------------------------------------------------------
  CG solver: Constructing Y initial guess
  CG solver: Iteration    1    eps =    0.003930830052
  CG solver: Iteration    2    eps =    0.000711003355
  CG solver: Iteration    3    eps =    0.000029686074
  CG solver: Iteration    4    eps =    0.000012060057
  CG solver: Iteration    5    eps =    0.000000774165
  CG solver: Iteration    6    eps =    0.000000670403
  CG solver: Iteration    7    eps =    0.000000058283
  CG solver: Iteration    8    eps =    0.000000015791
  CG solver: Iteration    9    eps =    0.000000008128
  Convergence reached in CG solver after    9 iterations
  CG solver: Calculating converged R, Z, Q2 matrix
----------------------------------------------------------------------------------

----------------------------------------------------------------------------------
 Solving CP-REKS equation for SI between  1 and  2 state vectors...
----------------------------------------------------------------------------------
  CG solver: Constructing Y initial guess
  CG solver: Iteration    1    eps =    0.051207466017
  CG solver: Iteration    2    eps =    0.004304910950
  CG solver: Iteration    3    eps =    0.000673576752
  CG solver: Iteration    4    eps =    0.000039837106
  CG solver: Iteration    5    eps =    0.000009560339
  CG solver: Iteration    6    eps =    0.000003541799
  CG solver: Iteration    7    eps =    0.000000719333
  CG solver: Iteration    8    eps =    0.000000190695
  CG solver: Iteration    9    eps =    0.000000035155
  CG solver: Iteration   10    eps =    0.000000003263
  Convergence reached in CG solver after   10 iterations
  CG solver: Calculating converged R, Z, Q2 matrix
----------------------------------------------------------------------------------

--------------------------------------------------
 Gradient Information
--------------------------------------------------
           1 st state (SSR)
     0.06519339    -0.00522362     0.02700503
    -0.04761040    -0.03100073    -0.04490454
    -0.00828915     0.00475788     0.00940624
    -0.01545942     0.00740551     0.00098826
    -0.00140594     0.00827865     0.00722215
    -0.03753077    -0.01617120    -0.06238777
     0.04979284     0.04327269    -0.00068787
     0.00641152    -0.00473342    -0.00353208
    -0.02432252    -0.00725016     0.04703052
     0.05268135     0.06837045     0.09218132
    -0.02315594    -0.04321505    -0.05270721
    -0.01856894    -0.03683396    -0.01813921
     0.00210842     0.03531978     0.02174945
     0.00015557    -0.02297683    -0.02322429

           2 st state (SSR)
     0.08945603     0.00973837     0.03587100
    -0.09727771    -0.04785988    -0.04409552
    -0.00728869    -0.00038976     0.00789899
    -0.01465211     0.00847130     0.00135965
     0.00060028     0.00248784     0.00299242
     0.03069867     0.04556666     0.01598317
    -0.02046355    -0.02673567    -0.07690936
     0.00701054    -0.00423405    -0.00374280
    -0.02195977    -0.01021729     0.04748502
     0.09733288     0.08624667     0.03437954
    -0.02334452    -0.04029475    -0.05384341
    -0.04453001    -0.03332186     0.03472451
     0.00672861     0.03380668     0.02392402
    -0.00231066    -0.02326426    -0.02602722
--------------------------------------------------
 Coupling Information
--------------------------------------------------
 between  1 and  2 states
--------------------------------------------------
 g vector - difference gradient
    -0.01006879    -0.00554106    -0.00435906
     0.02664391     0.00958148    -0.00189903
    -0.00016176     0.00115811     0.00055109
    -0.00011742     0.00026395     0.00012544
     0.00007130     0.00224899     0.00170045
    -0.05095181    -0.04641857    -0.05648231
     0.05675512     0.05513029     0.05629312
    -0.00034960     0.00023238    -0.00013727
    -0.00172868     0.00256767    -0.00045662
    -0.03040938    -0.01765203     0.02890320
     0.00056586    -0.00177426     0.00087561
     0.01025839    -0.00037455    -0.02474555
    -0.00199719     0.00151360    -0.00118984
     0.00149003    -0.00093599     0.00082077

 h vector - derivative coupling
     0.00763511     0.00645584     0.00101182
     0.00015060     0.00145699    -0.00383483
     0.00097776    -0.00417855    -0.00066894
     0.00082329     0.00218286     0.00084818
     0.00299574    -0.00222550    -0.00147453
    -0.03774586    -0.03497726    -0.03801235
     0.05008850     0.04618542     0.04052723
    -0.00007572     0.00130711    -0.00065416
    -0.00121359     0.00256201    -0.00055804
    -0.01702411    -0.02114460    -0.00532974
     0.00121618    -0.00055212     0.00069954
    -0.00951738     0.00393808     0.00929115
     0.00124504     0.00184068    -0.00006755
     0.00044443    -0.00285095    -0.00177778

 G vector - GDV
    -0.01213132    -0.00748099    -0.00443299
     0.02483365     0.00842957    -0.00040451
    -0.00050023     0.00257382     0.00075362
    -0.00040366    -0.00053290    -0.00018569
    -0.00100311     0.00289540     0.00211487
    -0.03411472    -0.03086893    -0.03918547
     0.03512820     0.03500418     0.03811075
    -0.00029951    -0.00024968     0.00010536
    -0.00118137     0.00148356    -0.00022725
    -0.02232576    -0.00893811     0.02890089
     0.00009429    -0.00146015     0.00056810
     0.01298054    -0.00175605    -0.02643186
    -0.00231010     0.00075655    -0.00108728
     0.00123311     0.00014372     0.00140146

 H vector - DCV - non-adiabatic coupling
     0.02841306     0.03255246    -0.00491217
     0.07756788     0.03842215    -0.03422716
     0.00687370    -0.02803617    -0.00343917
     0.00584168     0.01713885     0.00672516
     0.02268660    -0.01024961    -0.00618747
    -0.42944398    -0.39566129    -0.44731013
     0.53872034     0.50476757     0.46564069
    -0.00157122     0.01047612    -0.00530307
    -0.01406694     0.02659332    -0.00549790
    -0.21500061    -0.20932452     0.04292134
     0.01075045    -0.00923363     0.00776180
    -0.04199486     0.02847946    -0.00126453
     0.00361394     0.01815597    -0.00392040
     0.00760998    -0.02408068    -0.01098700
--------------------------------------------------


--------------------------------------------------------------------------------
DFTB+ running times                          cpu [s]             wall clock [s]
--------------------------------------------------------------------------------
SCC                                    +     0.10  ( 25.9%)      0.10  ( 26.2%)
      Dense to sparse                        0.02  (  4.9%)      0.02  (  5.5%)
      Range separated Hamiltonian            0.01  (  2.3%)      0.01  (  3.1%)
  Density matrix creation                    0.01  (  2.8%)      0.01  (  2.3%)
Post-SCC processing                    +     0.28  ( 73.6%)      0.28  ( 73.0%)
  Force calculation                          0.28  ( 73.6%)      0.28  ( 72.5%)
--------------------------------------------------------------------------------
Missing                                +     0.00  (  0.4%)      0.00  (  0.8%)
Total                                  =     0.38  (100.0%)      0.38  (100.0%)
--------------------------------------------------------------------------------
