     6
  Step:     0            Position(A)                                  Velocity(au)
C        -0.03118200     0.00747538     0.03448031     0.00002496     0.00008773     0.00026231
N        -0.05534848    -0.07330560     1.27619669     0.00002551    -0.00007351    -0.00021036
H         0.90858447     0.05604145    -0.49085964     0.00027373    -0.00021190    -0.00000114
H         0.86287667     0.05076673     1.91009712    -0.00018019     0.00011288    -0.00074318
H        -0.81999493     0.01277317     1.87824152    -0.00055222     0.00047277     0.00091315
H        -1.02369516     0.14024524    -0.55078450    -0.00019322    -0.00039760    -0.00037125
     6
  Step:     1            Position(A)                                  Velocity(au)
C        -0.03110773     0.00796178     0.03546144     0.00000234     0.00009037     0.00009550
N        -0.05510543    -0.07375399     1.27544252     0.00006192    -0.00009049    -0.00006408
H         0.91055060     0.05506022    -0.49103350     0.00044263    -0.00014752    -0.00006021
H         0.86136138     0.05142032     1.90549586    -0.00037038     0.00012624    -0.00093668
H        -0.82392619     0.01560140     1.88359095    -0.00086828     0.00056001     0.00102971
H        -1.02447717     0.13817984    -0.55256955    -0.00009226    -0.00035812    -0.00028034
     6
  Step:     2            Position(A)                                  Velocity(au)
C        -0.03115644     0.00846374     0.03552478    -0.00001981     0.00009339    -0.00007251
N        -0.05467127    -0.07429523     1.27549590     0.00009513    -0.00010745     0.00008425
H         0.91342537     0.05442803    -0.49151811     0.00060404    -0.00008427    -0.00011371
H         0.85882587     0.05214736     1.89985281    -0.00055162     0.00014002    -0.00112296
H        -0.82949109     0.01889788     1.88950325    -0.00114736     0.00064393     0.00111768
H        -1.02470419     0.13632858    -0.55385051     0.00000900    -0.00031934    -0.00018778
     6
  Step:     3            Position(A)                                  Velocity(au)
C        -0.03132431     0.00898300     0.03466858    -0.00004103     0.00009660    -0.00023992
N        -0.05406520    -0.07492894     1.27636381     0.00012451    -0.00012422     0.00023298
H         0.91715556     0.05413874    -0.49227685     0.00075326    -0.00002204    -0.00015949
H         0.85532962     0.05295137     1.89321663    -0.00071949     0.00015466    -0.00129780
H        -0.83647221     0.02264257     1.89581244    -0.00138413     0.00072350     0.00117366
H        -1.02437876     0.13468798    -0.55462289     0.00010908    -0.00028089    -0.00009509
     6
  Step:     4            Position(A)                                  Velocity(au)
C        -0.03160515     0.00952013     0.03290101    -0.00006086     0.00009972    -0.00040444
N        -0.05330963    -0.07565376     1.27804384     0.00014939    -0.00014055     0.00037991
H         0.92166317     0.05418695    -0.49326233     0.00088541     0.00003917    -0.00019569
H         0.85095739     0.05383876     1.88565985    -0.00086847     0.00017068    -0.00145579
H        -0.84462816     0.02681023     1.90233862    -0.00157407     0.00079737     0.00119540
H        -1.02351123     0.13325674    -0.55489046     0.00020632    -0.00024231    -0.00000397
     6
  Step:     5            Position(A)                                  Velocity(au)
C        -0.03199032     0.01007425     0.03024263    -0.00007878     0.00010246    -0.00056319
N        -0.05243032    -0.07646703     1.28052136     0.00016910    -0.00015610     0.00052221
H         0.92684497     0.05456736    -0.49441836     0.00099558     0.00009914    -0.00022089
H         0.84582556     0.05481924     1.87728537    -0.00099193     0.00018865    -0.00159038
H        -0.85369786     0.03136855     1.90889417    -0.00171342     0.00086380     0.00118188
H        -1.02212094     0.13203624    -0.55466631     0.00029868    -0.00020318     0.00008359
     6
  Step:     6            Position(A)                                  Velocity(au)
C        -0.03246848     0.01064284     0.02672957    -0.00009426     0.00010448    -0.00071262
N        -0.05145659    -0.07736434     1.28376624     0.00018292    -0.00017046     0.00065640
H         0.93257283     0.05527335    -0.49568282     0.00107915     0.00015732    -0.00023431
H         0.84008772     0.05590600     1.86823235    -0.00108242     0.00020910    -0.00169421
H        -0.86340394     0.03627581     1.91528974    -0.00179922     0.00092063     0.00113337
H        -1.02023822     0.13103032    -0.55397451     0.00038374    -0.00016316     0.00016520
     6
  Step:     7            Position(A)                                  Velocity(au)
C        -0.03302542     0.01122160     0.02241687    -0.00010674     0.00010547    -0.00084874
N        -0.05042154    -0.07833901     1.28772975     0.00019018    -0.00018317     0.00077858
H         0.93869585     0.05629501    -0.49699148     0.00113233     0.00021278    -0.00023601
H         0.83393878     0.05711546     1.85868020    -0.00113208     0.00023251    -0.00175963
H        -0.87345629     0.04147853     1.92134046    -0.00182977     0.00096546     0.00105165
H        -1.01790683     0.13024453    -0.55285216     0.00045866    -0.00012215     0.00023819
     6
  Step:     8            Position(A)                                  Velocity(au)
C        -0.03364414     0.01180460     0.01738100    -0.00011574     0.00010517    -0.00096737
N        -0.04936187    -0.07938190     1.29234206     0.00019033    -0.00019374     0.00088470
H         0.94504508     0.05761702    -0.49828237     0.00115269     0.00026426    -0.00022690
H         0.82761817     0.05846699     1.84885051    -0.00113363     0.00025922    -0.00177980
H        -0.88355828     0.04691007     1.92687336    -0.00180516     0.00099596     0.00094011
H        -1.01518619     0.12968485    -0.55135095     0.00052039    -0.00008036     0.00029976
     6
  Step:     9            Position(A)                                  Velocity(au)
C        -0.03430517     0.01238452     0.01172054    -0.00012092     0.00010341    -0.00106480
N        -0.04831703    -0.08048124     1.29751197     0.00018318    -0.00020178     0.00097119
H         0.95144124     0.05921691    -0.49950030     0.00113983     0.00031038    -0.00020873
H         0.82140405     0.05998173     1.83900075    -0.00108219     0.00028934    -0.00175030
H        -0.89341619     0.05249095     1.93173536    -0.00172813     0.00101032     0.00080388
H        -1.01215285     0.12935600    -0.54953772     0.00056591    -0.00003825     0.00034730
     6
  Step:    10            Position(A)                                  Velocity(au)
C        -0.03498729     0.01295319     0.00555384    -0.00012216     0.00010013    -0.00113850
N        -0.04732721    -0.08162312     1.30312952     0.00016899    -0.00020705     0.00103568
H         0.95770565     0.06106451    -0.50060078     0.00109582     0.00034994    -0.00018386
H         0.81559784     0.06168082     1.82940923    -0.00097657     0.00032273    -0.00167052
H        -0.90275334     0.05813207     1.93580239    -0.00160461     0.00100788     0.00064971
H        -1.00890043     0.12926000    -0.54749330     0.00059274     0.00000350     0.00037886
     6
  Step:    11            Position(A)                                  Velocity(au)
C        -0.03566878     0.01350226    -0.00098773    -0.00011961     0.00009548    -0.00118799
N        -0.04643073    -0.08279240     1.30907262     0.00014855    -0.00020963     0.00107775
H         0.96367320     0.06312309    -0.50155264     0.00102526     0.00038232    -0.00015494
H         0.81050328     0.06358415     1.82035384    -0.00082004     0.00035919    -0.00154449
H        -0.91132743     0.06374126     1.93898765    -0.00144377     0.00098968     0.00048536
H        -1.00553648     0.12939505    -0.54530879     0.00059954     0.00004419     0.00039352
     6
  Step:    12            Position(A)                                  Velocity(au)
C        -0.03632893     0.01402415    -0.00777109    -0.00011374     0.00008973    -0.00121539
N        -0.04566099    -0.08397442     1.31521790     0.00012315    -0.00020995     0.00109939
H         0.96920531     0.06535270    -0.50233864     0.00093472     0.00040774    -0.00012443
H         0.80640004     0.06570962     1.81208570    -0.00062017     0.00039865    -0.00138071
H        -0.91894712     0.06923263     1.94124635    -0.00125700     0.00095859     0.00031853
H        -1.00217578     0.12975564    -0.54307940     0.00058649     0.00008335     0.00039174
     6
  Step:    13            Position(A)                                  Velocity(au)
C        -0.03694970     0.01451282    -0.01467534    -0.00010521     0.00008327    -0.00122514
N        -0.04504386    -0.08515685     1.32145387     0.00009430    -0.00020874     0.00110481
H         0.97419998     0.06771505    -0.50295400     0.00083162     0.00042739    -0.00009426
H         0.80351901     0.06807366     1.80480438    -0.00038743     0.00044127    -0.00119063
H        -0.92548364     0.07453676     1.94257492    -0.00105622     0.00091892     0.00015568
H        -0.99893153     0.13033371    -0.54089701     0.00055521     0.00012092     0.00037516
     6
  Step:    14            Position(A)                                  Velocity(au)
C        -0.03751685     0.01496435    -0.02160457    -0.00009473     0.00007647    -0.00122293
N        -0.04459617    -0.08633136     1.32769276     0.00006353    -0.00020684     0.00109936
H         0.97859541     0.07017854    -0.50340301     0.00072269     0.00044306    -0.00006568
H         0.80202546     0.07069222     1.79864185    -0.00013301     0.00048743    -0.00098608
H        -0.93087331     0.07960850     1.94300415    -0.00085177     0.00087541     0.00000114
H        -0.99590672     0.13112095    -0.53884338     0.00050813     0.00015730     0.00034603
     6
  Step:    15            Position(A)                                  Velocity(au)
C        -0.03802017     0.01537694    -0.02849472    -0.00013277     0.00011150    -0.00194426
N        -0.04432600    -0.08749424     1.33387689     0.00005134    -0.00032830     0.00174243
H         0.98236651     0.07272172    -0.50369623     0.00098166     0.00073126    -0.00006327
H         0.80201594     0.07358169     1.79366141     0.00021276     0.00086046    -0.00124433
H        -0.93510879     0.08442911     1.94258783    -0.00104247     0.00133247    -0.00022885
H        -0.99318951     0.13211125    -0.53698675     0.00071674     0.00030943     0.00049092
     6
  Step:    16            Position(A)                                  Velocity(au)
C        -0.03873478     0.01597732    -0.03905412    -0.00011775     0.00009930    -0.00176716
N        -0.04412663    -0.08929289     1.34337843     0.00001910    -0.00030451     0.00159682
H         0.98777716     0.07674110    -0.50430264     0.00092125     0.00068322    -0.00014638
H         0.80399524     0.07844167     1.78739580     0.00048352     0.00085133    -0.00096089
H        -0.94038622     0.09162061     1.94098728    -0.00081827     0.00119915    -0.00032698
H        -0.98955701     0.13388121    -0.53472437     0.00055115     0.00031463     0.00030195
     6
  Step:    17            Position(A)                                  Velocity(au)
C        -0.03936049     0.01650733    -0.04861028    -0.00005560     0.00004752    -0.00087110
N        -0.04410855    -0.09096050     1.35205339    -0.00000646    -0.00015433     0.00079466
H         0.99285307     0.08049875    -0.50536248     0.00047213     0.00034948    -0.00012169
H         0.80751979     0.08327234     1.78272370     0.00040948     0.00046410    -0.00037643
H        -0.94442309     0.09807902     1.93886579    -0.00033229     0.00058783    -0.00022516
H        -0.98691576     0.13569263    -0.53354963     0.00020302     0.00017698     0.00006048
     6
  Step:    18            Position(A)                                  Velocity(au)
C        -0.03962730     0.01675512    -0.05348561    -0.00003909     0.00004055    -0.00085938
N        -0.04423568    -0.09183112     1.35649223    -0.00003759    -0.00015486     0.00078120
H         0.99517729     0.08251054    -0.50597213     0.00035523     0.00036452    -0.00009601
H         0.81062358     0.08607415     1.78118787     0.00068275     0.00052961    -0.00017578
H        -0.94575988     0.10129501     1.93726055    -0.00014838     0.00055558    -0.00033921
H        -0.98606096     0.13680900    -0.53338766     0.00009860     0.00021909    -0.00000439
     6
  Step:    19            Position(A)                                  Velocity(au)
C        -0.03980053     0.01696379    -0.05828328    -0.00002277     0.00003395    -0.00085168
N        -0.04453164    -0.09270361     1.36084641    -0.00006659    -0.00015640     0.00077207
H         0.99685149     0.08460174    -0.50644315     0.00024430     0.00038141    -0.00007336
H         0.81520471     0.08923357     1.78074509     0.00093815     0.00059554     0.00000965
H        -0.94609319     0.10433252     1.93504774     0.00002297     0.00052978    -0.00044452
H        -0.98580594     0.13815868    -0.53359903    -0.00000868     0.00026216    -0.00007200
     6
  Step:    20            Position(A)                                  Velocity(au)
C        -0.03988237     0.01713542    -0.06302644    -0.00000670     0.00002749    -0.00084467
N        -0.04498168    -0.09358319     1.36514119    -0.00009268    -0.00015821     0.00076432
H         0.99791405     0.08678323    -0.50679393     0.00013844     0.00039905    -0.00005360
H         0.82113303     0.09274564     1.78129595     0.00116569     0.00065797     0.00017795
H        -0.94550251     0.10722984     1.93228090     0.00018097     0.00050871    -0.00053923
H        -0.98615825     0.13974586    -0.53419425    -0.00011733     0.00030533    -0.00014135
     6
  Step:    21            Position(A)                                  Velocity(au)
C        -0.03987542     0.01727090    -0.06771987     0.00000883     0.00002108    -0.00083622
N        -0.04556702    -0.09447118     1.36938543    -0.00011497    -0.00015979     0.00075609
H         0.99839809     0.08905994    -0.50704196     0.00003808     0.00041671    -0.00003688
H         0.82822779     0.09658444     1.78273316     0.00135587     0.00071342     0.00032637
H        -0.94407142     0.11001587     1.92902351     0.00032321     0.00049166    -0.00062109
H        -0.98711674     0.14156981    -0.53517821    -0.00022474     0.00034760    -0.00021090
     6
  Step:    22            Position(A)                                  Velocity(au)
C        -0.03978379     0.01737060    -0.07235672     0.00002348     0.00001469    -0.00082514
N        -0.04626451    -0.09536612     1.37357745    -0.00013271    -0.00016081     0.00074626
H         0.99833898     0.09143280    -0.50720538    -0.00005556     0.00043396    -0.00002346
H         0.83626149     0.10070578     1.78493745     0.00150112     0.00075908     0.00045240
H        -0.94189621     0.11271570     1.92535098     0.00044662     0.00047861    -0.00068792
H        -0.98866580     0.14362429    -0.53654744    -0.00032776     0.00038800    -0.00027888
     6
  Step:    23            Position(A)                                  Velocity(au)
C        -0.03961355     0.01743479    -0.07692355     0.00003682     0.00000836    -0.00081086
N        -0.04704727    -0.09626492     1.37770927    -0.00014531    -0.00016110     0.00073421
H         0.99777836     0.09390044    -0.50730368    -0.00014100     0.00045061    -0.00001366
H         0.84497144     0.10505128     1.78777925     0.00159659     0.00079293     0.00055444
H        -0.93908970     0.11535439     1.92135032     0.00054805     0.00046996    -0.00073788
H        -0.99077259     0.14589761    -0.53828887    -0.00042313     0.00042561    -0.00034350
     6
  Step:    24            Position(A)                                  Velocity(au)
C        -0.03937293     0.01746386    -0.08140382     0.00004849     0.00000212    -0.00079329
N        -0.04788581    -0.09716357     1.38176935    -0.00015245    -0.00016059     0.00071971
H         0.99676576     0.09646040    -0.50735782    -0.00021673     0.00046663    -0.00000773
H         0.85407527     0.10955281     1.79112356     0.00164055     0.00081382     0.00063207
H        -0.93578137     0.11795922     1.91711821     0.00062474     0.00046632    -0.00076962
H        -0.99338680     0.14837303    -0.54038005    -0.00050783     0.00045965    -0.00040318
     6
  Step:    25            Position(A)                                  Velocity(au)
C        -0.03907215     0.01745842    -0.08578040     0.00005816    -0.00000398    -0.00077265
N        -0.04874937    -0.09805785     1.38574463    -0.00015408    -0.00015932     0.00070277
H         0.99535861     0.09911020    -0.50739002    -0.00028142     0.00048217    -0.00000586
H         0.86328760     0.11413725     1.79483610     0.00163418     0.00082140     0.00068603
H        -0.93211467     0.12056068     1.91275782     0.00067471     0.00046838    -0.00078249
H        -0.99644234     0.15102949    -0.54279023    -0.00057936     0.00048950    -0.00045662
     6
  Step:    26            Position(A)                                  Velocity(au)
C        -0.03872310     0.01741936    -0.09003727     0.00006557    -0.00000989    -0.00074937
N        -0.04960742    -0.09894379     1.38962192    -0.00015036    -0.00015739     0.00068357
H         0.99362119     0.10184811    -0.50742326    -0.00033406     0.00049751    -0.00000812
H         0.87233531     0.11873093     1.79878916     0.00158110     0.00081605     0.00071806
H        -0.92824227     0.12319278     1.90837485     0.00069700     0.00047678    -0.00077659
H        -0.99986045     0.15384257    -0.54548226    -0.00063591     0.00051472    -0.00050296
     6
  Step:    27            Position(A)                                  Velocity(au)
C        -0.03833885     0.01734783    -0.09416076     0.00007059    -0.00001557    -0.00072405
N        -0.05043089    -0.09981801     1.39338914    -0.00014170    -0.00015496     0.00066249
H         0.99162280     0.10467389    -0.50748079    -0.00037400     0.00051300    -0.00001450
H         0.88096930     0.12326326     1.80286627     0.00148668     0.00079872     0.00073061
H        -0.92432000     0.12589261     1.90407306     0.00069177     0.00049206    -0.00075278
H        -1.00355378     0.15678563    -0.54841487    -0.00067644     0.00053510    -0.00054174
     6
  Step:    28            Position(A)                                  Velocity(au)
C        -0.03793313     0.01724516    -0.09814032     0.00007315    -0.00002099    -0.00069730
N        -0.05119324    -0.10067800     1.39703607    -0.00012863    -0.00015219     0.00063994
H         0.98943560     0.10758931    -0.50758552    -0.00040102     0.00052910    -0.00002489
H         0.88897324     0.12766970     1.80696569     0.00135732     0.00077074     0.00072658
H        -0.92050047     0.12869957     1.89995021     0.00066022     0.00051456    -0.00071253
H        -1.00743070     0.15983101    -0.55154511    -0.00070067     0.00055061    -0.00057296
     6
  Step:    29            Position(A)                                  Velocity(au)
C        -0.03751980     0.01711281    -0.10196876     0.00007327    -0.00002615    -0.00066975
N        -0.05187118    -0.10152216     1.40055487    -0.00011177    -0.00014925     0.00061639
H         0.98713235     0.11059846    -0.50775951    -0.00041526     0.00054626    -0.00003910
H         0.89616782     0.13189354     1.81100215     0.00119981     0.00073361     0.00070903
H        -0.91692724     0.13165439     1.89609455     0.00060450     0.00054444    -0.00065782
H        -1.01139951     0.16295102    -0.55483058    -0.00070896     0.00056136    -0.00059692
     6
  Step:    30            Position(A)                                  Velocity(au)
C        -0.03711240     0.01695225    -0.10564215     0.00007106    -0.00003106    -0.00064192
N        -0.05244518    -0.10234977     1.40394024    -0.00009181    -0.00014629     0.00059226
H         0.98478431     0.11370795    -0.50802348    -0.00041716     0.00056495    -0.00005686
H         0.90241223     0.13588689     1.81490746     0.00102087     0.00068893     0.00068097
H        -0.91372950     0.13479785     1.89258204     0.00052759     0.00058160    -0.00059102
H        -1.01537171     0.16611880    -0.55823123    -0.00070213     0.00056757    -0.00061420
     6
  Step:    31            Position(A)                                  Velocity(au)
C        -0.03672383     0.01676490    -0.10915940     0.00006664    -0.00003573    -0.00061425
N        -0.05289966    -0.10316089     1.40718925    -0.00006946    -0.00014343     0.00056794
H         0.98245946     0.11692683    -0.50839641    -0.00040743     0.00058558    -0.00007784
H         0.90760331     0.13961077     1.81863016     0.00082682     0.00063820     0.00064525
H        -0.91101732     0.13816934     1.88947410     0.00043316     0.00062568    -0.00051480
H        -1.01926457     0.16930881    -0.56171065    -0.00068136     0.00056950    -0.00062551
     6
  Step:    32            Position(A)                                  Velocity(au)
C        -0.03636606     0.01655209    -0.11252165     0.00006019    -0.00004019    -0.00058702
N        -0.05322313    -0.10395619     1.41030111    -0.00004540    -0.00014075     0.00054373
H         0.98022114     0.12026635    -0.50889526    -0.00038696     0.00060852    -0.00010166
H         0.91167257     0.14303470     1.82213425     0.00062334     0.00058279     0.00060444
H        -0.90887809     0.14180537     1.88681631     0.00032540     0.00067604    -0.00043197
H        -1.02300284     0.17249710    -0.56523686    -0.00064801     0.00056739    -0.00063167
     6
  Step:    33            Position(A)                                  Velocity(au)
C        -0.03604999     0.01631498    -0.11573161     0.00005190    -0.00004446    -0.00056042
N        -0.05340800    -0.10473668     1.41327676    -0.00002031    -0.00013827     0.00051985
H         0.97812711     0.12373972    -0.50953464    -0.00035677     0.00063406    -0.00012791
H         0.91458217     0.14613563     1.82539742     0.00041537     0.00052386     0.00056075
H        -0.90737415     0.14573828     1.88463777     0.00020883     0.00073185    -0.00034541
H        -1.02651968     0.17566128    -0.56878276    -0.00060359     0.00056149    -0.00063353
     6
  Step:    34            Position(A)                                  Velocity(au)
C        -0.03578531     0.01605459    -0.11879286     0.00004198    -0.00004857    -0.00053451
N        -0.05345042    -0.10550350     1.41611840     0.00000518    -0.00013601     0.00049647
H         0.97622875     0.12736169    -0.51032665    -0.00031802     0.00066245    -0.00015611
H         0.91632071     0.14889684     1.82840918     0.00020722     0.00046239     0.00051610
H        -0.90654124     0.14999496     1.88295103     0.00008818     0.00079203    -0.00025801
H        -1.02975717     0.17878036    -0.57232619    -0.00054960     0.00055198    -0.00063192
     6
  Step:    35            Position(A)                                  Velocity(au)
C        -0.03558052     0.01577177    -0.12170931     0.00003064    -0.00005255    -0.00050927
N        -0.05335005    -0.10625776     1.41882909     0.00003048    -0.00013393     0.00047367
H         0.97457051     0.13114826    -0.51128051    -0.00027193     0.00069386    -0.00018573
H         0.91689957     0.15130681     1.83116918     0.00000265     0.00039917     0.00047215
H        -0.90638802     0.15459597     1.88175236    -0.00003180     0.00085539    -0.00017254
H        -1.03266612     0.18183437    -0.57584989    -0.00048754     0.00053897    -0.00062770
     6
  Step:    36            Position(A)                                  Velocity(au)
C        -0.03544288     0.01546724    -0.12448459     0.00001809    -0.00005643    -0.00048457
N        -0.05310981    -0.10700034     1.42141227     0.00005502    -0.00013198     0.00045144
H         0.97318961     0.13511645    -0.51240243    -0.00021976     0.00072846    -0.00021622
H         0.91635034     0.15335809     1.83368609    -0.00019488     0.00033481     0.00043045
H        -0.90689662     0.15955503     1.88102270    -0.00014650     0.00092070    -0.00009165
H        -1.03520598     0.18480396    -0.57934147    -0.00041889     0.00052246    -0.00062171
     6
  Step:    37            Position(A)                                  Velocity(au)
C        -0.03537851     0.01514155    -0.12712141     0.00000451    -0.00006022    -0.00046016
N        -0.05273559    -0.10773181     1.42387110     0.00007829    -0.00013009     0.00042965
H         0.97211604     0.13928435    -0.51369541    -0.00016272     0.00076648    -0.00024699
H         0.91472294     0.15504624     1.83597678    -0.00038220     0.00026968     0.00039242
H        -0.90802427     0.16487909     1.88072878    -0.00025169     0.00098680    -0.00001775
H        -1.03734461     0.18766966    -0.58279364    -0.00034513     0.00050233    -0.00061493
     6
  Step:    38            Position(A)                                  Velocity(au)
C        -0.03539253     0.01479511    -0.12962070    -0.00000995    -0.00006395    -0.00043557
N        -0.05223592    -0.10845232     1.42620782     0.00009988    -0.00012816     0.00040801
H         0.97137337     0.14367170    -0.51515929    -0.00010173     0.00080839    -0.00027754
H         0.91208437     0.15636816     1.83806617    -0.00055624     0.00020373     0.00035958
H        -0.90970587     0.17056932     1.88082460    -0.00034363     0.00105285     0.00004699
H        -1.03905827     0.19041080    -0.58620513    -0.00026781     0.00047812    -0.00060866
     6
  Step:    39            Position(A)                                  Velocity(au)
C        -0.03548950     0.01442814    -0.13198017    -0.00002530    -0.00006769    -0.00040979
N        -0.05162142    -0.10916148     1.42842249     0.00011947    -0.00012608     0.00038584
H         0.97098123     0.14830197    -0.51679143    -0.00003671     0.00085542    -0.00030771
H         0.90851804     0.15731886     1.83998789    -0.00071395     0.00013585     0.00033378
H        -0.91185752     0.17662368     1.88125291    -0.00041936     0.00111888     0.00010058
H        -1.04033201     0.19300312    -0.58958330    -0.00018873     0.00044860    -0.00060527
     6
  Step:    40            Position(A)                                  Velocity(au)
C        -0.03567461     0.01404040    -0.13418954    -0.00004204    -0.00007166    -0.00037885
N        -0.05090392    -0.10985805     1.43050958     0.00013704    -0.00012350     0.00036033
H         0.97096410     0.15320889    -0.51858994     0.00003740     0.00091169    -0.00034011
H         0.90412445     0.15788277     1.84178753    -0.00085135     0.00006112     0.00031857
H        -0.91438130     0.18304381     1.88194593    -0.00047715     0.00118737     0.00014114
H        -1.04116239     0.19541234    -0.59295333    -0.00011222     0.00040994    -0.00061240
     6
  Step:    41            Position(A)                                  Velocity(au)
C        -0.03595800     0.01362957    -0.13620203    -0.00005895    -0.00008029    -0.00032947
N        -0.05009431    -0.11053775     1.43243792     0.00015571    -0.00012253     0.00032553
H         0.97139796     0.15846179    -0.52058155     0.00014657     0.00099803    -0.00042798
H         0.89903068     0.15799996     1.84353796    -0.00098987    -0.00000916     0.00032427
H        -0.91717484     0.18985557     1.88282571    -0.00053829     0.00127953     0.00018711
H        -1.04158262     0.19757140    -0.59640781    -0.00007978     0.00039105    -0.00068109
     6
  Step:    42            Position(A)                                  Velocity(au)
C        -0.03628713     0.01317256    -0.13798032    -0.00006353    -0.00008345    -0.00031210
N        -0.04921376    -0.11121378     1.43420102     0.00016125    -0.00012048     0.00030972
H         0.97225262     0.16394215    -0.52310476     0.00016554     0.00099389    -0.00046200
H         0.89322545     0.15802784     1.84522579    -0.00108490    -0.00000479     0.00029587
H        -0.92023787     0.19689538     1.88401823    -0.00055015     0.00127189     0.00022386
H        -1.04188361     0.19986342    -0.60007545    -0.00001433     0.00040768    -0.00064275
     6
  Step:    43            Position(A)                                  Velocity(au)
C        -0.03666544     0.01270024    -0.13967750    -0.00007290    -0.00008619    -0.00029696
N        -0.04829861    -0.11187940     1.43588692     0.00016626    -0.00011853     0.00029548
H         0.97324135     0.16952966    -0.52572634     0.00018944     0.00101813    -0.00047670
H         0.88694936     0.15794657     1.84683276    -0.00115674    -0.00002724     0.00028826
H        -0.92330125     0.20401930     1.88531866    -0.00053971     0.00128870     0.00023526
H        -1.04174218     0.20211131    -0.60356538     0.00006530     0.00039464    -0.00061441
     6
  Step:    44            Position(A)                                  Velocity(au)
C        -0.03709873     0.01221305    -0.14128626    -0.00008267    -0.00008883    -0.00028087
N        -0.04736283    -0.11253339     1.43749056     0.00016847    -0.00011640     0.00028055
H         0.97436166     0.17527671    -0.52841169     0.00021066     0.00104855    -0.00048587
H         0.88034778     0.15772457     1.84843487    -0.00120197    -0.00005161     0.00029317
H        -0.92624628     0.21124216     1.88663727    -0.00050850     0.00130490     0.00023206
H        -1.04115661     0.20425685    -0.60691548     0.00014384     0.00037424    -0.00059119
     6