 Fermi distribution function

Calculation with static geometry


********************************************************************************
 iSCC Total electronic   Diff electronic      SCC error    
   10   -0.54028491E+01   -0.32152059E-12    0.86439792E-07
********************************************************************************

 Total charge:     1.00000000

 Atomic gross charges (e)
 Atom           Charge
    1       0.20987524
    2      -0.10642247
    3       0.18599769
    4       0.27963528
    5       0.28590991
    6       0.14500434

Nr. of electrons (up):     12.00000000
Atom populations (up)
 Atom       Population
    1       3.79012476
    2       5.10642247
    3       0.81400231
    4       0.72036472
    5       0.71409009
    6       0.85499566

l-shell populations (up)
 Atom Sh.   l       Population
    1   1   0       1.31203584
    1   2   1       2.47808891
    2   1   0       1.41992870
    2   2   1       3.68649377
    3   1   0       0.81400231
    4   1   0       0.72036472
    5   1   0       0.71409009
    6   1   0       0.85499566

Orbital populations (up)
 Atom Sh.   l   m       Population  Label
    1   1   0   0       1.31203584  s
    1   2   1  -1       0.57611415  p_y
    1   2   1   0       0.88131644  p_z
    1   2   1   1       1.02065832  p_x
    2   1   0   0       1.41992870  s
    2   2   1  -1       1.33643661  p_y
    2   2   1   0       1.08702868  p_z
    2   2   1   1       1.26302848  p_x
    3   1   0   0       0.81400231  s
    4   1   0   0       0.72036472  s
    5   1   0   0       0.71409009  s
    6   1   0   0       0.85499566  s

Fermi level:                        -0.4892370283 H          -13.3128 eV
Band energy:                        -8.8888759235 H         -241.8786 eV
TS:                                  0.0000000000 H            0.0000 eV
Band free energy (E-TS):            -8.8888759235 H         -241.8786 eV
Extrapolated E(0K):                 -8.8888759235 H         -241.8786 eV
Input / Output electrons (q):     12.0000000000     12.0000000000

Energy H0:                          -5.5350728403 H         -150.6170 eV
Energy SCC:                          0.1322237024 H            3.5980 eV
Total Electronic energy:            -5.4028491378 H         -147.0190 eV
Repulsive energy:                    0.1866574552 H            5.0792 eV
Total energy:                       -5.2161916826 H         -141.9398 eV
Extrapolated to 0:                  -5.2161916826 H         -141.9398 eV
Total Mermin free energy:           -5.2161916826 H         -141.9398 eV
Force related energy:               -5.2161916826 H         -141.9398 eV

SCC converged

Excitation Energy:                   0.1247650438 H            3.3950 eV

Total Forces
    1      0.004666374931      0.005506020292      0.038545137160
    2      0.009264301658     -0.005121887552     -0.044432377302
    3     -0.010175164428      0.006247720634      0.001902229133
    4     -0.015402353933     -0.005189793232      0.001891855299
    5      0.008176751499      0.007979270689      0.001808714574
    6      0.003470090273     -0.009421330831      0.000284441137

Maximal derivative component:        0.444324E-01 au


