|===============================================================================
|
|  DFTB+ release 20.1
|
|  Copyright (C) 2006 - 2020  DFTB+ developers group
|
|===============================================================================
|
|  When publishing results obtained with DFTB+, please cite the following
|  reference:
|
|  * DFTB+, a software package for efficient approximate density functional
|    theory based atomistic simulations, J. Chem. Phys. 152, 124101 (2020).
|    [doi: 10.1063/1.5143190]
|
|  You should also cite additional publications crediting the parametrization
|  data you use. Please consult the documentation of the SK-files for the
|  references.
|
|===============================================================================

Reading input file 'dftb_in.hsd'
Parser version: 8

--------------------------------------------------------------------------------
Reading SK-files:
Done.


Processed input in HSD format written to 'dftb_pin.hsd'

Starting initialization...
--------------------------------------------------------------------------------
OpenMP threads:              1
Chosen random seed:          510726858
Mode:                        Static calculation
Self consistent charges:     Yes
SCC-tolerance:                 0.100000E-05
Max. scc iterations:                   1000
Shell resolved Hubbard:      No
Spin polarisation:           No
Nr. of up electrons:             6.000000
Nr. of down electrons:           6.000000
Periodic boundaries:         No
Electronic solver:           Relatively robust
Maximal SCC-cycles:                    1000
Initial charges:             Set automatically (system chrg:   0.100E+01)
Included shells:             C:  s, p
                             N:  s, p
                             H:  s
Spin coupling constants:     C   1(s)-1(s):  -0.455900E-01
                             C   1(s)-2(p):  -0.293000E-01
                             C   2(p)-1(s):  -0.293000E-01
                             C   2(p)-2(p):  -0.275500E-01
                             N   1(s)-1(s):  -0.468700E-01
                             N   1(s)-2(p):  -0.317000E-01
                             N   2(p)-1(s):  -0.317000E-01
                             N   2(p)-2(p):  -0.307200E-01
                             H   1(s)-1(s):  -0.792500E-01
Range separated hybrid:      Yes
  Screening parameter omega:   0.300000E+00
  Range separated algorithm:   MatrixBased
Extra options:
                             Mulliken analysis
                             Force calculation
Force type                   original
                             Eigenvector printing


REKS Calcuation:             Yes
SSR(2,2) Calcuation:         Yes
Energy Functional:           (PPS+OSS)/2
Number of Core Orbitals:                  5
Number of Active Orbitals:                2
Number of Basis:                         12
Number of States:                         2
State-Averaging Weight:          0.500000
                                 0.500000
State of Interest:                        1
Initial Guess:               Diagonalize H0 matrix
Newton-Raphson for FON opt:  Yes
NR max. Iterations:                      50
Level Shifting:              Yes
Shift Value:                     0.300000
W Scale Factor:              C  =    3.000000
                             N  =    3.000000
                             H  =    3.000000
Transition Dipole:           No
Gradient of Microstate:      No
CP-REKS Solver:              Preconditioned Conjugate-Gradient
CG max. Iterations:                     100
CG Tolerance:                  0.100000E-07
Memory for A and Hxc:        Direct Updating Without Saving
Non-Adiabatic Coupling:      Yes

--------------------------------------------------------------------------------

***  Geometry step: 0

  iSCC       reks energy        Diff energy         x_a       SCC error   
    1       -6.2792872177       0.0000000000     0.999970    1.19755290
    2       -6.2816384424      -0.0023512247     0.999973    0.02261604
    3       -6.2820821341      -0.0004436917     0.999976    0.00818321
    4       -6.2821973237      -0.0001151896     0.999977    0.00438375
    5       -6.2822364095      -0.0000390858     0.999978    0.00242923
    6       -6.2822532412      -0.0000168317     0.999978    0.00196148
    7       -6.2822617659      -0.0000085247     0.999978    0.00156479
    8       -6.2822664867      -0.0000047209     0.999979    0.00123847
    9       -6.2822692203      -0.0000027336     0.999979    0.00097567
   10       -6.2822708386      -0.0000016183     0.999979    0.00076654
   11       -6.2822718077      -0.0000009691     0.999979    0.00060123
   12       -6.2822723918      -0.0000005841     0.999979    0.00047108
   13       -6.2822727452      -0.0000003534     0.999979    0.00036884
   14       -6.2822729597      -0.0000002144     0.999979    0.00028866
   15       -6.2822730900      -0.0000001303     0.999979    0.00022583
   16       -6.2822731693      -0.0000000793     0.999979    0.00017664
   17       -6.2822732177      -0.0000000483     0.999979    0.00013815
   18       -6.2822732472      -0.0000000295     0.999979    0.00010803
   19       -6.2822732651      -0.0000000180     0.999979    0.00008447
   20       -6.2822732761      -0.0000000110     0.999979    0.00006605
   21       -6.2822732828      -0.0000000067     0.999979    0.00005164
   22       -6.2822732869      -0.0000000041     0.999979    0.00004038
   23       -6.2822732894      -0.0000000025     0.999979    0.00003157
   24       -6.2822732909      -0.0000000015     0.999979    0.00002469
   25       -6.2822732919      -0.0000000009     0.999979    0.00001930
   26       -6.2822732925      -0.0000000006     0.999979    0.00001509
   27       -6.2822732928      -0.0000000003     0.999979    0.00001180
   28       -6.2822732930      -0.0000000002     0.999979    0.00000923
   29       -6.2822732931      -0.0000000001     0.999979    0.00000722
   30       -6.2822732932      -0.0000000001     0.999979    0.00000564
   31       -6.2822732933      -0.0000000000     0.999979    0.00000441
   32       -6.2822732933      -0.0000000000     0.999979    0.00000345
   33       -6.2822732933      -0.0000000000     0.999979    0.00000270
   34       -6.2822732933      -0.0000000000     0.999979    0.00000211
   35       -6.2822732933      -0.0000000000     0.999979    0.00000165
   36       -6.2822732933      -0.0000000000     0.999979    0.00000129
   37       -6.2822732934      -0.0000000000     0.999979    0.00000101
   38       -6.2822732934      -0.0000000000     0.999979    0.00000079
  
--------------------------------------------------
 Final SA-REKS(2,2) energy:      -6.28227329
  
 State     Energy      FON(1)    FON(2)   Spin
  PPS   -6.41425753   1.999959  0.000041  0.00
  OSS   -6.15028905   1.000000  1.000000  0.00
 Trip   -6.22683521   1.000000  1.000000  1.00
--------------------------------------------------

 Lagrangian Wab:  -0.00014012 -0.00014012

--------------------------------------------------
 SSR: 2SI-2SA-REKS(2,2) Hamiltonian matrix
               PPS           OSS
   PPS    -6.41425753   -0.00019725
   OSS    -0.00019725   -6.15028905
--------------------------------------------------

----------------------------------------------------------------
 SSR: 2SI-2SA-REKS(2,2) states
                    E_n       C_{PPS}    C_{OSS}
 SSR state  1   -6.41425768  -1.000000  -0.000747
 SSR state  2   -6.15028891   0.000747  -1.000000
----------------------------------------------------------------

 unrelaxed SSR FONs for S0:  1.999958  0.000042

Total Energy:                       -6.4142576813 H         -174.5408 eV
Extrapolated to 0:                  -6.4142576813 H         -174.5408 eV

----------------------------------------------------------------------------------
 Solving CP-REKS equation for  1 state vector...
----------------------------------------------------------------------------------
  CG solver: Constructing Y initial guess
  CG solver: Iteration    1    eps =    0.000024752868
  CG solver: Iteration    2    eps =    0.000000652835
  CG solver: Iteration    3    eps =    0.000000206341
  CG solver: Iteration    4    eps =    0.000000003622
  Convergence reached in CG solver after    4 iterations
  CG solver: Calculating converged R, Z, Q2 matrix
----------------------------------------------------------------------------------

----------------------------------------------------------------------------------
 Solving CP-REKS equation for SI between  1 and  2 state vectors...
----------------------------------------------------------------------------------
  CG solver: Constructing Y initial guess
  CG solver: Iteration    1    eps =    0.000339810507
  CG solver: Iteration    2    eps =    0.000086520957
  CG solver: Iteration    3    eps =    0.000002587271
  CG solver: Iteration    4    eps =    0.000000129872
  CG solver: Iteration    5    eps =    0.000000006973
  Convergence reached in CG solver after    5 iterations
  CG solver: Calculating converged R, Z, Q2 matrix
----------------------------------------------------------------------------------

--------------------------------------------------
 Gradient Information
--------------------------------------------------
           1 st state (SSR)
    -0.00865996    -0.01261139     0.03988811
     0.02726960    -0.00565060    -0.05304791
     0.00099985     0.00323850    -0.00609548
    -0.01071087     0.00773824     0.00708220
    -0.00926817     0.00475423     0.00721830
     0.00036955     0.00253104     0.00495479

           2 st state (SSR)
     0.00775947    -0.00427166     0.15251078
    -0.01097194     0.00205623    -0.18367002
    -0.00346601     0.01082786     0.01474088
     0.00285163    -0.00007450    -0.00123239
     0.00486458     0.00955208    -0.00279366
    -0.00103773    -0.01809000     0.02044441
--------------------------------------------------
 Coupling Information
--------------------------------------------------
 between  1 and  2 states
--------------------------------------------------
 g vector - difference gradient
    -0.00820798    -0.00416297    -0.05631060
     0.01912293    -0.00386431     0.06531081
     0.00224017    -0.00379588    -0.01041818
    -0.00677313     0.00391100     0.00415901
    -0.00707573    -0.00239581     0.00500429
     0.00069374     0.01030797    -0.00774533

 h vector - derivative coupling
    -0.00116836    -0.00461464    -0.00053535
    -0.00142921     0.00728812     0.00021457
    -0.00484019     0.00080101    -0.00001095
    -0.00543585    -0.00309779    -0.00114529
     0.00625209    -0.00208968     0.00113453
     0.00662151     0.00171299     0.00034250

 G vector - GDV
    -0.00820971    -0.00416987    -0.05631134
     0.01912077    -0.00385342     0.06531105
     0.00223293    -0.00379468    -0.01041818
    -0.00678125     0.00390637     0.00415729
    -0.00706637    -0.00239893     0.00500598
     0.00070364     0.01031052    -0.00774481

 H vector - DCV - non-adiabatic coupling
    -0.00437964    -0.01745819    -0.00170926
    -0.00552257     0.02763165     0.00044308
    -0.01834888     0.00305597     0.00001750
    -0.02055439    -0.01175757    -0.00436229
     0.02372499    -0.00790283     0.00426962
     0.02508048     0.00643099     0.00134134
--------------------------------------------------


--------------------------------------------------------------------------------
DFTB+ running times                          cpu [s]             wall clock [s]
--------------------------------------------------------------------------------
SCC                                    +     0.02  ( 63.8%)      0.02  ( 57.6%)
Post-SCC processing                    +     0.01  ( 31.5%)      0.01  ( 30.3%)
--------------------------------------------------------------------------------
Missing                                +     0.00  (  4.7%)      0.00  ( 12.1%)
Total                                  =     0.03  (100.0%)      0.03  (100.0%)
--------------------------------------------------------------------------------
