 Fermi distribution function

Calculation with static geometry


********************************************************************************
 iSCC Total electronic   Diff electronic      SCC error    
   10   -0.54252916E+01   -0.21760371E-12    0.10724595E-06
********************************************************************************

 Total charge:     1.00000000

 Atomic gross charges (e)
 Atom           Charge
    1       0.18364030
    2      -0.06703503
    3       0.14995451
    4       0.28818349
    5       0.26751182
    6       0.17774492

Nr. of electrons (up):     12.00000000
Atom populations (up)
 Atom       Population
    1       3.81635970
    2       5.06703503
    3       0.85004549
    4       0.71181651
    5       0.73248818
    6       0.82225508

l-shell populations (up)
 Atom Sh.   l       Population
    1   1   0       1.29636871
    1   2   1       2.51999100
    2   1   0       1.41138146
    2   2   1       3.65565358
    3   1   0       0.85004549
    4   1   0       0.71181651
    5   1   0       0.73248818
    6   1   0       0.82225508

Orbital populations (up)
 Atom Sh.   l   m       Population  Label
    1   1   0   0       1.29636871  s
    1   2   1  -1       0.59676894  p_y
    1   2   1   0       0.89164978  p_z
    1   2   1   1       1.03157227  p_x
    2   1   0   0       1.41138146  s
    2   2   1  -1       1.34106616  p_y
    2   2   1   0       1.10496982  p_z
    2   2   1   1       1.20961760  p_x
    3   1   0   0       0.85004549  s
    4   1   0   0       0.71181651  s
    5   1   0   0       0.73248818  s
    6   1   0   0       0.82225508  s

Fermi level:                        -0.4884469001 H          -13.2913 eV
Band energy:                        -8.9555292828 H         -243.6924 eV
TS:                                  0.0000000000 H            0.0000 eV
Band free energy (E-TS):            -8.9555292828 H         -243.6924 eV
Extrapolated E(0K):                 -8.9555292828 H         -243.6924 eV
Input / Output electrons (q):     12.0000000000     12.0000000000

Energy H0:                          -5.5594404898 H         -151.2801 eV
Energy SCC:                          0.1341488666 H            3.6504 eV
Total Electronic energy:            -5.4252916232 H         -147.6297 eV
Repulsive energy:                    0.2045098207 H            5.5650 eV
Total energy:                       -5.2207818025 H         -142.0647 eV
Extrapolated to 0:                  -5.2207818025 H         -142.0647 eV
Total Mermin free energy:           -5.2207818025 H         -142.0647 eV
Force related energy:               -5.2207818025 H         -142.0647 eV

SCC converged

Excitation Energy:                   0.1352951082 H            3.6816 eV

Total Forces
    1     -0.009764046075      0.004317424648     -0.015835478598
    2     -0.008319433134      0.002755421205     -0.005402687704
    3     -0.003002253000     -0.010456201795      0.005376297224
    4     -0.000357602667      0.010103333096      0.008987755038
    5      0.011598150760     -0.010615499698      0.002213880589
    6      0.009845184116      0.003895522544      0.004660233451

Maximal derivative component:        0.158355E-01 au


