    14
  Step:     0            Position(A)                                  Velocity(au)
C        -5.97125712    -0.80709563    -0.06470497     0.00013090    -0.00002933     0.00007098
C        -4.64796669    -0.69487028     0.21663242     0.00019181     0.00019721    -0.00018194
H        -6.54021480    -0.06802084    -0.62762727     0.00037838     0.00023826    -0.00046991
H        -6.44091854    -1.77207101     0.17590935    -0.00136244    -0.00078322     0.00137192
H        -4.09451874    -1.50094883     0.68187996     0.00054118    -0.00017299    -0.00053178
C        -3.97490068     0.47866932    -0.14662039     0.00012771     0.00000034     0.00022210
C        -2.62763772     0.56116865     0.11148576    -0.00015123     0.00005878    -0.00010262
H        -4.61911041     1.30456153    -0.54729075    -0.00053142     0.00034197    -0.00109242
H        -2.13734143    -0.31786027     0.71018347    -0.00042087     0.00041928     0.00025090
C        -1.72714456     1.69727812    -0.16659982     0.00009826    -0.00004286    -0.00009281
H        -2.12088420     2.57086071    -0.75323683    -0.00082510    -0.00064007     0.00009226
N        -0.58948819     1.74913392     0.36409365    -0.00019420     0.00002854     0.00012383
H         0.11650101     2.39427969     0.04741740     0.00004778    -0.00017509     0.00008828
H        -0.14888918     1.00538046     0.86046673     0.00013512    -0.00181893    -0.00042570
    14
  Step:     1            Position(A)                                  Velocity(au)
C        -5.97005412    -0.80759789    -0.06395515     0.00008672    -0.00006489     0.00006671
C        -4.64578135    -0.69269197     0.21464593     0.00020711     0.00019790    -0.00018043
H        -6.53598381    -0.06532832    -0.63257532     0.00039922     0.00024340    -0.00042882
H        -6.45625956    -1.78006006     0.19083646    -0.00141260    -0.00063013     0.00134437
H        -4.08849979    -1.50312654     0.67620506     0.00055228    -0.00021485    -0.00050961
C        -3.97387169     0.47875458    -0.14427558     0.00005856     0.00001852     0.00020447
C        -2.62864015     0.56193721     0.11049591    -0.00003149     0.00008198    -0.00007806
H        -4.62376764     1.30774451    -0.55903460    -0.00030301     0.00021965    -0.00103957
H        -2.14299381    -0.31145160     0.71162629    -0.00060611     0.00074346     0.00001788
C        -1.72705955     1.69662238    -0.16794047    -0.00008300    -0.00007774    -0.00015244
H        -2.12925900     2.56290676    -0.75160557    -0.00070351    -0.00079993     0.00019979
N        -0.59091968     1.74954998     0.36568939    -0.00006521     0.00004333     0.00017082
H         0.11710926     2.39305303     0.04821644     0.00006269    -0.00005190     0.00006000
H        -0.14753468     0.98433000     0.85642323     0.00008235    -0.00196793    -0.00035267
    14
  Step:     2            Position(A)                                  Velocity(au)
C        -5.96935987    -0.80851526    -0.06324565     0.00003879    -0.00010429     0.00006359
C        -4.64343568    -0.69054091     0.21268520     0.00022074     0.00019225    -0.00017732
H        -6.53148105    -0.06269605    -0.63700857     0.00042683     0.00022830    -0.00037661
H        -6.47182182    -1.78585637     0.20532006    -0.00140717    -0.00039357     0.00129261
H        -4.08243656    -1.50564912     0.67073120     0.00054904    -0.00023511    -0.00049528
C        -3.97361963     0.47907455    -0.14214721    -0.00001312     0.00004246     0.00018298
C        -2.62832671     0.56296203     0.10977808     0.00008784     0.00010601    -0.00005355
H        -4.62573927     1.30936685    -0.57003343    -0.00004785     0.00006453    -0.00095977
H        -2.15060123    -0.30159570     0.71057454    -0.00077243     0.00104125    -0.00019867
C        -1.72896033     1.69557743    -0.16993474    -0.00026053    -0.00011409    -0.00021019
H        -2.13627479     2.55336077    -0.74886595    -0.00058158    -0.00092462     0.00028965
N        -0.59091478     1.75008191     0.36783077     0.00006510     0.00004980     0.00022178
H         0.11787257     2.39314423     0.04873008     0.00007619     0.00006430     0.00003686
H        -0.14708761     0.96232826     0.85275140    -0.00002599    -0.00199496    -0.00035317
    14
  Step:     3            Position(A)                                  Velocity(au)
C        -5.96920562    -0.80987945    -0.06256408    -0.00001111    -0.00014569     0.00006156
C        -4.64095229    -0.68848618     0.21076664     0.00023199     0.00018051    -0.00017287
H        -6.52664610    -0.06033380    -0.64081429     0.00045843     0.00019559    -0.00031525
H        -6.48704405    -1.78867007     0.21911487    -0.00135528    -0.00009627     0.00122061
H        -4.07648839    -1.50827004     0.66536975     0.00053164    -0.00023287    -0.00048872
C        -3.97415875     0.47968357    -0.14027252    -0.00008505     0.00007049     0.00015855
C        -2.62671843     0.56425644     0.10932432     0.00020384     0.00013177    -0.00003050
H        -4.62481456     1.30915626    -0.58003147     0.00021929    -0.00010786    -0.00086031
H        -2.15989228    -0.28867232     0.70728000    -0.00090776     0.00129516    -0.00038492
C        -1.73275915     1.69412646    -0.17253881    -0.00042610    -0.00015205    -0.00026191
H        -2.14198225     2.54267900    -0.74526884    -0.00046920    -0.00100144     0.00035159
N        -0.58949559     1.75063945     0.37054135     0.00019011     0.00004848     0.00027296
H         0.11877596     2.39445972     0.04902291     0.00008835     0.00017061     0.00002020
H        -0.14810337     0.94068653     0.84869686    -0.00017742    -0.00190984    -0.00041498
    14
  Step:     4            Position(A)                                  Velocity(au)
C        -5.96960283    -0.81170249    -0.06189885    -0.00006127    -0.00018740     0.00006054
C        -4.63836041    -0.68659191     0.20890330     0.00024047     0.00016340    -0.00016744
H        -6.52145203    -0.05841711    -0.64390524     0.00049081     0.00014876    -0.00024736
H        -6.50147111    -1.78796257     0.23202327    -0.00126677     0.00023941     0.00113291
H        -4.07080583    -1.51074353     0.66003945     0.00050144    -0.00020906    -0.00048877
C        -3.97548037     0.48061667    -0.13867855    -0.00015552     0.00010066     0.00013212
C        -2.62386733     0.56584477     0.10911076     0.00031399     0.00016045    -0.00001040
H        -4.62094189     1.30700715    -0.58885439     0.00048406    -0.00028241    -0.00074878
H        -2.17046031    -0.27326170     0.70215361    -0.00099959     0.00148605    -0.00052549
C        -1.73828203     1.69225101    -0.17566462    -0.00057258    -0.00019182    -0.00030386
H        -2.14653955     2.53145233    -0.74117421    -0.00037575    -0.00101899     0.00037634
N        -0.58675580     1.75114254     0.37380239     0.00030376     0.00004054     0.00032065
H         0.11980532     2.39687675     0.04917198     0.00009920     0.00026458     0.00001099
H        -0.15096896     0.92054682     0.84367300    -0.00035542    -0.00173126    -0.00052153
    14
  Step:     5            Position(A)                                  Velocity(au)
C        -5.97054608    -0.81397911    -0.06123956    -0.00011039    -0.00022793     0.00006039
C        -4.63569150    -0.68491160     0.20710351     0.00024628     0.00014217    -0.00016152
H        -6.51590879    -0.05707945    -0.64622566     0.00052057     0.00009185    -0.00017600
H        -6.51475697    -1.78343249     0.24389945    -0.00115173     0.00059242     0.00103445
H        -4.06551840    -1.51284365     0.65467688     0.00046081    -0.00016622    -0.00049349
C        -3.97756098     0.48188563    -0.13738219    -0.00022360     0.00013059     0.00010461
C        -2.61984923     0.56776656     0.10909670     0.00041658     0.00019363     0.00000519
H        -4.61422490     1.30297790    -0.59641238     0.00073236    -0.00044410    -0.00063311
H        -2.18176027    -0.25616209     0.69578380    -0.00103549     0.00159365    -0.00060361
C        -1.74528552     1.68992995    -0.17918637    -0.00069473    -0.00023365    -0.00033307
H        -2.15020259     2.52038665    -0.73703577    -0.00030908    -0.00096872     0.00035680
N        -0.58285018     1.75152641     0.37755628     0.00040126     0.00002753     0.00036165
H         0.12094622     2.40024799     0.04926341     0.00010865     0.00034413     0.00000995
H        -0.15587894     0.90281187     0.83728739    -0.00054242    -0.00148281    -0.00065497
    14
  Step:     6            Position(A)                                  Velocity(au)
C        -5.97201778    -0.81668897    -0.06057780    -0.00015758    -0.00026600     0.00006085
C        -4.63297259    -0.68348162     0.20536971     0.00025012     0.00011865    -0.00015567
H        -6.51006367    -0.05640775    -0.64775553     0.00054439     0.00002920    -0.00010455
H        -6.52666750    -1.77500219     0.25465393    -0.00102060     0.00094277     0.00093068
H        -4.06072471    -1.51437995     0.64924351     0.00041293    -0.00010815    -0.00050040
C        -3.98037211     0.48347367    -0.13638997    -0.00028908     0.00015750     0.00007703
C        -2.61475393     0.57008073     0.10922434     0.00051056     0.00023302     0.00001483
H        -4.60492002     1.29729156    -0.60270478     0.00095032    -0.00057771    -0.00052184
H        -2.19311363    -0.23839764     0.68894841    -0.00100442     0.00159843    -0.00060269
C        -1.75348066     1.68713948    -0.18295126    -0.00078964    -0.00027759    -0.00034780
H        -2.15330125     2.51025979    -0.73336855    -0.00027424    -0.00084711     0.00028964
N        -0.57797747     1.75174475     0.38171407     0.00047955     0.00001121     0.00039356
H         0.12218224     2.40440528     0.04938969     0.00011643     0.00040752     0.00001756
H        -0.16283549     0.88810741     0.82934429    -0.00072143    -0.00119065    -0.00079781
    14
  Step:     7            Position(A)                                  Velocity(au)
C        -5.97399345    -0.81979843    -0.05990834    -0.00020229    -0.00030044     0.00006160
C        -4.63021956    -0.68231582     0.20369792     0.00025304     0.00009486    -0.00015043
H        -6.50399919    -0.05644067    -0.64851290     0.00055925    -0.00003479    -0.00003648
H        -6.53708465    -1.76280758     0.26425990    -0.00088434     0.00127114     0.00082772
H        -4.05648486    -1.51520969     0.64372967     0.00036157    -0.00003963    -0.00050682
C        -3.98388517     0.48533135    -0.13569702    -0.00035144     0.00017857     0.00005050
C        -2.60867972     0.57286432     0.10942105     0.00059475     0.00027965     0.00001743
H        -4.59343486     1.29033930    -0.60782872     0.00112439    -0.00066797    -0.00042453
H        -2.20373385    -0.22119326     0.68259884    -0.00089914     0.00148592    -0.00051008
C        -1.76256038     1.68385710    -0.18679505    -0.00085670    -0.00032293    -0.00034790
H        -2.15620201     2.50185450    -0.73069938    -0.00027219    -0.00065820     0.00017696
N        -0.57235902     1.75177175     0.38616609     0.00053753    -0.00000647     0.00041503
H         0.12349335     2.40916326     0.04964749     0.00012216     0.00045336     0.00003408
H        -0.17166150     0.87676411     0.81983374    -0.00087688    -0.00088219    -0.00093388
    14
  Step:     8            Position(A)                                  Velocity(au)
C        -5.97644323    -0.82326163    -0.05923011    -0.00024372    -0.00033010     0.00006226
C        -4.62743689    -0.68140649     0.20207879     0.00025549     0.00007224    -0.00014617
H        -6.49782904    -0.05716893    -0.64855368     0.00056254    -0.00009583     0.00002488
H        -6.54601415    -1.74719364     0.27276192    -0.00075473     0.00155842     0.00073259
H        -4.05281478    -1.51524690     0.63815576     0.00031094     0.00003390    -0.00051000
C        -3.98806057     0.48738020    -0.13528508    -0.00040845     0.00019181     0.00002634
C        -2.60174273     0.57619851     0.10960574     0.00066642     0.00033253     0.00001279
H        -4.58032194     1.28267849    -0.61199209     0.00124206    -0.00070033    -0.00035179
H        -2.21278398    -0.20589021     0.67778942    -0.00071941     0.00125293    -0.00032275
C        -1.77222257     1.68007473    -0.19056226    -0.00089690    -0.00036735    -0.00033514
H        -2.15925587     2.49586048    -0.72949715    -0.00029897    -0.00041544     0.00002745
N        -0.56621803     1.75160323     0.39079371     0.00057571    -0.00002352     0.00042572
H         0.12485465     2.41432338     0.05013520     0.00012538     0.00048068     0.00005952
H        -0.18201883     0.86880791     0.80891393    -0.00099500    -0.00058550    -0.00104881
    14
  Step:     9            Position(A)                                  Velocity(au)
C        -5.97932529    -0.82702010    -0.05854625    -0.00028029    -0.00035378     0.00006246
C        -4.62463013    -0.68073548     0.20050007     0.00025665     0.00005117    -0.00014307
H        -6.49169255    -0.05853709    -0.64796862     0.00055215    -0.00014986     0.00007657
H        -6.55359590    -1.72871407     0.28028667    -0.00064467     0.00178543     0.00065323
H        -4.04968243    -1.51446817     0.63257245     0.00026538     0.00010666    -0.00050725
C        -3.99282072     0.48952766    -0.13512068    -0.00045586     0.00019666     0.00000590
C        -2.59410042     0.58013903     0.10970091     0.00072134     0.00038786     0.00000199
H        -4.56626236     1.27501831    -0.61552484     0.00129297    -0.00066227    -0.00031456
H        -2.21947238    -0.19378300     0.67553798    -0.00047490     0.00091430    -0.00005232
C        -1.78218171     1.67582071    -0.19412698    -0.00091181    -0.00040662    -0.00031283
H        -2.16274246     2.49276605    -0.73009885    -0.00034594    -0.00014147    -0.00014415
N        -0.55976428     1.75125721     0.39547959     0.00059560    -0.00003793     0.00042599
H         0.12623636     2.41967912     0.05094963     0.00012577     0.00048908     0.00009358
H        -0.19342909     0.86395520     0.79688906    -0.00106424    -0.00032856    -0.00113050
    14
  Step:    10            Position(A)                                  Velocity(au)
C        -5.98257501    -0.83100126    -0.05786372    -0.00030973    -0.00037016     0.00006183
C        -4.62182209    -0.68028704     0.19894879     0.00025468     0.00003123    -0.00014119
H        -6.48574968    -0.06044742    -0.64687851     0.00052654    -0.00019335     0.00011613
H        -6.56011747    -1.70813387     0.28705267    -0.00056786     0.00193341     0.00059834
H        -4.04700900    -1.51291340     0.62705876     0.00022897     0.00017313    -0.00049605
C        -3.99803331     0.49168244    -0.13515603    -0.00048925     0.00019354    -0.00000977
C        -2.58596197     0.58468369     0.10964918     0.00075567     0.00043942    -0.00001239
H        -4.55203576     1.26819015    -0.61887369     0.00127063    -0.00054540    -0.00032173
H        -2.22317326    -0.18588823     0.67664488    -0.00018573     0.00050606     0.00027351
C        -1.79217025     1.67117904    -0.19740611    -0.00090317    -0.00043546    -0.00028500
H        -2.16682388     2.49276563    -0.73265067    -0.00040128     0.00013472    -0.00031916
N        -0.55318804     1.75077338     0.40011308     0.00059907    -0.00004784     0.00041655
H         0.12760618     2.42502299     0.05218247     0.00012343     0.00047898     0.00013559
H        -0.20530111     0.86161999     0.78418207    -0.00107594    -0.00013760    -0.00116959
    14
  Step:    11            Position(A)                                  Velocity(au)
C        -5.98610118    -0.83511816    -0.05719364    -0.00032983    -0.00037804     0.00005995
C        -4.61905850    -0.68005216     0.19741136     0.00024774     0.00001194    -0.00014059
H        -6.48017357    -0.06276705    -0.64542810     0.00048490    -0.00022358     0.00014171
H        -6.56601899    -1.68641699     0.29337641    -0.00053784     0.00198579     0.00057674
H        -4.04467335    -1.51068072     0.62172040     0.00020516     0.00022838    -0.00047420
C        -4.00352409     0.49376179    -0.13533435    -0.00050604     0.00018339    -0.00002019
C        -2.57756875     0.58975227     0.10942996     0.00076771     0.00047987    -0.00002648
H        -4.53846489     1.26308662    -0.62256333     0.00117491    -0.00034875    -0.00037719
H        -2.22353566    -0.18271195     0.68152154     0.00012060     0.00008114     0.00061466
C        -1.80194031     1.66629429    -0.20036179    -0.00087288    -0.00044863    -0.00025558
H        -2.17152119     2.49571338    -0.73708105    -0.00045248     0.00038286    -0.00047833
N        -0.54665856     1.75021071     0.40459239     0.00058808    -0.00005171     0.00039829
H         0.12893660     2.43015763     0.05391596     0.00011919     0.00045192     0.00018450
H        -0.21696742     0.86094483     0.77130200    -0.00102534    -0.00003423    -0.00116018
    14
  Step:    12            Position(A)                                  Velocity(au)
C        -5.98979071    -0.83927170    -0.05655225    -0.00033903    -0.00037659     0.00005636
C        -4.61640222    -0.68002573     0.19587321     0.00023463    -0.00000693    -0.00014135
H        -6.47514159    -0.06533862    -0.64377838     0.00042732    -0.00023890     0.00015228
H        -6.57188376    -1.66469096     0.29966994    -0.00056575     0.00193130     0.00059614
H        -4.04252073    -1.50791711     0.61668467     0.00019650     0.00026856    -0.00044007
C        -4.00910386     0.49569448    -0.13559770    -0.00050593     0.00016755    -0.00002567
C        -2.56916677     0.59518174     0.10906985     0.00075781     0.00050207    -0.00003602
H        -4.52633229     1.26056057    -0.62712551     0.00101402    -0.00008205    -0.00047735
H        -2.22053500    -0.18411319     0.69009181     0.00041554    -0.00030266     0.00092737
C        -1.81126613     1.66136448    -0.20299736    -0.00082297    -0.00044185    -0.00022800
H        -2.17672274     2.50114135    -0.74311501    -0.00048897     0.00057701    -0.00060537
N        -0.54032265     1.74964208     0.40882635     0.00056478    -0.00004872     0.00037231
H         0.13021380     2.43490967     0.05621877     0.00011471     0.00041077     0.00023886
H        -0.22773238     0.86087113     0.75880083    -0.00091262    -0.00003111    -0.00110102
    14
  Step:    13            Position(A)                                  Velocity(au)
C        -5.99351807    -0.84335688    -0.05596068    -0.00033671    -0.00036574     0.00005073
C        -4.61392552    -0.68020371     0.19431903     0.00021479    -0.00002542    -0.00014351
H        -6.47082519    -0.06799338    -0.64209658     0.00035479    -0.00023895     0.00014777
H        -6.57839587    -1.64416600     0.30641817    -0.00065708     0.00176824     0.00066100
H        -4.04037455    -1.50480548     0.61209295     0.00020430     0.00029114    -0.00039286
C        -4.01459219     0.49742730    -0.13589583    -0.00049048     0.00014806    -0.00002728
C        -2.56099025     0.60073606     0.10864202     0.00072730     0.00050041    -0.00003726
H        -4.51628125     1.26129171    -0.63300631     0.00080483     0.00023267    -0.00060995
H        -2.21444495    -0.18933321     0.70180948     0.00067592    -0.00059700     0.00117442
C        -1.81994432     1.65662805    -0.20534979    -0.00075539    -0.00041220    -0.00020489
H        -2.18221835     2.50833649    -0.75032458    -0.00050382     0.00069975    -0.00068942
N        -0.53430295     1.74914487     0.41273741     0.00053141    -0.00003903     0.00034001
H         0.13144614     2.43914401     0.05914148     0.00011230     0.00035954     0.00029683
H        -0.23693282     0.86026432     0.74721510    -0.00074377    -0.00012730    -0.00099659
    14
  Step:    14            Position(A)                                  Velocity(au)
C        -5.99715697    -0.84727290    -0.05544239    -0.00032346    -0.00034645     0.00004308
C        -4.61170323    -0.68058182     0.19273355     0.00018825    -0.00004350    -0.00014703
H        -6.46737982    -0.07056601    -0.64054567     0.00026921    -0.00022472     0.00012904
H        -6.58625875    -1.62600725     0.31413064    -0.00080814     0.00150819     0.00077013
H        -4.03805131    -1.50154791     0.60809011     0.00022840     0.00029528    -0.00033278
C        -4.01983394     0.49893352    -0.13619460    -0.00046243     0.00012759    -0.00002678
C        -2.55325571     0.60612915     0.10825473     0.00067792     0.00047175    -0.00002781
H        -4.50872499     1.26565072    -0.64046927     0.00057073     0.00056292    -0.00075506
H        -2.20574796    -0.19717370     0.71578455     0.00088765    -0.00077304     0.00133267
C        -1.82779175     1.65234690    -0.20747966    -0.00067196    -0.00035845    -0.00018788
H        -2.18774468     2.51644963    -0.75819742    -0.00049418     0.00074390    -0.00072602
N        -0.52869712     1.74878816     0.41626469     0.00049025    -0.00002404     0.00030303
H         0.13267057     2.44277540     0.06271242     0.00011470     0.00030312     0.00035623
H        -0.24400376     0.85808624     0.73699855    -0.00053045    -0.00030532    -0.00085732
    14
  Step:    15            Position(A)                                  Velocity(au)
C        -6.00059443    -0.85093614    -0.05501825    -0.00030114    -0.00032088     0.00003392
C        -4.60980708    -0.68115532     0.19110248     0.00015552    -0.00006113    -0.00015176
H        -6.46493578    -0.07290960    -0.63927364     0.00017322    -0.00019857     0.00009796
H        -6.59607541    -1.61117138     0.32326625    -0.00100359     0.00117750     0.00091480
H        -4.03537793    -1.49834559     0.60481277     0.00026701     0.00028206    -0.00026115
C        -4.02470884     0.50021865    -0.13648177    -0.00042507     0.00010909    -0.00002622
C        -2.54615956     0.61105646     0.10803369     0.00061162     0.00041584    -0.00000688
H        -4.50379538     1.27360668    -0.64952462     0.00033715     0.00087142    -0.00088871
H        -2.19502595    -0.20624500     0.73096411     0.00104572    -0.00082346     0.00139480
C        -1.83464476     1.64878618    -0.20945996    -0.00057452    -0.00028126    -0.00017761
H        -2.19302948     2.52461072    -0.76620756    -0.00046070     0.00071179    -0.00071643
N        -0.52357783     1.74861895     0.41936671     0.00044354    -0.00000626     0.00026319
H         0.13395551     2.44577542     0.06693461     0.00012471     0.00024672     0.00041471
H        -0.24853733     0.85358490     0.72845960    -0.00028878    -0.00053184    -0.00069834
    14
  Step:    16            Position(A)                                  Velocity(au)
C        -6.00374498    -0.85429286    -0.05470023    -0.00027273    -0.00029212     0.00002433
C        -4.60830100    -0.68191914     0.18941352     0.00011744    -0.00007831    -0.00015750
H        -6.46359028    -0.07491017    -0.63840250     0.00007013    -0.00016410     0.00005732
H        -6.60821412    -1.60024725     0.33414359    -0.00121720     0.00081440     0.00107878
H        -4.03220986    -1.49537735     0.60237693     0.00031676     0.00025445    -0.00018037
C        -4.02913318     0.50132007    -0.13676825    -0.00038158     0.00009513    -0.00002752
C        -2.53987540     0.61522636     0.10810416     0.00053076     0.00033510     0.00002484
H        -4.50134913     1.28471460    -0.65991141     0.00012657     0.00112368    -0.00098800
H        -2.18287076    -0.21518855     0.74629840     0.00115176    -0.00075791     0.00136627
C        -1.84036054     1.64619385    -0.21136530    -0.00046514    -0.00018310    -0.00017380
H        -2.19782347     2.53202146    -0.77387075    -0.00040635     0.00061291    -0.00066618
N        -0.51899376     1.74865114     0.42202242     0.00039335     0.00001107     0.00022228
H         0.13539878     2.44817290     0.07178499     0.00014469     0.00019524     0.00047001
H        -0.25032128     0.84645121     0.72172106    -0.00003697    -0.00076315    -0.00053687
    14
  Step:    17            Position(A)                                  Velocity(au)
C        -6.00656100    -0.85732676    -0.05448599    -0.00024188    -0.00026355     0.00001570
C        -4.60723785    -0.68286859     0.18765693     0.00007515    -0.00009510    -0.00016398
H        -6.46340156    -0.07649967    -0.63801956    -0.00003634    -0.00012595     0.00001063
H        -6.62270395    -1.59335491     0.34686658    -0.00141642     0.00046177     0.00124095
H        -4.02844831    -1.49277893     0.60086674     0.00037279     0.00021718    -0.00009379
C        -4.03305660     0.50229974    -0.13708386    -0.00033466     0.00008740    -0.00003207
C        -2.53454808     0.61838746     0.10857701     0.00043827     0.00023413     0.00006559
H        -4.50102632     1.29818927    -0.67113898    -0.00004520     0.00129462    -0.00103581
H        -2.16982895    -0.22282583     0.76085389     0.00121097    -0.00059603     0.00126027
C        -1.84482068     1.64478055    -0.21326225    -0.00034627    -0.00006817    -0.00017535
H        -2.20191911     2.53801939    -0.78078148    -0.00033533     0.00046139    -0.00058341
N        -0.51497265     1.74886104     0.42422949     0.00034139     0.00002469     0.00018183
H         0.13712091     2.45004676     0.07721699     0.00017614     0.00015260     0.00052027
H        -0.24934611     0.83688962     0.71671454     0.00020748    -0.00095411    -0.00038898
    14
  Step:    18            Position(A)                                  Velocity(au)
C        -6.00903651    -0.86005846    -0.05435680    -0.00021217    -0.00023815     0.00000943
C        -4.60665693    -0.68399953     0.18582609     0.00002994    -0.00011152    -0.00017092
H        -6.46438529    -0.07766547    -0.63816999    -0.00014225    -0.00008939    -0.00003810
H        -6.63920110    -1.59014524     0.36129166    -0.00156950     0.00015800     0.00137972
H        -4.02405437    -1.49062610     0.60032501     0.00042925     0.00017616    -0.00000544
C        -4.03645440     0.50323210    -0.13746979    -0.00028631     0.00008646    -0.00004051
C        -2.53028737     0.62034845     0.10953905     0.00033764     0.00011901     0.00011294
H        -4.50233791     1.31303684    -0.68257184    -0.00017027     0.00137168    -0.00102327
H        -2.15637847    -0.22822789     0.77386913     0.00122974    -0.00036122     0.00109313
C        -1.84793581     1.64470259    -0.21520136    -0.00022075     0.00005797    -0.00018051
H        -2.20515953     2.54211523    -0.78663394    -0.00025237     0.00027377    -0.00047762
N        -0.51152522     1.74919124     0.42600033     0.00028903     0.00003203     0.00014293
H         0.13925219     2.45151124     0.08316680     0.00021916     0.00012106     0.00056432
H        -0.24578218     0.82557812     0.71321138     0.00043017    -0.00106759    -0.00026682
    14
  Step:    19            Position(A)                                  Velocity(au)
C        -6.01120274    -0.86253680    -0.05427966    -0.00018656    -0.00021790     0.00000658
C        -4.60658286    -0.68530822     0.18391763    -0.00001684    -0.00012759    -0.00017804
H        -6.46651358    -0.07845522    -0.63885309    -0.00024371    -0.00005991    -0.00008470
H        -6.65703976    -1.58989826     0.37705061    -0.00165227    -0.00007026     0.00147769
H        -4.01905758    -1.48892513     0.60074774     0.00047982     0.00013776     0.00008037
C        -4.03932013     0.50419122    -0.13797005    -0.00023792     0.00009178    -0.00005277
C        -2.52716158     0.62099098     0.11104773     0.00023283    -0.00000332     0.00016408
H        -4.50475122     1.32819744    -0.69352490    -0.00024771     0.00135441    -0.00094963
H        -2.14292601    -0.23072817     0.78476828     0.00121434    -0.00007683     0.00088153
C        -1.84965010     1.64604881    -0.21721121    -0.00009176     0.00018879    -0.00018709
H        -2.20744026     2.54400862    -0.79123028    -0.00016227     0.00006764    -0.00035885
N        -0.50864961     1.74956172     0.42735640     0.00023721     0.00003168     0.00010613
H         0.14191539     2.45269511     0.08956256     0.00027217     0.00010087     0.00060193
H        -0.23993525     0.81353399     0.71087743     0.00062110    -0.00108081    -0.00017723
    14
  Step:    20            Position(A)                                  Velocity(au)
C        -6.01311787    -0.86482538    -0.05421295    -0.00016693    -0.00020354     0.00000762
C        -4.60702533    -0.68679073     0.18193115    -0.00006386    -0.00014324    -0.00018508
H        -6.46971694    -0.07897615    -0.64002288    -0.00033714    -0.00004263    -0.00012525
H        -6.67534771    -1.59168224     0.39361902    -0.00165193    -0.00021096     0.00152446
H        -4.01355745    -1.48761238     0.60208328     0.00051834     0.00010797     0.00015947
C        -4.04165935     0.50523998    -0.13862413    -0.00019041     0.00010202    -0.00006821
C        -2.52519374     0.62027586     0.11312872     0.00012798    -0.00012561     0.00021612
H        -4.50775701     1.34266723    -0.70334689    -0.00028147     0.00125154    -0.00082052
H        -2.12981235    -0.22990876     0.79315420     0.00117057     0.00023528     0.00064128
C        -1.84994322     1.64883274    -0.21929431     0.00003750     0.00031732    -0.00019264
H        -2.20870953     2.54359504    -0.79448440    -0.00006986    -0.00013905    -0.00023737
N        -0.50633589     1.74988427     0.42832222     0.00018652     0.00002353     0.00007149