|===============================================================================
|
|  DFTB+ release 20.1
|
|  Copyright (C) 2006 - 2020  DFTB+ developers group
|
|===============================================================================
|
|  When publishing results obtained with DFTB+, please cite the following
|  reference:
|
|  * DFTB+, a software package for efficient approximate density functional
|    theory based atomistic simulations, J. Chem. Phys. 152, 124101 (2020).
|    [doi: 10.1063/1.5143190]
|
|  You should also cite additional publications crediting the parametrization
|  data you use. Please consult the documentation of the SK-files for the
|  references.
|
|===============================================================================

Reading input file 'dftb_in.hsd'
Parser version: 8

--------------------------------------------------------------------------------
Reading SK-files:
Done.


Processed input in HSD format written to 'dftb_pin.hsd'

Starting initialization...
--------------------------------------------------------------------------------
WARNING!
-> Excited state forces are not implemented yet for fractional occupations, kT=  0.3158E-02K
OpenMP threads:              1
Chosen random seed:          435510138
Mode:                        Static calculation
Self consistent charges:     Yes
SCC-tolerance:                 0.100000E-05
Max. scc iterations:                    100
Shell resolved Hubbard:      No
Spin polarisation:           No
Nr. of up electrons:             6.000000
Nr. of down electrons:           6.000000
Periodic boundaries:         No
Electronic solver:           Relatively robust
Mixer:                       Broyden mixer
Mixing parameter:                  0.200000
Maximal SCC-cycles:                     100
Nr. of chrg. vec. in memory:              0
Electronic temperature:        0.100000E-07 H      0.272114E-06 eV
Initial charges:             Set automatically (system chrg:   0.100E+01)
Included shells:             C:  s, p
                             N:  s, p
                             H:  s
Extra options:
                             Mulliken analysis
                             Force calculation
Force type                   original
                             Eigenvector printing

--------------------------------------------------------------------------------

***  Geometry step: 0

 iSCC Total electronic   Diff electronic      SCC error    
    1   -0.52130218E+01    0.00000000E+00    0.11385614E+01
    2   -0.52459730E+01   -0.32951136E-01    0.67300224E+00
    3   -0.52550108E+01   -0.90378194E-02    0.32030901E+00
    4   -0.46287847E+01    0.62622606E+00    0.25904035E+01
    5   -0.52583174E+01   -0.62953267E+00    0.14561012E+00
    6   -0.52606449E+01   -0.23275416E-02    0.18592321E-01
    7   -0.52606626E+01   -0.17625997E-04    0.93178116E-02
    8   -0.52606672E+01   -0.46784735E-05    0.30435823E-02
    9   -0.52606683E+01   -0.10233882E-05    0.44252762E-03
   10   -0.52606683E+01   -0.15107347E-07    0.26809851E-04
   11   -0.52606683E+01   -0.70414785E-11    0.16945863E-04
   12   -0.52606683E+01    0.92751584E-10    0.33440045E-04
   13   -0.52606683E+01   -0.11555557E-09    0.36557712E-06
>> Charges saved for restart in charges.bin

Total Energy:                       -5.0213404888 H         -136.6376 eV
Extrapolated to 0:                  -5.1315982830 H         -139.6379 eV
Total Mermin free energy:           -5.0213404888 H         -136.6376 eV
Force related energy:               -5.1315982830 H         -139.6379 eV

--------------------------------------------------------------------------------
DFTB+ running times                          cpu [s]             wall clock [s]
--------------------------------------------------------------------------------
SCC                                    +     0.02  ( 57.9%)      0.04  ( 67.2%)
Post-SCC processing                    +     0.01  ( 35.8%)      0.02  ( 26.6%)
--------------------------------------------------------------------------------
Missing                                +     0.00  (  6.3%)      0.00  (  6.3%)
Total                                  =     0.03  (100.0%)      0.06  (100.0%)
--------------------------------------------------------------------------------
