     6
  Step:     0            Position(A)                                  Velocity(au)
C        -0.03041840     0.02226081     0.01521708     0.00004795    -0.00001859     0.00025627
N        -0.05023082    -0.04492944     1.29561251    -0.00007980     0.00003005    -0.00029626
H         0.88304237    -0.03364460    -0.52259006    -0.00038664     0.00009754     0.00060098
H         0.84619127    -0.21842400     1.89859980     0.00033000    -0.00023654     0.00036046
H        -0.87666504    -0.08717653     1.83756379     0.00076500     0.00002085     0.00035569
H        -1.00501368     0.02856064    -0.50714688    -0.00017083    -0.00007800    -0.00025391
     6
  Step:     1            Position(A)                                  Velocity(au)
C        -0.03017599     0.02216791     0.01650538     0.00004018    -0.00001531     0.00021364
N        -0.05060059    -0.04477270     1.29413154    -0.00005509     0.00002718    -0.00024412
H         0.88134136    -0.03312384    -0.51972265    -0.00023109     0.00009281     0.00044472
H         0.84752417    -0.21965705     1.90024153     0.00015444    -0.00021375     0.00023664
H        -0.87300363    -0.08709694     1.83989334     0.00057113     0.00000827     0.00049808
H        -1.00605727     0.02812172    -0.50875683    -0.00020777    -0.00008270    -0.00033280
     6
  Step:     2            Position(A)                                  Velocity(au)
C        -0.02997896     0.02209343     0.01755337     0.00003148    -0.00001189     0.00016870
N        -0.05083328    -0.04463224     1.29294290    -0.00003002     0.00002414    -0.00018970
H         0.88051527    -0.03262964    -0.51772675    -0.00006869     0.00008805     0.00028386
H         0.84788019    -0.22076148     1.90118762    -0.00002564    -0.00019006     0.00010744
H        -0.87041936    -0.08708612     1.84301068     0.00037457    -0.00000413     0.00064231
H        -1.00728581     0.02765629    -0.51078631    -0.00023833    -0.00008780    -0.00040762
     6
  Step:     3            Position(A)                                  Velocity(au)
C        -0.02983188     0.02203796     0.01834915     0.00002204    -0.00000838     0.00012164
N        -0.05092864    -0.04450881     1.29205818    -0.00000515     0.00002099    -0.00013323
H         0.88059056    -0.03216148    -0.51662022     0.00009681     0.00008352     0.00012079
H         0.84724398    -0.22173426     1.90141576    -0.00020730    -0.00016611    -0.00002486
H        -0.86890974    -0.08714205     1.84691350     0.00018113    -0.00001600     0.00078429
H        -1.00866208     0.02716214    -0.51321194    -0.00026184    -0.00009333    -0.00047825
     6
  Step:     4            Position(A)                                  Velocity(au)
C        -0.02973818     0.02200188     0.01888202     0.00001207    -0.00000482     0.00007269
N        -0.05088949    -0.04440295     1.29148765     0.00001898     0.00001776    -0.00007494
H         0.88157271    -0.03171742    -0.51640743     0.00026162     0.00007946    -0.00004207
H         0.84561596    -0.22257585     1.90091610    -0.00038771    -0.00014255    -0.00015801
H        -0.86844098    -0.08726089     1.85157713    -0.00000376    -0.00002703     0.00091996
H        -1.01014573     0.02663692    -0.51600999    -0.00027775    -0.00009931    -0.00054461
     6
  Step:     5            Position(A)                                  Velocity(au)
C        -0.02970014     0.02198534     0.01914254     0.00000177    -0.00000125     0.00002206
N        -0.05072147    -0.04431497     1.29124019     0.00004186     0.00001448    -0.00001508
H         0.88344628    -0.03129415    -0.51707948     0.00042193     0.00007611    -0.00020233
H         0.84301203    -0.22329019     1.89969102    -0.00056392    -0.00011998    -0.00028973
H        -0.86895082    -0.08743709     1.85695524    -0.00017519    -0.00003691     0.00104543
H        -1.01169382     0.02607816    -0.51915656    -0.00028561    -0.00010574    -0.00060663
     6
  Step:     6            Position(A)                                  Velocity(au)
C        -0.02971887     0.02198829     0.01912269    -0.00000864     0.00000230    -0.00002993
N        -0.05043288    -0.04424494     1.29132309     0.00006301     0.00001122     0.00004598
H         0.88617546    -0.03088717    -0.51861460     0.00057402     0.00007367    -0.00035761
H         0.83946425    -0.22388468     1.89775553    -0.00073277    -0.00009908    -0.00041755
H        -0.87035204    -0.08766352     1.86298141    -0.00032887    -0.00004536     0.00115708
H        -1.01326143     0.02548342    -0.52262760    -0.00028509    -0.00011261    -0.00066423
     6
  Step:     7            Position(A)                                  Velocity(au)
C        -0.02979435     0.02201044     0.01881619    -0.00001896     0.00000578    -0.00008292
N        -0.05003443    -0.04419267     1.29174154     0.00008200     0.00000801     0.00010779
H         0.88970497    -0.03049088    -0.52097855     0.00071435     0.00007233    -0.00050558
H         0.83502244    -0.22437047     1.89513840    -0.00089067    -0.00008057    -0.00053873
H        -0.87253661    -0.08793169     1.86957120    -0.00046132    -0.00005215     0.00125176
H        -1.01480218     0.02485035    -0.52639881    -0.00027592    -0.00011988    -0.00071726
     6
  Step:     8            Position(A)                                  Velocity(au)
C        -0.02992553     0.02205128     0.01821893    -0.00002900     0.00000914    -0.00013642
N        -0.04953915    -0.04415763     1.29249794     0.00009839     0.00000494     0.00016973
H         0.89396151    -0.03009883    -0.52412519     0.00083969     0.00007222    -0.00064406
H         0.82975647    -0.22476283     1.89188365    -0.00103356    -0.00006526    -0.00065023
H        -0.87538016    -0.08823197     1.87662487    -0.00056982    -0.00005709     0.00132680
H        -1.01626884     0.02417678    -0.53044536    -0.00025802    -0.00012750    -0.00076556
     6
  Step:     9            Position(A)                                  Velocity(au)
C        -0.03011038     0.02211007     0.01732950    -0.00003858     0.00001234    -0.00018986
N        -0.04896222    -0.04413887     1.29359123     0.00011178     0.00000208     0.00023105
H         0.89885572    -0.02970390    -0.52799733     0.00094721     0.00007343    -0.00077099
H         0.82375895    -0.22508161     1.88805240    -0.00115691    -0.00005404    -0.00074864
H        -0.87874638    -0.08855380     1.88403028    -0.00065252    -0.00006001     0.00138015
H        -1.01761398     0.02346086    -0.53474169    -0.00023140    -0.00013540    -0.00080892
     6
  Step:    10            Position(A)                                  Velocity(au)
C        -0.03034604     0.02218582     0.01614978    -0.00004757     0.00001534    -0.00024254
N        -0.04832090    -0.04413501     1.29501602     0.00012181    -0.00000048     0.00029085
H         0.90428457    -0.02929855    -0.53252774     0.00103459     0.00007603    -0.00088456
H         0.81714798    -0.22535181     1.88372462    -0.00125578    -0.00004792    -0.00083035
H        -0.88249161    -0.08888603     1.89166634    -0.00070843    -0.00006085     0.00141047
H        -1.01879076     0.02270112    -0.53926131    -0.00019629    -0.00014349    -0.00084712
     6
  Step:    11            Position(A)                                  Velocity(au)
C        -0.03062894     0.02227730     0.01468539    -0.00005582     0.00001808    -0.00029372
N        -0.04763432    -0.04414409     1.29676194     0.00012813    -0.00000262     0.00034813
H         0.91013440    -0.02887507    -0.53764048     0.00110012     0.00008002    -0.00098326
H         0.81006893    -0.22560397     1.87900027    -0.00132508    -0.00004791    -0.00089162
H        -0.88646936    -0.08921715     1.89940663    -0.00073741    -0.00005956     0.00141712
H        -1.01975385     0.02189658    -0.54397664    -0.00015309    -0.00015167    -0.00087995
     6
  Step:    12            Position(A)                                  Velocity(au)
C        -0.03095489     0.02238304     0.01294609    -0.00006324     0.00002053    -0.00034259
N        -0.04692331    -0.04416359     1.29881315     0.00013048    -0.00000424     0.00040184
H         0.91628387    -0.02842580    -0.54325242     0.00114270     0.00008536    -0.00106589
H         0.80269494    -0.22587436     1.87399940    -0.00135984    -0.00005506    -0.00092889
H        -0.89053478    -0.08953566     1.90712327    -0.00074016    -0.00005617     0.00140024
H        -1.02046052     0.02104680    -0.54885916    -0.00010242    -0.00015984    -0.00090726
     6
  Step:    13            Position(A)                                  Velocity(au)
C        -0.03131923     0.02250134     0.01094595    -0.00006975     0.00002263    -0.00038834
N        -0.04621005    -0.04419040     1.30114813     0.00012867    -0.00000524     0.00045095
H         0.92260737    -0.02794336    -0.54927498     0.00116197     0.00009198    -0.00113168
H         0.79522588    -0.22620496     1.86886113    -0.00135563    -0.00007033    -0.00093901
H        -0.89454848    -0.08983031     1.91469063    -0.00071809    -0.00005078     0.00136066
H        -1.02087176     0.02015190    -0.55387964    -0.00004512    -0.00016789    -0.00092898
     6
  Step:    14            Position(A)                                  Velocity(au)
C        -0.03171694     0.02263033     0.00870331    -0.00007530     0.00002438    -0.00043024
N        -0.04551759    -0.04422082     1.30373990     0.00012259    -0.00000551     0.00049451
H         0.92897876    -0.02742084    -0.55561634     0.00115824     0.00009979    -0.00118029
H         0.78788422    -0.22664278     1.86374040    -0.00130907    -0.00009453    -0.00091963
H        -0.89838018    -0.09009042     1.92198898    -0.00067327    -0.00004351     0.00129993
H        -1.02095344     0.01921257    -0.55900856     0.00001777    -0.00017573    -0.00094516
     6
  Step:    15            Position(A)                                  Velocity(au)
C        -0.03214277     0.02276795     0.00624047    -0.00007985     0.00002573    -0.00046761
N        -0.04486928    -0.04425069     1.30655655     0.00011230    -0.00000499     0.00053173
H         0.93527499    -0.02685194    -0.56218374     0.00113246     0.00010866    -0.00121182
H         0.78090864    -0.22723882     1.85880315    -0.00121826    -0.00012818    -0.00086952
H        -0.90191198    -0.09030613     1.92890793    -0.00060831    -0.00003454     0.00122016
H        -1.02067737     0.01822998    -0.56421678     0.00008504    -0.00018328    -0.00095597
     6
  Step:    16            Position(A)                                  Velocity(au)
C        -0.03259129     0.02291207     0.00358316    -0.00008339     0.00002668    -0.00049991
N        -0.04428795    -0.04427547     1.30956223     0.00009799    -0.00000363     0.00056205
H         0.94137893    -0.02623109    -0.56888545     0.00108611     0.00011844    -0.00122676
H         0.77454465    -0.22804629     1.85421940    -0.00108327    -0.00017143    -0.00078887
H        -0.90504100    -0.09046865     1.93534944    -0.00052623    -0.00002411     0.00112395
H        -1.02002225     0.01720571    -0.56947622     0.00015533    -0.00019048    -0.00096175
     6
  Step:    17            Position(A)                                  Velocity(au)
C        -0.03305700     0.02306047     0.00075985    -0.00008592     0.00002723    -0.00052676
N        -0.04379499    -0.04429049     1.31271837     0.00008004    -0.00000143     0.00058513
H         0.94718223    -0.02555348    -0.57563297     0.00102112     0.00012900    -0.00122598
H         0.76903261    -0.22911827     1.85015466    -0.00090645    -0.00022398    -0.00067948
H        -0.90768116    -0.09057041     1.94122999    -0.00043032    -0.00001244     0.00101421
H        -1.01897441     0.01614167    -0.57476060     0.00022721    -0.00019731    -0.00096292
     6
  Step:    18            Position(A)                                  Velocity(au)
C        -0.03353441     0.02321095    -0.00219908    -0.00008744     0.00002737    -0.00054793
N        -0.04340940    -0.04429112     1.31598510     0.00005898     0.00000159     0.00060091
H         0.95258762    -0.02481508    -0.58234289     0.00093970     0.00014020    -0.00121060
H         0.76459470    -0.23050494     1.84676083    -0.00069255    -0.00028499    -0.00054482
H        -0.90976452    -0.09060517     1.94648228    -0.00032398     0.00000021     0.00089406
H        -1.01752824     0.01503989    -0.58004608     0.00029917    -0.00020374    -0.00096002
     6
  Step:    19            Position(A)                                  Velocity(au)
C        -0.03401802     0.02336133    -0.00526218    -0.00008797     0.00002713    -0.00056331
N        -0.04314679    -0.04427305     1.31932275     0.00003552     0.00000532     0.00060960
H         0.95751012    -0.02401263    -0.58893813     0.00084424     0.00015190    -0.00118193
H         0.76142106    -0.23225050     1.84416672    -0.00044873    -0.00035306    -0.00038997
H        -0.91124194    -0.09056812     1.95105618    -0.00021072     0.00001357     0.00076671
H        -1.01568634     0.01390246    -0.58531178     0.00036975    -0.00020978    -0.00095365
     6
  Step:    20            Position(A)                                  Velocity(au)
C        -0.03450240     0.02350953    -0.00839770    -0.00008751     0.00002653    -0.00057292
N        -0.04301849    -0.04423255     1.32269314     0.00001053     0.00000965     0.00061158
H         0.96187766    -0.02314359    -0.59534886     0.00073716     0.00016397    -0.00114140
H         0.75965693    -0.23439006     1.84246963    -0.00018422    -0.00042628    -0.00022131
H        -0.91208328    -0.09045586     1.95491913    -0.00009393     0.00002740     0.00063533
H        -1.01345954     0.01273143    -0.59054001     0.00043747    -0.00021545    -0.00094441
     6
  Step:    21            Position(A)                                  Velocity(au)
C        -0.03498215     0.02365360    -0.01157416    -0.00008609     0.00002558    -0.00057691
N        -0.04303080    -0.04416669     1.32606065    -0.00001506     0.00001442     0.00060742
H         0.96563150    -0.02220612    -0.60151307     0.00062088     0.00017631    -0.00109046
H         0.75939149    -0.23694686     1.84172855     0.00009027    -0.00050227    -0.00004611
H        -0.91227683    -0.09026626     1.95805569     0.00002300     0.00004145     0.00050304
H        -1.01086669     0.01152884    -0.59571651     0.00050095    -0.00022077    -0.00093291
     6
  Step:    22            Position(A)                                  Velocity(au)
C        -0.03545199     0.02379170    -0.01476097    -0.00008373     0.00002432    -0.00057546
N        -0.04318458    -0.04407351     1.32939295    -0.00004023     0.00001943     0.00059775
H         0.96872596    -0.02119893    -0.60737667     0.00049775     0.00018880    -0.00103058
H         0.76065265    -0.23993014     1.84196099     0.00036334    -0.00057840     0.00012798
H        -0.91182961    -0.08999870     1.96046770     0.00013678     0.00005546     0.00037288
H        -1.00793405     0.01029635    -0.60083004     0.00055890    -0.00022580    -0.00091968
     6
  Step:    23            Position(A)                                  Velocity(au)
C        -0.03590673     0.02392218    -0.01792880    -0.00008044     0.00002278    -0.00056886
N        -0.04347508    -0.04395211     1.33266148    -0.00006400     0.00002449     0.00058330
H         0.97112805    -0.02012127    -0.61289349     0.00037003     0.00020136    -0.00096318
H         0.76340370    -0.24333392     1.84314183     0.00062349    -0.00065188     0.00029349
H        -0.91076641    -0.08965388     1.96217328     0.00024429     0.00006919     0.00024769
H        -1.00469489     0.00903536    -0.60587230     0.00061014    -0.00023060    -0.00090522
     6
  Step:    24            Position(A)                                  Velocity(au)
C        -0.03634129     0.02404356    -0.02104990    -0.00007626     0.00002099    -0.00055744
N        -0.04389217    -0.04380272     1.33584155    -0.00008545     0.00002941     0.00056477
H         0.97281678    -0.01897287    -0.61802500     0.00023985     0.00021390    -0.00088967
H         0.76754549    -0.24713684     1.84520565     0.00086013    -0.00072007     0.00044365
H        -0.90912893    -0.08923375     1.96320603     0.00034256     0.00008246     0.00013018
H        -1.00118874     0.00774697    -0.61083756     0.00065364    -0.00023523    -0.00088996
     6
  Step:    25            Position(A)                                  Velocity(au)
C        -0.03675076     0.02415454    -0.02409844    -0.00007123     0.00001899    -0.00054158
N        -0.04442087    -0.04362660     1.33891229    -0.00010379     0.00003400     0.00054284
H         0.97378267    -0.01775384    -0.62274026     0.00010925     0.00022637    -0.00081143
H         0.77292358    -0.25130355     1.84805210     0.00106429    -0.00078062     0.00057286
H        -0.90697495    -0.08874122     1.96361412     0.00042890     0.00009507     0.00002282
H        -0.99746050     0.00643187    -0.61572232     0.00068856    -0.00023976    -0.00087431
     6
  Step:    26            Position(A)                                  Velocity(au)
C        -0.03713051     0.02425401    -0.02705073    -0.00006541     0.00001682    -0.00052174
N        -0.04504217    -0.04342594     1.34185639    -0.00011839     0.00003813     0.00051817
H         0.97402730    -0.01646459    -0.62701585    -0.00001984     0.00023875    -0.00072986
H         0.77933809    -0.25578632     1.85155310     0.00122914    -0.00083167     0.00067704
H        -0.90437660    -0.08818035     1.96345886     0.00050093     0.00010686    -0.00007221
H        -0.99355928     0.00509037    -0.62052511     0.00071435    -0.00024429    -0.00085863
     6
  Step:    27            Position(A)                                  Velocity(au)
C        -0.03747626     0.02434106    -0.02988560    -0.00005888     0.00001450    -0.00049843
N        -0.04573407    -0.04320364     1.34465990    -0.00012886     0.00004169     0.00049137
H         0.97356262    -0.01510563    -0.63083587    -0.00014566     0.00025104    -0.00064633
H         0.78655722    -0.26052844     1.85556186     0.00135047    -0.00087201     0.00075380
H        -0.90141859    -0.08755596     1.96281314     0.00055670     0.00011771    -0.00015307
H        -0.98953691     0.00372216    -0.62524629     0.00073072    -0.00024896    -0.00084329
     6
  Step:    28            Position(A)                                  Velocity(au)
C        -0.03778423     0.02441501    -0.03258472    -0.00005174     0.00001208    -0.00047223
N        -0.04647282    -0.04296306     1.34731196    -0.00013500     0.00004462     0.00046299
H         0.97241009    -0.01367740    -0.63419189    -0.00026666     0.00026330    -0.00056219
H         0.79433198    -0.26546799     1.85992236     0.00142673    -0.00090116     0.00080245
H        -0.89819569    -0.08687342     1.96175932     0.00059475     0.00012758    -0.00021835
H        -0.98544633     0.00232628    -0.62988797     0.00073771    -0.00025391    -0.00082864
     6
  Step:    29            Position(A)                                  Velocity(au)
C        -0.03805123     0.02447534    -0.03513291    -0.00004183     0.00001132    -0.00048261
N        -0.04723410    -0.04270779     1.34980452    -0.00013748     0.00004664     0.00046352
H         0.97059953    -0.01217995    -0.63708275    -0.00040868     0.00032598    -0.00044395
H         0.80241060    -0.27054184     1.86447845     0.00143768    -0.00098229     0.00080312
H        -0.89480990    -0.08613832     1.96038686     0.00062846     0.00018629    -0.00027100
H        -0.98133971     0.00090083    -0.63445392     0.00075136    -0.00031315    -0.00077858
     6
  Step:    30            Position(A)                                  Velocity(au)
C        -0.03824930     0.02454090    -0.03795078    -0.00002951     0.00001246    -0.00053327
N        -0.04800142    -0.04244442     1.35246575    -0.00013618     0.00004729     0.00049639
H         0.96786603    -0.01005289    -0.63912818    -0.00057082     0.00042883    -0.00029153
H         0.81031744    -0.27639001     1.86885214     0.00138492    -0.00110177     0.00075608
H        -0.89120793    -0.08480206     1.95874606     0.00065718     0.00028414    -0.00031660
H        -0.97709198    -0.00115565    -0.63854495     0.00077285    -0.00041693    -0.00069157
     6
  Step:    31            Position(A)                                  Velocity(au)
C        -0.03837958     0.02461397    -0.04106566    -0.00001745     0.00001382    -0.00058519
N        -0.04874917    -0.04218166     1.35532705    -0.00013048     0.00004671     0.00053163
H         0.96424902    -0.00740912    -0.64032607    -0.00072318     0.00051564    -0.00014177
H         0.81781814    -0.28279929     1.87288998     0.00129370    -0.00118944     0.00068526
H        -0.88749864    -0.08297713     1.95686463     0.00066477     0.00036568    -0.00035289
H        -0.97274151    -0.00373761    -0.64214787     0.00078589    -0.00050575    -0.00060508
     6
  Step:    32            Position(A)                                  Velocity(au)
C        -0.03844359     0.02469478    -0.04446464    -0.00000574     0.00001518    -0.00063377
N        -0.04945382    -0.04192451     1.35838336    -0.00012076     0.00004536     0.00056500
H         0.95981629    -0.00431325    -0.64070626    -0.00086181     0.00059218     0.00000103
H         0.82471779    -0.28962976     1.87647989     0.00117074    -0.00125452     0.00059686
H        -0.88380831    -0.08073159     1.95481799     0.00064921     0.00043627    -0.00037429
H        -0.96834412    -0.00678521    -0.64528015     0.00078841    -0.00058512    -0.00052300
     6
  Step:    33            Position(A)                                  Velocity(au)
C        -0.03844349     0.02478298    -0.04812339     0.00000550     0.00001646    -0.00067757
N        -0.05009400    -0.04167658     1.36161894    -0.00010745     0.00004345     0.00059514
H         0.95465191    -0.00081458    -0.64031463    -0.00098417     0.00066072     0.00013436
H         0.83085556    -0.29676965     1.87953667     0.00102215    -0.00130148     0.00049544
H        -0.88026908    -0.07811881     1.95269654     0.00061000     0.00049811    -0.00037898
H        -0.96396180    -0.01025357    -0.64797202     0.00077964    -0.00065730    -0.00044724
     6
  Step:    34            Position(A)                                  Velocity(au)
C        -0.03838231     0.02487809    -0.05201242     0.00001612     0.00001764    -0.00071595
N        -0.05065078    -0.04144050     1.36501298    -0.00009101     0.00004114     0.00062143
H         0.94885305     0.00304684    -0.63920951    -0.00108817     0.00072278     0.00025625
H         0.83610407    -0.30412761     1.88199887     0.00085386    -0.00133378     0.00038507
H        -0.87701322    -0.07518290     1.95059636     0.00054760     0.00055277    -0.00036649
H        -0.95965928    -0.01410717    -0.65026222     0.00075932    -0.00072376    -0.00037909
     6
  Step:    35            Position(A)                                  Velocity(au)
C        -0.03826393     0.02497952    -0.05610003     0.00002595     0.00001872    -0.00074873
N        -0.05110793    -0.04121820     1.36854245    -0.00007193     0.00003856     0.00064364
H         0.94252833     0.00723808    -0.63745964    -0.00117195     0.00077963     0.00036504
H         0.84036861    -0.31162964     1.88382680     0.00067143    -0.00135446     0.00026936
H        -0.87416816    -0.07196027     1.94861340     0.00046330     0.00060158    -0.00033730
H        -0.95550199    -0.01831718    -0.65219556     0.00072747    -0.00078575    -0.00031943
     6
  Step:    36            Position(A)                                  Velocity(au)
C        -0.03809316     0.02508669    -0.06035404     0.00003485     0.00001971    -0.00077591
N        -0.05145212    -0.04101091     1.37218380    -0.00005073     0.00003581     0.00066179
H         0.93579637     0.01173269    -0.63514263    -0.00123382     0.00083239     0.00045929
H         0.84358453    -0.31921763     1.88499980     0.00047991    -0.00136622     0.00015145
H        -0.87185160    -0.06848072     1.94683847     0.00035920     0.00064573    -0.00029266
H        -0.95155452    -0.02286124    -0.65382100     0.00068433    -0.00084440    -0.00026881
     6
  Step:    37            Position(A)                                  Velocity(au)
C        -0.03787572     0.02519905    -0.06474283     0.00004264     0.00002060    -0.00079761
N        -0.05167299    -0.04081934     1.37591411    -0.00002794     0.00003297     0.00067603
H         0.92878492     0.01651000    -0.63234360    -0.00127214     0.00088205     0.00053778
H         0.84571429    -0.32684790     1.88551380     0.00028373    -0.00137145     0.00003404
H        -0.87016705    -0.06476755     1.94535345     0.00023816     0.00068627    -0.00023445
H        -0.94787927    -0.02772287    -0.65518980     0.00063039    -0.00090062    -0.00022742
     6
  Step:    38            Position(A)                                  Velocity(au)
C        -0.03761839     0.02531609    -0.06923571     0.00004912     0.00002140    -0.00081397
N        -0.05176321    -0.04064374     1.37971168    -0.00000409     0.00003013     0.00068656
H         0.92163065     0.02155458    -0.62915426    -0.00128528     0.00092945     0.00059938
H         0.84674395    -0.33448917     1.88537881     0.00008683    -0.00137215    -0.00008057
H        -0.86919961    -0.06083884     1.94422778     0.00010371     0.00072407    -0.00016509
H        -0.94453486    -0.03289001    -0.65635345     0.00056633    -0.00095515    -0.00019518
     6
  Step:    39            Position(A)                                  Velocity(au)
C        -0.03732901     0.02543730    -0.07380305     0.00005409     0.00002211    -0.00082511
N        -0.05171856    -0.04048398     1.38355620     0.00002024     0.00002734     0.00069359
H         0.91447862     0.02685565    -0.62567193    -0.00127164     0.00097532     0.00064311
H         0.84668078    -0.34212120     1.88461701    -0.00010719    -0.00137009    -0.00019031
H        -0.86901262    -0.05670798     1.94351590    -0.00003999     0.00075983    -0.00008742
H        -0.94157548    -0.03835453    -0.65736234     0.00049296    -0.00100852    -0.00017175
     6
  Step:    40            Position(A)                                  Velocity(au)
C        -0.03701652     0.02556214    -0.07841613     0.00005737     0.00002272    -0.00083110
N        -0.05153802    -0.04033956     1.38742881     0.00004448     0.00002467     0.00069730
H         0.90748196     0.03240630    -0.62199885    -0.00122979     0.00102021     0.00066810
H         0.84555130    -0.34973328     1.88326131    -0.00029496    -0.00136678    -0.00029335
H        -0.86964456    -0.05238471     1.94325515    -0.00018828     0.00079405    -0.00000462
H        -0.93904999    -0.04411114    -0.65826445     0.00041132    -0.00106107    -0.00015660
     6
  Step:    41            Position(A)                                  Velocity(au)
C        -0.03669091     0.02569000    -0.08304684     0.00005876     0.00002320    -0.00083201
N        -0.05122388    -0.04020961     1.39131180     0.00006801     0.00002219     0.00069784
H         0.90080048     0.03820275    -0.61824107    -0.00115872     0.00106456     0.00067381
H         0.84340012    -0.35732291     1.88135433    -0.00047323    -0.00136352    -0.00038792
H        -0.87110674    -0.04787633     1.94346449    -0.00033612     0.00082701     0.00007993
H        -0.93700066    -0.05015614    -0.65910406     0.00032270    -0.00111293    -0.00014895
     6
  Step:    42            Position(A)                                  Velocity(au)
C        -0.03636310     0.02582016    -0.08766761     0.00005812     0.00002354    -0.00082790
N        -0.05078176    -0.04009284     1.39518838     0.00009024     0.00001997     0.00069534
H         0.89459757     0.04424362    -0.61450641    -0.00105811     0.00110869     0.00066008
H         0.84028925    -0.36489491     1.87894783    -0.00063881    -0.00136155    -0.00047240
H        -0.87338197    -0.04318886     1.94414388    -0.00047829     0.00085879     0.00016281
H        -0.93546176    -0.05648636    -0.65992071     0.00022870    -0.00116404    -0.00014788
     6
  Step:    43            Position(A)                                  Velocity(au)
C        -0.03604473     0.02595174    -0.09225147     0.00005535     0.00002370    -0.00081888
N        -0.05022063    -0.03998755     1.39904262     0.00011055     0.00001811     0.00068992
H         0.88903625     0.05052929    -0.61090222    -0.00092861     0.00115284     0.00062730
H         0.83629777    -0.37246080     1.87610215    -0.00078861    -0.00136203    -0.00054524
H        -0.87642442    -0.03832815     1.94527468    -0.00060970     0.00088934     0.00024077
H        -0.93445800    -0.06309810    -0.66074825     0.00013119    -0.00121420    -0.00015231
     6
  Step:    44            Position(A)                                  Velocity(au)
C        -0.03574772     0.02608365    -0.09677231     0.00005044     0.00002364    -0.00080517
N        -0.04955266    -0.03989152     1.40285918     0.00012839     0.00001668     0.00068170
H         0.88427285     0.05706140    -0.60753182    -0.00077214     0.00119717     0.00057657
H         0.83152118    -0.38003858     1.87288562    -0.00091970    -0.00136611    -0.00060506
H        -0.88016088    -0.03330078     1.94682092    -0.00072563     0.00091844     0.00031085
H        -0.93400312    -0.06998636    -0.66161412     0.00003231    -0.00126310    -0.00016102
     6