     6
  Step:   300            Position(A)                                  Velocity(au)
C        -0.02021564    -0.00447432     0.02788847    -0.00004263    -0.00001293    -0.00006848
N        -0.03457985    -0.04990743     1.28830279     0.00015228     0.00005456     0.00006734
H         0.11186635    -0.85497269    -0.64236577    -0.00155010     0.00015631    -0.00028089
H        -0.26176863     0.80053731     1.83882831    -0.00255518    -0.00069737     0.00026738
H        -0.25659204    -0.86852336     1.85695608     0.00080442     0.00001545     0.00035044
H        -0.08501916     1.00002815    -0.39643007     0.00169261    -0.00007845    -0.00045674
