     6
  Step:     0            Position(A)                                  Velocity(au)
C        -0.03448497     0.01317014     0.01787595     0.00006902    -0.00005499     0.00009827
N        -0.04741800    -0.06257190     1.29922036     0.00003714    -0.00007745    -0.00015401
H         0.91403675     0.01245143    -0.54803329    -0.00072382     0.00020669     0.00072328
H         0.86615011    -0.07019582     1.89618871    -0.00085907     0.00067271    -0.00022265
H        -0.90058920    -0.00297323     1.80440399     0.00034592     0.00036430     0.00065916
H        -1.02267323     0.10352511    -0.52795220    -0.00010159     0.00048784    -0.00019069
     6
  Step:     1            Position(A)                                  Velocity(au)
C        -0.03411193     0.01287984     0.01827398     0.00006667    -0.00005113     0.00004707
N        -0.04715165    -0.06300990     1.29851058     0.00005946    -0.00008278    -0.00010516
H         0.91010538     0.01358607    -0.54425872    -0.00070620     0.00020830     0.00065199
H         0.86093448    -0.06648915     1.89467538    -0.00104072     0.00068276    -0.00032691
H        -0.89913879    -0.00093707     1.80839738     0.00018781     0.00038050     0.00079821
H        -1.02312317     0.10619348    -0.52908695    -0.00006156     0.00048800    -0.00022297
     6
  Step:     2            Position(A)                                  Velocity(au)
C        -0.03375582     0.01261098     0.01839078     0.00006284    -0.00004719    -0.00000430
N        -0.04676773    -0.06347726     1.29807024     0.00007988    -0.00008821    -0.00005572
H         0.90631311     0.01472958    -0.54090258    -0.00067320     0.00021005     0.00057061
H         0.85476793    -0.06272858     1.89261336    -0.00120546     0.00069283    -0.00042208
H        -0.89853517     0.00118824     1.81313396     0.00003872     0.00039689     0.00092971
H        -1.02334653     0.10886236    -0.53039078    -0.00001897     0.00048829    -0.00025280
     6
  Step:     3            Position(A)                                  Velocity(au)
C        -0.03342479     0.01236390     0.01822695     0.00005751    -0.00004319    -0.00005533
N        -0.04627823    -0.06397439     1.29790136     0.00009784    -0.00009369    -0.00000610
H         0.90274462     0.01588280    -0.53801959    -0.00062467     0.00021194     0.00047928
H         0.84775392    -0.05891367     1.89006031    -0.00134915     0.00070299    -0.00050520
H        -0.89871541     0.00340257     1.81856285    -0.00009685     0.00041300     0.00105032
H        -1.02333055     0.11153251    -0.53185103     0.00002576     0.00048867    -0.00028044
     6
  Step:     4            Position(A)                                  Velocity(au)
C        -0.03312708     0.01213878     0.01778590     0.00005069    -0.00003918    -0.00010548
N        -0.04569818    -0.06450143     1.29800359     0.00011278    -0.00009915     0.00004323
H         0.89948421     0.01704646    -0.53566307    -0.00056090     0.00021392     0.00037840
H         0.84001899    -0.05504355     1.88709048    -0.00146741     0.00071329    -0.00057314
H        -0.89959388     0.00570320     1.82461609    -0.00021509     0.00042835     0.00115708
H        -1.02306490     0.11420451    -0.53345654     0.00007215     0.00048908    -0.00030616
     6
  Step:     5            Position(A)                                  Velocity(au)
C        -0.03287072     0.01193568     0.01707390     0.00004242    -0.00003516    -0.00015423
N        -0.04504543    -0.06505819     1.29837386     0.00012422    -0.00010455     0.00009171
H         0.89661345     0.01822110    -0.53388331    -0.00048263     0.00021594     0.00026871
H         0.83171371    -0.05111667     1.88379538    -0.00155577     0.00072390    -0.00062269
H        -0.90106650     0.00808481     1.83121088    -0.00031300     0.00044244     0.00124748
H        -1.02254188     0.11687866    -0.53519763     0.00011969     0.00048947    -0.00033021
     6
  Step:     6            Position(A)                                  Velocity(au)
C        -0.03266338     0.01175450     0.01610004     0.00003281    -0.00003116    -0.00020103
N        -0.04434031    -0.06564425     1.29900603     0.00013174    -0.00010983     0.00013874
H         0.89420857     0.01940696    -0.53272574    -0.00039112     0.00021795     0.00015133
H         0.82301277    -0.04713054     1.88028385    -0.00160985     0.00073501    -0.00065071
H        -0.90301534     0.01053958     1.83825237    -0.00038848     0.00045486     0.00131957
H        -1.02175660     0.11955496    -0.53706604     0.00016782     0.00048979    -0.00035283
     6
  Step:     7            Position(A)                                  Velocity(au)
C        -0.03251203     0.01159502     0.01487616     0.00002202    -0.00002722    -0.00024540
N        -0.04360525    -0.06625894     1.29989066     0.00013499    -0.00011497     0.00018371
H         0.89233758     0.02060385    -0.53222888    -0.00028819     0.00021987     0.00002774
H         0.81411429    -0.04308125     1.87668160    -0.00162565     0.00074693    -0.00065431
H        -0.90531351     0.01305745     1.84563687    -0.00044032     0.00046521     0.00137205
H        -1.02070720     0.12223316    -0.53905487     0.00021597     0.00048998    -0.00037427
     6
  Step:     8            Position(A)                                  Velocity(au)
C        -0.03242264     0.01145687     0.01341664     0.00001025    -0.00002336    -0.00028689
N        -0.04286425    -0.06690140     1.30101487     0.00013376    -0.00011993     0.00022599
H         0.89105728     0.02181113    -0.53242237    -0.00017618     0.00022159    -0.00010022
H         0.80523674    -0.03896309     1.87312914    -0.00159996     0.00076003    -0.00063112
H        -0.90783015     0.01562648     1.85325529    -0.00046824     0.00047320     0.00140427
H        -1.01939501     0.12491278    -0.54115860     0.00026353     0.00049004    -0.00039479
     6
  Step:     9            Position(A)                                  Velocity(au)
C        -0.03239995     0.01133954     0.01173814    -0.00000224    -0.00001960    -0.00032511
N        -0.04214220    -0.06757068     1.30236249     0.00012796    -0.00012469     0.00026498
H         0.89041052     0.02302760    -0.53332508    -0.00005789     0.00022302    -0.00023043
H         0.79661395    -0.03476808     1.86977836    -0.00153067     0.00077475    -0.00057955
H        -0.91043512     0.01823329     1.86099680    -0.00047277     0.00047862     0.00141626
H        -1.01782474     0.12759324    -0.54337306     0.00030986     0.00048996    -0.00041463
     6
  Step:    10            Position(A)                                  Velocity(au)
C        -0.03244718     0.01124237     0.00985926    -0.00001516    -0.00001598    -0.00035975
N        -0.04146410    -0.06826577     1.30391432     0.00011766    -0.00012926     0.00030020
H         0.89042388     0.02425139    -0.53494374     0.00006355     0.00022403    -0.00036056
H         0.78848808    -0.03048572     1.86678768    -0.00141723     0.00079158    -0.00049906
H        -0.91300319     0.02086354     1.86875214    -0.00045514     0.00048135     0.00140862
H        -1.01600453     0.13027401    -0.54569547     0.00035433     0.00048977    -0.00043405
     6
  Step:    11            Position(A)                                  Velocity(au)
C        -0.03256586     0.01116459     0.00780011    -0.00002817    -0.00001251    -0.00039057
N        -0.04085419    -0.06898568     1.30564870     0.00010310    -0.00013365     0.00033127
H         0.89110617     0.02548000    -0.53727200     0.00018479     0.00022451    -0.00048818
H         0.78109998    -0.02610290     1.86431533    -0.00126096     0.00081098    -0.00039044
H        -0.91541736     0.02350244     1.87641653    -0.00041715     0.00048135     0.00138244
H        -1.01394597     0.13295466    -0.54812443     0.00039632     0.00048952    -0.00045331
     6
  Step:    12            Position(A)                                  Velocity(au)
C        -0.03275570     0.01110532     0.00558188    -0.00004096    -0.00000922    -0.00041742
N        -0.04033501    -0.06972946     1.30754227     0.00008467    -0.00013786     0.00035795
H         0.89244768     0.02671020    -0.54029017     0.00030247     0.00022433    -0.00061089
H         0.77467838    -0.02160415     1.86251170    -0.00106526     0.00083330    -0.00025595
H        -0.91757169     0.02613520     1.88389222    -0.00036105     0.00047869     0.00133923
H        -1.01166410     0.13563506    -0.55065995     0.00043522     0.00048925    -0.00047265
     6
  Step:    13            Position(A)                                  Velocity(au)
C        -0.03301460     0.01106361     0.00322645    -0.00005318    -0.00000610    -0.00044021
N        -0.03992643    -0.07049622     1.30957073     0.00006297    -0.00014190     0.00038016
H         0.89442038     0.02793801    -0.54396548     0.00041334     0.00022335    -0.00072635
H         0.76942789    -0.01697237     1.86151084    -0.00083569     0.00085876    -0.00009941
H        -0.91937338     0.02874743     1.89109048    -0.00028940     0.00047346     0.00128079
H        -1.00917729     0.13831535    -0.55330331     0.00047042     0.00048903    -0.00049232
     6
  Step:    14            Position(A)                                  Velocity(au)
C        -0.03333867     0.01103844     0.00075603    -0.00006452    -0.00000318    -0.00045891
N        -0.03964473    -0.07128506     1.31170975     0.00003871    -0.00014576     0.00039796
H         0.89697891     0.02915871    -0.54825287     0.00051437     0.00022144    -0.00083245
H         0.76551707    -0.01218991     1.86142196    -0.00057986     0.00088729     0.00007393
H        -0.92074424     0.03132553     1.89793298    -0.00020495     0.00046582     0.00120911
H        -1.00650714     0.14099606    -0.55605700     0.00050134     0.00048891    -0.00051248
     6
  Step:    15            Position(A)                                  Velocity(au)
C        -0.03372234     0.01102875    -0.00180707    -0.00007470    -0.00000045    -0.00047350
N        -0.03950180    -0.07209502     1.31393573     0.00001277    -0.00014942     0.00041154
H         0.90006228     0.03036683    -0.55309623     0.00060293     0.00021845    -0.00092728
H         0.76306776    -0.00724013     1.86232171    -0.00030708     0.00091851     0.00025752
H        -0.92162135     0.03385683     1.90435254    -0.00011054     0.00045597     0.00112625
H        -1.00367838     0.14367793    -0.55892443     0.00052743     0.00048892    -0.00053327
     6
  Step:    16            Position(A)                                  Velocity(au)
C        -0.03415853     0.01103345    -0.00444064    -0.00008345     0.00000207    -0.00048401
N        -0.03950460    -0.07292497     1.31622643    -0.00001393    -0.00015283     0.00042119
H         0.90359611     0.03155617    -0.55842980     0.00067680     0.00021425    -0.00100922
H         0.76214690    -0.00210923     1.86424823    -0.00002789     0.00095171     0.00044396
H        -0.92195747     0.03632983     1.91029357    -0.00000910     0.00044412     0.00103437
H        -1.00071864     0.14636193    -0.56190959     0.00054816     0.00048906    -0.00055473
     6
  Step:    17            Position(A)                                  Velocity(au)
C        -0.03463886     0.01105147    -0.00712262    -0.00009056     0.00000439    -0.00049046
N        -0.03965474    -0.07377345     1.31856138    -0.00004038    -0.00015591     0.00042723
H         0.90749511     0.03271980    -0.56417978     0.00073421     0.00020872    -0.00107692
H         0.76276141     0.00321185     1.86719739     0.00024658     0.00098582     0.00062540
H        -0.92172132     0.03873429     1.91571227     0.00009643     0.00043050     0.00093562
H        -0.99765831     0.14904898    -0.56501662     0.00056306     0.00048931    -0.00057682
     6
  Step:    18            Position(A)                                  Velocity(au)
C        -0.03515387     0.01108169    -0.00983115    -0.00009585     0.00000651    -0.00049288
N        -0.03994841    -0.07463859     1.32092203    -0.00006562    -0.00015858     0.00043001
H         0.91166566     0.03385017    -0.57026594     0.00077393     0.00020175    -0.00112937
H         0.76485697     0.00872563     1.87112179     0.00050538     0.00101949     0.00079410
H        -0.92089767     0.04106132     1.92057675     0.00020308     0.00041537     0.00083222
H        -0.99453020     0.15173986    -0.56824926     0.00057172     0.00048962    -0.00059940
     6
  Step:    19            Position(A)                                  Velocity(au)
C        -0.03569327     0.01112305    -0.01254457    -0.00009920     0.00000842    -0.00049132
N        -0.04037664    -0.07551797     1.32329170    -0.00008875    -0.00016074     0.00042985
H         0.91600876     0.03493915    -0.57660339     0.00079528     0.00019325    -0.00116590
H         0.76832088     0.01442674     1.87593286     0.00073841     0.00105121     0.00094296
H        -0.91948737     0.04330353     1.92486717     0.00030792     0.00039898     0.00072639
H        -0.99136910     0.15443502    -0.57161031     0.00057385     0.00048988    -0.00062223
     6
  Step:    20            Position(A)                                  Velocity(au)
C        -0.03624627     0.01117444    -0.01524151    -0.00010056     0.00001014    -0.00048587
N        -0.04092574    -0.07640861     1.32565544    -0.00010898    -0.00016228     0.00042705
H         0.92042309     0.03597815    -0.58310463     0.00079815     0.00018316    -0.00118627
H         0.77298814     0.02030134     1.88150542     0.00093717     0.00107943     0.00106604
H        -0.91750694     0.04545486     1.92857557     0.00040803     0.00038168     0.00062038
H        -0.98821112     0.15713435    -0.57510107     0.00056931     0.00049003    -0.00064497
     6
  Step:    21            Position(A)                                  Velocity(au)
C        -0.03680189     0.01123479    -0.01790108    -0.00009993     0.00001165    -0.00047667
N        -0.04157806    -0.07730700     1.32799970    -0.00012567    -0.00016312     0.00042186
H         0.92480796     0.03695840    -0.58968146     0.00078298     0.00017149    -0.00119061
H         0.77865276     0.02632689     1.88768546     0.00109540     0.00110267     0.00115899
H        -0.91498901     0.04751138     1.93170660     0.00050057     0.00036385     0.00051653
H        -0.98509275     0.15983731    -0.57872080     0.00055817     0.00048997    -0.00066724
     6
  Step:    22            Position(A)                                  Velocity(au)
C        -0.03734931     0.01130303    -0.02050325    -0.00009737     0.00001297    -0.00046394
N        -0.04231295    -0.07820922     1.33031211    -0.00013840    -0.00016322     0.00041449
H         0.92906603     0.03787115    -0.59624711     0.00075073     0.00015829    -0.00117946
H         0.78507964     0.03247317     1.89429895     0.00120922     0.00111980     0.00121924
H        -0.91198138     0.04947125     1.93427729     0.00058291     0.00034591     0.00041710
H        -0.98204979     0.16254283    -0.58246636     0.00054071     0.00048963    -0.00068860
     6
  Step:    23            Position(A)                                  Velocity(au)
C        -0.03787815     0.01137815    -0.02302914    -0.00009301     0.00001411    -0.00044797
N        -0.04310786    -0.07911113     1.33258123    -0.00014694    -0.00016256     0.00040515
H         0.93310597     0.03870802    -0.60271837     0.00070283     0.00014365    -0.00115383
H         0.79201865     0.03870430     1.90116201     0.00127730     0.00113000     0.00124602
H        -0.90854596     0.05133485     1.93631694     0.00065273     0.00032831     0.00032425
H        -0.97911612     0.16524934    -0.58633205     0.00051745     0.00048898    -0.00070864
     6
  Step:    24            Position(A)                                  Velocity(au)
C        -0.03837883     0.01145916    -0.02546146    -0.00008705     0.00001507    -0.00042911
N        -0.04393933    -0.08000853     1.33479642    -0.00015125    -0.00016118     0.00039400
H         0.93684516     0.03946116    -0.60901803     0.00064116     0.00012772    -0.00111511
H         0.79921714     0.04498038     1.90809028     0.00130057     0.00113293     0.00124029
H        -0.90475671     0.05310512     1.93786616     0.00070818     0.00031154     0.00023992
H        -0.97632250     0.16795506    -0.59030975     0.00048912     0.00048804    -0.00072699
     6
  Step:    25            Position(A)                                  Velocity(au)
C        -0.03884286     0.01154515    -0.02778492    -0.00007969     0.00001587    -0.00040783
N        -0.04478409    -0.08089743     1.33694784    -0.00015146    -0.00015914     0.00038124
H         0.94021176     0.04012350    -0.61507691     0.00056785     0.00011065    -0.00106503
H         0.80643251     0.05126034     1.91490788     0.00128204     0.00112874     0.00120447
H        -0.90069741     0.05478759     1.93897590     0.00074785     0.00029608     0.00016579
H        -0.97369528     0.17065822    -0.59438914     0.00045667     0.00048688    -0.00074338
     6
  Step:    26            Position(A)                                  Velocity(au)
C        -0.03926307     0.01163530    -0.02998667    -0.00007121     0.00001655    -0.00038461
N        -0.04561994    -0.08177433     1.33902654    -0.00014788    -0.00015657     0.00036706
H         0.94314587     0.04068889    -0.62083539     0.00048515     0.00009262    -0.00100550
H         0.81344242     0.05750462     1.92145483     0.00122623     0.00111801     0.00114203
H        -0.89645874     0.05639038     1.93970574     0.00077092     0.00028240     0.00010318
H        -0.97125536     0.17335738    -0.59855814     0.00042117     0.00048562    -0.00075761
     6
  Step:    27            Position(A)                                  Velocity(au)
C        -0.03963370     0.01172891    -0.03205659    -0.00006185     0.00001711    -0.00035997
N        -0.04642650    -0.08263640     1.34102463    -0.00014088    -0.00015361     0.00035170
H         0.94560008     0.04115215    -0.62624445     0.00039530     0.00007379    -0.00093851
H         0.82005158     0.06367746     1.92759186     0.00113852     0.00110168     0.00105708
H        -0.89213523     0.05792405     1.94012185     0.00077710     0.00027091     0.00005298
H        -0.96901753     0.17605176    -0.60280354     0.00038377     0.00048444    -0.00076960
     6
  Step:    28            Position(A)                                  Velocity(au)
C        -0.03995049     0.01182544    -0.03398736    -0.00005189     0.00001759    -0.00033440
N        -0.04718564    -0.08348162     1.34293537    -0.00013090    -0.00015043     0.00033537
H         0.94753930     0.04150901    -0.63126608     0.00030041     0.00005431    -0.00086604
H         0.82609600     0.06974880     1.93320331     0.00102470     0.00108096     0.00095395
H        -0.88782199     0.05940133     1.94029453     0.00076665     0.00026197     0.00001563
H        -0.96699012     0.17874146    -0.60711152     0.00034561     0.00048354    -0.00077935
     6
  Step:    29            Position(A)                                  Velocity(au)
C        -0.04021063     0.01192450    -0.03577437    -0.00003883     0.00002025    -0.00034297
N        -0.04788182    -0.08430885     1.34475324    -0.00011957    -0.00015039     0.00034475
H         0.94894000     0.04175595    -0.63587302     0.00017292    -0.00002337    -0.00076524
H         0.83144415     0.07569547     1.93819778     0.00087817     0.00113230     0.00081941
H        -0.88361165     0.06083661     1.94029557     0.00074606     0.00019698    -0.00001148
H        -0.96517511     0.18142771    -0.61146825     0.00032719     0.00054259    -0.00074674
     6
  Step:    30            Position(A)                                  Velocity(au)
C        -0.04038220     0.01205062    -0.03780060    -0.00002334     0.00002533    -0.00039197
N        -0.04851511    -0.08515366     1.34676844    -0.00010700    -0.00015339     0.00038566
H         0.94946188     0.04124916    -0.63977428     0.00001470    -0.00014432    -0.00063328
H         0.83585975     0.08233800     1.94231380     0.00070182     0.00123708     0.00065273
H        -0.87952703     0.06159139     1.94016693     0.00071847     0.00008961    -0.00003783
H        -0.96335231     0.18477413    -0.61541399     0.00033007     0.00064734    -0.00067029
     6
  Step:    31            Position(A)                                  Velocity(au)
C        -0.04047013     0.01220608    -0.04013162    -0.00000860     0.00003057    -0.00044736
N        -0.04907124    -0.08601396     1.34904040    -0.00009214    -0.00015609     0.00043231
H         0.94910337     0.04015164    -0.64291271    -0.00014165    -0.00024425    -0.00049575
H         0.83924579     0.08944723     1.94545368     0.00051207     0.00131207     0.00047394
H        -0.87562496     0.06183270     1.93987508     0.00067832     0.00000483    -0.00006382
H        -0.96150596     0.18862375    -0.61891940     0.00033414     0.00073216    -0.00059123
     6
  Step:    32            Position(A)                                  Velocity(au)
C        -0.04047781     0.01239035    -0.04277211     0.00000551     0.00003566    -0.00050236
N        -0.04953901    -0.08688829     1.35157272    -0.00007543    -0.00015856     0.00047845
H         0.94788775     0.03853481    -0.64528352    -0.00029261    -0.00033342    -0.00035897
H         0.84155036     0.09691898     1.94758066     0.00031537     0.00137140     0.00029085
H        -0.87198886     0.06164507     1.93945772     0.00062272    -0.00006666    -0.00008161
H        -0.95963904     0.19291064    -0.62198430     0.00033716     0.00080727    -0.00051291
     6
  Step:    33            Position(A)                                  Velocity(au)
C        -0.04040895     0.01260218    -0.04571238     0.00001891     0.00004048    -0.00055502
N        -0.04990924    -0.08777546     1.35435556    -0.00005723    -0.00016084     0.00052226
H         0.94585270     0.03644763    -0.64690057    -0.00043578    -0.00041481    -0.00022574
H         0.84274922     0.10468220     1.94868476     0.00011622     0.00141957     0.00010762
H        -0.86870705     0.06109221     1.93896843     0.00055122    -0.00012772    -0.00008928
H        -0.95776037     0.19759184    -0.62461739     0.00033827     0.00087570    -0.00043658
     6
  Step:    34            Position(A)                                  Velocity(au)
C        -0.04026781     0.01283989    -0.04893575     0.00003149     0.00004498    -0.00060426
N        -0.05017455    -0.08867446     1.35737259    -0.00003785    -0.00016293     0.00056275
H         0.94304835     0.03392818    -0.64779040    -0.00056890    -0.00049000    -0.00009815
H         0.84284105     0.11268371     1.94877581    -0.00008144     0.00145919    -0.00007246
H        -0.86586742     0.06022674     1.93846624     0.00046419    -0.00018008    -0.00008626
H        -0.95588252     0.20263556    -0.62683259     0.00033682     0.00093906    -0.00036301
     6
  Step:    35            Position(A)                                  Velocity(au)
C        -0.04005930     0.01310151    -0.05242090     0.00004313     0.00004909    -0.00064931
N        -0.05032944    -0.08958430     1.36060326    -0.00001765    -0.00016482     0.00059924
H         0.93953676     0.03100760    -0.64799022    -0.00068977    -0.00056000     0.00002192
H         0.84184508     0.12088216     1.94788034    -0.00027400     0.00149207    -0.00024648
H        -0.86355358     0.05909298     1.93801077     0.00036272    -0.00022507    -0.00007276
H        -0.95402102     0.20801736    -0.62864751     0.00033234     0.00099841    -0.00029280
     6
  Step:    36            Position(A)                                  Velocity(au)
C        -0.03978908     0.01338483    -0.05614300     0.00005367     0.00005279    -0.00068958
N        -0.05037042    -0.09050396     1.36402408     0.00000299    -0.00016651     0.00063125
H         0.93539199     0.02771232    -0.64754712    -0.00079613    -0.00062548     0.00013267
H         0.83979972     0.12924548     1.94603995    -0.00045792     0.00151972    -0.00041171
H        -0.86184128     0.05772851     1.93765862     0.00024853    -0.00026383    -0.00004958
H        -0.95219361     0.21371773    -0.63008260     0.00032446     0.00105439    -0.00022644
     6
  Step:    37            Position(A)                                  Velocity(au)
C        -0.03946367     0.01368744    -0.06007446     0.00006294     0.00005604    -0.00072458
N        -0.05029623    -0.09143237     1.36760943     0.00002364    -0.00016797     0.00065842
H         0.93070055     0.02406549    -0.64651776    -0.00088569    -0.00068691     0.00023236
H         0.83676271     0.13774943     1.94331076    -0.00062969     0.00154343    -0.00056554
H        -0.86079517     0.05616476     1.93746045     0.00012399    -0.00029742    -0.00001804
H        -0.95041990     0.21971990    -0.63116074     0.00031291     0.00110736    -0.00016434
     6
  Step:    38            Position(A)                                  Velocity(au)
C        -0.03909049     0.01400680    -0.06418546     0.00007077     0.00005881    -0.00075395
N        -0.05010804    -0.09236835     1.37133220     0.00004383    -0.00016920     0.00068054
H         0.92556138     0.02008799    -0.64496806    -0.00095614    -0.00074467     0.00031928
H         0.83281047     0.14637669     1.93976273    -0.00078588     0.00156447    -0.00070546
H        -0.86046508     0.05442735     1.93745838    -0.00000793    -0.00032681     0.00002012
H        -0.94872049     0.22600886    -0.63190669     0.00029758     0.00115761    -0.00010684
     6
  Step:    39            Position(A)                                  Velocity(au)
C        -0.03867799     0.01434026    -0.06844436     0.00007699     0.00006109    -0.00077740
N        -0.04980969    -0.09331077     1.37516432     0.00006306    -0.00017022     0.00069746
H         0.92008604     0.01579865    -0.64297327    -0.00100530    -0.00079905     0.00039181
H         0.82803835     0.15511721     1.93547920    -0.00092309     0.00158415    -0.00082907
H        -0.86088326     0.05253674     1.93768379    -0.00014379    -0.00035293     0.00006281
H        -0.94711636     0.23257096    -0.63234685     0.00027849     0.00120529    -0.00005422
     6
  Step:    40            Position(A)                                  Velocity(au)
C        -0.03823558     0.01468517    -0.07281827     0.00008141     0.00006289    -0.00079478
N        -0.04940779    -0.09425855     1.37907730     0.00008083    -0.00017103     0.00070919
H         0.91439780     0.01121478    -0.64061717    -0.00103124    -0.00085034     0.00044850
H         0.82255986     0.16396817     1.93055613    -0.00103813     0.00160385    -0.00093422
H        -0.86206177     0.05050821     1.93815586    -0.00027977    -0.00037670     0.00010775
H        -0.94562794     0.23939321    -0.63250878     0.00025582     0.00125053    -0.00000666
     6
  Step:    41            Position(A)                                  Velocity(au)
C        -0.03777357     0.01503887    -0.07727360     0.00008389     0.00006421    -0.00080603
N        -0.04891178    -0.09521076     1.38304279     0.00009663    -0.00017168     0.00071581
H         0.90862996     0.00635210    -0.63799090    -0.00103237    -0.00089884     0.00048817
H         0.81650569     0.17293455     1.92510084    -0.00112818     0.00162501    -0.00101907
H        -0.86399126     0.04835197     1.93888075    -0.00041194    -0.00039896     0.00015256
H        -0.94427442     0.24646324    -0.63242083     0.00022993     0.00129340     0.00003576
     6
  Step:    42            Position(A)                                  Velocity(au)
C        -0.03730314     0.01539882    -0.08177674     0.00008431     0.00006509    -0.00081123
N        -0.04833376    -0.09616667     1.38703310     0.00011003    -0.00017222     0.00071751
H         0.90292369     0.00122479    -0.63519144    -0.00100763    -0.00094485     0.00051001
H         0.81002085     0.18202910     1.91922987    -0.00119096     0.00164909    -0.00108219
H        -0.86664016     0.04607398     1.93985142    -0.00053638    -0.00042047     0.00019493
H        -0.94307247     0.25376849    -0.63211137     0.00020132     0.00133391     0.00007306
     6
  Step:    43            Position(A)                                  Velocity(au)
C        -0.03683603     0.01576264    -0.08629464     0.00008259     0.00006555    -0.00081058
N        -0.04768824    -0.09712589     1.39102166     0.00012063    -0.00017272     0.00071456
H         0.89742485    -0.00415483    -0.63231947    -0.00095666    -0.00098876     0.00051365
H         0.80326200     0.19127275     1.91306668    -0.00122482     0.00167757    -0.00112270
H        -0.86995589     0.04367622     1.94104843    -0.00064952    -0.00044190     0.00023279
H        -0.94203569     0.26129661    -0.63160840     0.00017063     0.00137215     0.00010537
     6
  Step:    44            Position(A)                                  Velocity(au)
C        -0.03638426     0.01612819    -0.09079555     0.00007871     0.00006566    -0.00080440
N        -0.04699163    -0.09808842     1.39498354     0.00012814    -0.00017326     0.00070731
H         0.89227953    -0.00977646    -0.62947644    -0.00087989    -0.00103097     0.00049924
H         0.79639309     0.20069432     1.90673833    -0.00122904     0.00171184    -0.00114038
H        -0.87386696     0.04115729     1.94244156    -0.00074829    -0.00046379     0.00026440
H        -0.94117398     0.26903545    -0.63093902     0.00013858     0.00140819     0.00013290
     6