 Fermi distribution function

Calculation with static geometry


********************************************************************************
 iSCC Total electronic   Diff electronic      SCC error    
   10   -0.54369058E+01   -0.13500312E-12    0.99133644E-08
********************************************************************************

 Total charge:     1.00000000

 Atomic gross charges (e)
 Atom           Charge
    1       0.13743230
    2      -0.01579138
    3       0.15989791
    4       0.27478371
    5       0.26789594
    6       0.17578152

Nr. of electrons (up):     12.00000000
Atom populations (up)
 Atom       Population
    1       3.86256770
    2       5.01579138
    3       0.84010209
    4       0.72521629
    5       0.73210406
    6       0.82421848

l-shell populations (up)
 Atom Sh.   l       Population
    1   1   0       1.29855603
    1   2   1       2.56401168
    2   1   0       1.41232490
    2   2   1       3.60346648
    3   1   0       0.84010209
    4   1   0       0.72521629
    5   1   0       0.73210406
    6   1   0       0.82421848

Orbital populations (up)
 Atom Sh.   l   m       Population  Label
    1   1   0   0       1.29855603  s
    1   2   1  -1       0.62231105  p_y
    1   2   1   0       0.88574818  p_z
    1   2   1   1       1.05595244  p_x
    2   1   0   0       1.41232490  s
    2   2   1  -1       1.30897021  p_y
    2   2   1   0       1.13150978  p_z
    2   2   1   1       1.16298650  p_x
    3   1   0   0       0.84010209  s
    4   1   0   0       0.72521629  s
    5   1   0   0       0.73210406  s
    6   1   0   0       0.82421848  s

Fermi level:                        -0.4927714652 H          -13.4090 eV
Band energy:                        -8.9937694311 H         -244.7329 eV
TS:                                  0.0000000000 H            0.0000 eV
Band free energy (E-TS):            -8.9937694311 H         -244.7329 eV
Extrapolated E(0K):                 -8.9937694311 H         -244.7329 eV
Input / Output electrons (q):     12.0000000000     12.0000000000

Energy H0:                          -5.5720773655 H         -151.6239 eV
Energy SCC:                          0.1351715897 H            3.6782 eV
Total Electronic energy:            -5.4369057758 H         -147.9457 eV
Repulsive energy:                    0.2054969673 H            5.5919 eV
Total energy:                       -5.2314088085 H         -142.3539 eV
Extrapolated to 0:                  -5.2314088085 H         -142.3539 eV
Total Mermin free energy:           -5.2314088085 H         -142.3539 eV
Force related energy:               -5.2314088085 H         -142.3539 eV

SCC converged

Excitation Energy:                   0.1569746949 H            4.2715 eV

Total Forces
    1     -0.011513000874      0.003541602586     -0.025571841485
    2     -0.002740772957     -0.010124061621      0.006788906107
    3      0.001516570575      0.003822618557      0.001402203637
    4     -0.001923341572     -0.003261038487      0.005802032115
    5      0.005372764607      0.006972839743      0.005481707265
    6      0.009287780222     -0.000951960778      0.006096992362

Maximal derivative component:        0.255718E-01 au


