|===============================================================================
|
|  DFTB+ release 20.1
|
|  Copyright (C) 2006 - 2020  DFTB+ developers group
|
|===============================================================================
|
|  When publishing results obtained with DFTB+, please cite the following
|  reference:
|
|  * DFTB+, a software package for efficient approximate density functional
|    theory based atomistic simulations, J. Chem. Phys. 152, 124101 (2020).
|    [doi: 10.1063/1.5143190]
|
|  You should also cite additional publications crediting the parametrization
|  data you use. Please consult the documentation of the SK-files for the
|  references.
|
|===============================================================================

Reading input file 'dftb_in.hsd'
Parser version: 8

--------------------------------------------------------------------------------
Reading SK-files:
Done.


Processed input in HSD format written to 'dftb_pin.hsd'

Starting initialization...
--------------------------------------------------------------------------------
WARNING!
-> Excited state forces are not implemented yet for fractional occupations, kT=  0.3158E-02K
OpenMP threads:              1
Chosen random seed:          508343028
Mode:                        Static calculation
Self consistent charges:     Yes
SCC-tolerance:                 0.100000E-05
Max. scc iterations:                    100
Shell resolved Hubbard:      No
Spin polarisation:           No
Nr. of up electrons:             6.000000
Nr. of down electrons:           6.000000
Periodic boundaries:         No
Electronic solver:           Relatively robust
Mixer:                       Broyden mixer
Mixing parameter:                  0.200000
Maximal SCC-cycles:                     100
Nr. of chrg. vec. in memory:              0
Electronic temperature:        0.100000E-07 H      0.272114E-06 eV
Initial charges:             Set automatically (system chrg:   0.100E+01)
Included shells:             C:  s, p
                             N:  s, p
                             H:  s
Extra options:
                             Mulliken analysis
                             Force calculation
Force type                   original
                             Eigenvector printing

--------------------------------------------------------------------------------

***  Geometry step: 0

 iSCC Total electronic   Diff electronic      SCC error    
    1   -0.54315834E+01    0.00000000E+00    0.56870021E+00
    2   -0.54344154E+01   -0.28319939E-02    0.39670113E+00
    3   -0.54367435E+01   -0.23281608E-02    0.36229175E-01
    4   -0.54369043E+01   -0.16075048E-03    0.95371922E-02
    5   -0.54369023E+01    0.20176331E-05    0.61342358E-02
    6   -0.54369058E+01   -0.35155105E-05    0.12848495E-03
    7   -0.54369058E+01   -0.41511683E-09    0.97741466E-04
    8   -0.54369058E+01   -0.34196646E-09    0.32888209E-05
    9   -0.54369058E+01   -0.18030022E-12    0.18576127E-05
   10   -0.54369058E+01   -0.13500312E-12    0.99133644E-08
>> Charges saved for restart in charges.bin

Total Energy:                       -5.0744341136 H         -138.0824 eV
Extrapolated to 0:                  -5.2314088085 H         -142.3539 eV
Total Mermin free energy:           -5.0744341136 H         -138.0824 eV
Force related energy:               -5.2314088085 H         -142.3539 eV

--------------------------------------------------------------------------------
DFTB+ running times                          cpu [s]             wall clock [s]
--------------------------------------------------------------------------------
SCC                                    +     0.01  ( 63.5%)      0.04  ( 64.8%)
Post-SCC processing                    +     0.01  ( 25.2%)      0.01  ( 24.1%)
--------------------------------------------------------------------------------
Missing                                +     0.00  ( 11.2%)      0.01  ( 11.1%)
Total                                  =     0.02  (100.0%)      0.05  (100.0%)
--------------------------------------------------------------------------------
