 Fermi distribution function

Calculation with static geometry


********************************************************************************
 iSCC Total electronic   Diff electronic      SCC error    
   14   -0.52575942E+01   -0.48402082E-09    0.51593256E-07
********************************************************************************

 Total charge:     1.00000000

 Atomic gross charges (e)
 Atom           Charge
    1       0.31543061
    2      -0.20330310
    3       0.18456665
    4       0.26596185
    5       0.25633243
    6       0.18101157

Nr. of electrons (up):     12.00000000
Atom populations (up)
 Atom       Population
    1       3.68456939
    2       5.20330310
    3       0.81543335
    4       0.73403815
    5       0.74366757
    6       0.81898843

l-shell populations (up)
 Atom Sh.   l       Population
    1   1   0       1.41813979
    1   2   1       2.26642960
    2   1   0       1.53491105
    2   2   1       3.66839206
    3   1   0       0.81543335
    4   1   0       0.73403815
    5   1   0       0.74366757
    6   1   0       0.81898843

Orbital populations (up)
 Atom Sh.   l   m       Population  Label
    1   1   0   0       1.41813979  s
    1   2   1  -1       0.41962299  p_y
    1   2   1   0       0.86710672  p_z
    1   2   1   1       0.97969989  p_x
    2   1   0   0       1.53491105  s
    2   2   1  -1       1.41499636  p_y
    2   2   1   0       1.05336661  p_z
    2   2   1   1       1.20002908  p_x
    3   1   0   0       0.81543335  s
    4   1   0   0       0.73403815  s
    5   1   0   0       0.74366757  s
    6   1   0   0       0.81898843  s

Fermi level:                        -0.5151457680 H          -14.0178 eV
Band energy:                        -8.6199907327 H         -234.5619 eV
TS:                                  0.0000000000 H            0.0000 eV
Band free energy (E-TS):            -8.6199907327 H         -234.5619 eV
Extrapolated E(0K):                 -8.6199907327 H         -234.5619 eV
Input / Output electrons (q):     12.0000000000     12.0000000000

Energy H0:                          -5.3934481054 H         -146.7632 eV
Energy SCC:                          0.1358538644 H            3.6968 eV
Total Electronic energy:            -5.2575942410 H         -143.0664 eV
Repulsive energy:                    0.1314819214 H            3.5778 eV
Total energy:                       -5.1261123195 H         -139.4886 eV
Extrapolated to 0:                  -5.1261123195 H         -139.4886 eV
Total Mermin free energy:           -5.1261123195 H         -139.4886 eV
Force related energy:               -5.1261123195 H         -139.4886 eV

SCC converged

Excitation Energy:                   0.0944819687 H            2.5710 eV

Total Forces
    1     -0.007044409152     -0.000023885842      0.031119116982
    2      0.020853125219      0.018387157291     -0.028476191426
    3      0.004737879695     -0.008440617133     -0.004989154381
    4     -0.015042587160     -0.005929564158     -0.007898024295
    5     -0.009547091433     -0.009046639346      0.005584877524
    6      0.006043082831      0.005053549188      0.004659375595

Maximal derivative component:        0.311191E-01 au


