|===============================================================================
|
|  DFTB+ release 20.1
|
|  Copyright (C) 2006 - 2020  DFTB+ developers group
|
|===============================================================================
|
|  When publishing results obtained with DFTB+, please cite the following
|  reference:
|
|  * DFTB+, a software package for efficient approximate density functional
|    theory based atomistic simulations, J. Chem. Phys. 152, 124101 (2020).
|    [doi: 10.1063/1.5143190]
|
|  You should also cite additional publications crediting the parametrization
|  data you use. Please consult the documentation of the SK-files for the
|  references.
|
|===============================================================================

Reading input file 'dftb_in.hsd'
Parser version: 8

--------------------------------------------------------------------------------
Reading SK-files:
Done.


Processed input in HSD format written to 'dftb_pin.hsd'

Starting initialization...
--------------------------------------------------------------------------------
WARNING!
-> Excited state forces are not implemented yet for fractional occupations, kT=  0.3158E-02K
OpenMP threads:              1
Chosen random seed:          509070891
Mode:                        Static calculation
Self consistent charges:     Yes
SCC-tolerance:                 0.100000E-05
Max. scc iterations:                    100
Shell resolved Hubbard:      No
Spin polarisation:           No
Nr. of up electrons:             6.000000
Nr. of down electrons:           6.000000
Periodic boundaries:         No
Electronic solver:           Relatively robust
Mixer:                       Broyden mixer
Mixing parameter:                  0.200000
Maximal SCC-cycles:                     100
Nr. of chrg. vec. in memory:              0
Electronic temperature:        0.100000E-07 H      0.272114E-06 eV
Initial charges:             Set automatically (system chrg:   0.100E+01)
Included shells:             C:  s, p
                             N:  s, p
                             H:  s
Extra options:
                             Mulliken analysis
                             Force calculation
Force type                   original
                             Eigenvector printing

--------------------------------------------------------------------------------

***  Geometry step: 0

 iSCC Total electronic   Diff electronic      SCC error    
    1   -0.52111740E+01    0.00000000E+00    0.11415630E+01
    2   -0.52417956E+01   -0.30621645E-01    0.69411331E+00
    3   -0.52503640E+01   -0.85683957E-02    0.34317154E+00
    4   -0.48260113E+01    0.42435275E+00    0.20228655E+01
    5   -0.52381748E+01   -0.41216348E+00    0.42083874E+00
    6   -0.52574131E+01   -0.19238339E-01    0.42954477E-01
    7   -0.52575814E+01   -0.16833771E-03    0.10707374E-01
    8   -0.52575905E+01   -0.90324062E-05    0.71899100E-02
    9   -0.52575929E+01   -0.24285201E-05    0.37597463E-02
   10   -0.52575940E+01   -0.11210478E-05    0.15771099E-02
   11   -0.52575942E+01   -0.20063097E-06    0.41940048E-03
   12   -0.52575942E+01   -0.17294786E-07    0.10741657E-03
   13   -0.52575942E+01   -0.62373573E-09    0.69627617E-04
   14   -0.52575942E+01   -0.48402082E-09    0.51593256E-07
>> Charges saved for restart in charges.bin

Total Energy:                       -5.0316303508 H         -136.9176 eV
Extrapolated to 0:                  -5.1261123195 H         -139.4886 eV
Total Mermin free energy:           -5.0316303508 H         -136.9176 eV
Force related energy:               -5.1261123195 H         -139.4886 eV

--------------------------------------------------------------------------------
DFTB+ running times                          cpu [s]             wall clock [s]
--------------------------------------------------------------------------------
SCC                                    +     0.01  ( 66.3%)      0.08  ( 77.6%)
Post-SCC processing                    +     0.00  ( 26.3%)      0.02  ( 17.3%)
--------------------------------------------------------------------------------
Missing                                +     0.00  (  7.4%)      0.00  (  5.1%)
Total                                  =     0.02  (100.0%)      0.10  (100.0%)
--------------------------------------------------------------------------------
