     6
  Step:   300            Position(A)                                  Velocity(au)
C        -0.02713616     0.00536458     0.03001017    -0.00001394    -0.00000106     0.00006098
N        -0.03500491    -0.05581061     1.28526722     0.00010229     0.00004895    -0.00004538
H         0.08003455    -0.85261037    -0.63301158    -0.00179280     0.00029805    -0.00030880
H        -0.26511264     0.78500434     1.84888762    -0.00250909    -0.00082743     0.00019599
H        -0.16015106    -0.89480714     1.86035780     0.00122874     0.00012266     0.00051831
H        -0.05792185     1.00428282    -0.40231254     0.00181784    -0.00026086    -0.00050157
