    14
  Step:     0            Position(A)                                  Velocity(au)
C        -5.98363159    -0.82921379    -0.11964826    -0.00013315     0.00029531     0.00008333
C        -4.69264711    -0.71953404     0.10245559     0.00009736    -0.00011881     0.00003173
H        -6.62345539    -0.02713992    -0.36574398     0.00090278     0.00033921    -0.00038342
H        -6.35850882    -1.77411860     0.16144300     0.00058418    -0.00023759    -0.00071756
H        -4.09104430    -1.55920872     0.47940648    -0.00035016    -0.00097366     0.00047299
C        -3.96816124     0.51392093    -0.07024438     0.00033351    -0.00010628    -0.00000497
C        -2.59570173     0.56722083     0.20429169    -0.00013494     0.00001192    -0.00020605
H        -4.55427566     1.33368832    -0.45321673    -0.00031683     0.00011072    -0.00004346
H        -2.17529261    -0.44783803     0.53719004     0.00110733     0.00007444     0.00108220
C        -1.83259917     1.70743277     0.05266761    -0.00041138    -0.00003383     0.00012380
H        -2.23317515     2.68843552    -0.24958453    -0.00051268     0.00065701     0.00002652
N        -0.48254141     1.74138577     0.18490506     0.00007515    -0.00007866    -0.00016161
H         0.02149209     2.62173190     0.01954407    -0.00001897    -0.00034930     0.00077638
H         0.01832542     0.83257621     0.29519417     0.00052232     0.00089670     0.00070027
    14
  Step:     1            Position(A)                                  Velocity(au)
C        -5.98543461    -0.82610589    -0.11872061    -0.00019286     0.00027143     0.00008672
C        -4.69098239    -0.72065490     0.10287200     0.00020514    -0.00008775     0.00004487
H        -6.61445024    -0.02238390    -0.37056136     0.00072939     0.00054141    -0.00049960
H        -6.35377322    -1.77799296     0.15343380     0.00027808    -0.00046110    -0.00074838
H        -4.09521527    -1.56984956     0.48440361    -0.00041856    -0.00095297     0.00043256
C        -3.96494947     0.51260901    -0.07036053     0.00025158    -0.00013291    -0.00001705
C        -2.59685186     0.56720546     0.20214408    -0.00007387    -0.00001635    -0.00018533
H        -4.55755626     1.33567921    -0.45381890    -0.00026887     0.00023528    -0.00005833
H        -2.16320842    -0.44507561     0.54852912     0.00108773     0.00044031     0.00098162
C        -1.83707461     1.70718432     0.05397385    -0.00040440    -0.00000872     0.00011446
H        -2.23923356     2.69495397    -0.24905487    -0.00058493     0.00051416     0.00007562
N        -0.48160728     1.74044324     0.18315973     0.00009226    -0.00009287    -0.00015746
H         0.02118358     2.61706120     0.02818675    -0.00002792    -0.00048040     0.00079922
H         0.02374849     0.84393219     0.30276073     0.00047792     0.00114767     0.00068489
    14
  Step:     2            Position(A)                                  Velocity(au)
C        -5.98785078    -0.82327583    -0.11775104    -0.00024530     0.00024472     0.00009105
C        -4.68815920    -0.72145377     0.10343731     0.00030730    -0.00006005     0.00005864
H        -6.60749864    -0.01529556    -0.37667365     0.00053678     0.00075421    -0.00061652
H        -6.35242518    -1.78420597     0.14507069    -0.00002881    -0.00065367    -0.00078471
H        -4.10020104    -1.58005686     0.48886950    -0.00049554    -0.00089726     0.00037750
C        -3.96265754     0.51101337    -0.07061741     0.00016600    -0.00015795    -0.00003058
C        -2.59731784     0.56686322     0.20023715    -0.00001027    -0.00004675    -0.00016240
H        -4.56015773     1.33883550    -0.45449275    -0.00019362     0.00032289    -0.00005670
H        -2.15149637    -0.43820530     0.55866479     0.00104308     0.00081551     0.00086508
C        -1.84144623     1.70724206     0.05517173    -0.00039240     0.00002129     0.00010420
H        -2.24597154     2.69968385    -0.24793025    -0.00063824     0.00033611     0.00013348
N        -0.48052303     1.73935404     0.18146026     0.00010192    -0.00010496    -0.00015339
H         0.02088131     2.61122226     0.03702864    -0.00001551    -0.00055787     0.00081243
H         0.02878076     0.85768374     0.31017747     0.00045679     0.00132377     0.00067525
    14
  Step:     3            Position(A)                                  Velocity(au)
C        -5.99080101    -0.82075215    -0.11672882    -0.00029071     0.00021587     0.00009624
C        -4.68425954    -0.72196869     0.10415479     0.00040035    -0.00003584     0.00007239
H        -6.60270706    -0.00588417    -0.38404881     0.00034420     0.00095396    -0.00072642
H        -6.35440341    -1.79229319     0.13626680    -0.00032469    -0.00079489    -0.00083035
H        -4.10605613    -1.58947883     0.49266204    -0.00057377    -0.00081289     0.00031134
C        -3.96131794     0.50915363    -0.07102950     0.00007822    -0.00018113    -0.00004524
C        -2.59707659     0.56618273     0.19859118     0.00005501    -0.00007707    -0.00013801
H        -4.56179211     1.34274313    -0.45505937    -0.00009419     0.00037330    -0.00003956
H        -2.14038896    -0.42723487     0.56745429     0.00098123     0.00118026     0.00073867
C        -1.84565909     1.70765001     0.05625341    -0.00037549     0.00005434     0.00009343
H        -2.25319621     2.70230699    -0.24613484    -0.00067547     0.00013565     0.00019626
N        -0.47937750     1.73814703     0.17980395     0.00010307    -0.00011392    -0.00014975
H         0.02084421     2.60485677     0.04596031     0.00002133    -0.00057449     0.00081580
H         0.03374159     0.87289213     0.31753320     0.00046941     0.00140632     0.00067599
    14
  Step:     4            Position(A)                                  Velocity(au)
C        -5.99421072    -0.81855329    -0.11564553    -0.00032959     0.00018595     0.00010198
C        -4.67940089    -0.72223781     0.10502094     0.00048137    -0.00001500     0.00008553
H        -6.59996856     0.00557421    -0.39256546     0.00016978     0.00111762    -0.00082136
H        -6.35952850    -1.80159577     0.12690510    -0.00060012    -0.00087062    -0.00088689
H        -4.11275329    -1.59784042     0.49568061    -0.00064587    -0.00070730     0.00023803
C        -3.96094635     0.50705086    -0.07160712    -0.00001019    -0.00020245    -0.00006061
C        -2.59611442     0.56517711     0.19721794     0.00012109    -0.00010504    -0.00011297
H        -4.56221836     1.34700222    -0.45535814     0.00002423     0.00038906    -0.00000909
H        -2.13003012    -0.41238494     0.57482451     0.00091066     0.00151508     0.00060916
C        -1.84966074     1.70843080     0.05721576    -0.00035397     0.00008841     0.00008259
H        -2.26074881     2.70265149    -0.24363670    -0.00069996    -0.00007355     0.00025987
N        -0.47826813     1.73686175     0.17818410     0.00009531    -0.00011890    -0.00014690
H         0.02134786     2.59865418     0.05487587     0.00008221    -0.00052940     0.00081016
H         0.03904999     0.88844966     0.32496601     0.00052229     0.00138505     0.00069101
    14
  Step:     5            Position(A)                                  Velocity(au)
C        -5.99801137    -0.81668410    -0.11449770    -0.00036249     0.00015624     0.00010775
C        -4.67372855    -0.72229683     0.10602595     0.00054828     0.00000281     0.00009753
H        -6.59899272     0.01856587    -0.40201766     0.00002779     0.00122642    -0.00089439
H        -6.36753219    -1.81133977     0.11686436    -0.00084837    -0.00087417    -0.00095367
H        -4.12018567    -1.60495228     0.49786930    -0.00070482    -0.00058855     0.00016171
C        -3.96154088     0.50472463    -0.07235539    -0.00009762    -0.00022217    -0.00007617
C        -2.59442743     0.56388469     0.19611984     0.00018704    -0.00012834    -0.00008817
H        -4.56126194     1.35125451    -0.45525813     0.00015501     0.00037485     0.00003167
H        -2.12046659    -0.39408960     0.58078088     0.00084077     0.00180027     0.00048424
C        -1.85340290     1.70958421     0.05806025    -0.00032827     0.00012142     0.00007208
H        -2.26850913     2.70069793    -0.24044974    -0.00071537    -0.00027753     0.00032011
N        -0.47729247     1.73554581     0.17659030     0.00007907    -0.00011938    -0.00014510
H         0.02264275     2.59327520     0.06368404     0.00016285    -0.00042892     0.00079723
H         0.04516779     0.90319271     0.33265042     0.00061561     0.00126153     0.00072254
    14
  Step:     6            Position(A)                                  Velocity(au)
C        -6.00214095    -0.81513533    -0.11328833    -0.00039004     0.00012791     0.00011294
C        -4.66740630    -0.72217644     0.10715457     0.00059981     0.00001813     0.00010793
H        -6.59936057     0.03240440    -0.41213206    -0.00007302     0.00126843    -0.00094052
H        -6.37808830    -1.82071996     0.10604169    -0.00106538    -0.00080588    -0.00102834
H        -4.12817250    -1.61071608     0.49921839    -0.00074427    -0.00046504     0.00008661
C        -3.96308199     0.50219037    -0.07327346    -0.00018247    -0.00024075    -0.00009137
C        -2.59202264     0.56236932     0.19528906     0.00025172    -0.00014468    -0.00006460
H        -4.55882721     1.35520279    -0.45466530     0.00029065     0.00033685     0.00007917
H        -2.11163671    -0.37300058     0.58541821     0.00078208     0.00201570     0.00037265
C        -1.85684219     1.71108715     0.05879274    -0.00029879     0.00015135     0.00006230
H        -2.27639881     2.69657996    -0.23663373    -0.00072563    -0.00046251     0.00037288
N        -0.47653824     1.73425001     0.17500978     0.00005575    -0.00011537    -0.00014447
H         0.02491043     2.58927078     0.07231673     0.00025514    -0.00028641     0.00077932
H         0.05251755     0.91604799     0.34077298     0.00074126     0.00105128     0.00077007
    14
  Step:     7            Position(A)                                  Velocity(au)
C        -6.00654429    -0.81388583    -0.11202703    -0.00041287     0.00010190     0.00011698
C        -4.66060655    -0.72190016     0.10838722     0.00063559     0.00003168     0.00011641
H        -6.60059021     0.04631525    -0.42259337    -0.00012972     0.00123952    -0.00095719
H        -6.39083941    -1.82897003     0.09436735    -0.00124930    -0.00067178    -0.00110755
H        -4.13646799    -1.61512594     0.49976404    -0.00075881    -0.00034510     0.00001682
C        -3.96553265     0.49945767    -0.07435419    -0.00026307    -0.00025875    -0.00010562
C        -2.58892050     0.56071952     0.19470657     0.00031374    -0.00015196    -0.00004331
H        -4.55490338     1.35862372    -0.45352607     0.00042337     0.00028215     0.00012968
H        -2.10335714    -0.34999236     0.58893327     0.00074605     0.00214147     0.00028403
C        -1.85993958     1.71289531     0.05942309    -0.00026586     0.00017643     0.00005357
H        -2.28438371     2.69057959    -0.23229235    -0.00073484    -0.00061543     0.00041436
N        -0.47607293     1.73302194     0.17342965     0.00002755    -0.00010743    -0.00014490
H         0.02822441     2.58700935     0.08073314     0.00034806    -0.00012079     0.00075887
H         0.06138434     0.92619147     0.34949714     0.00088253     0.00078311     0.00082970
    14
  Step:     8            Position(A)                                  Velocity(au)
C        -6.01117322    -0.81290616    -0.11072923    -0.00043164     0.00007881     0.00011940
C        -4.65350152    -0.72148347     0.10970128     0.00065595     0.00004413     0.00012275
H        -6.60219846     0.05952124    -0.43307253    -0.00014423     0.00114249    -0.00094427
H        -6.40541904    -1.83541650     0.08181186    -0.00140009    -0.00048205    -0.00118754
H        -4.14477289    -1.61826591     0.49958643    -0.00074418    -0.00023662    -0.00004386
C        -3.96883724     0.49652965    -0.07558404    -0.00033764    -0.00027671    -0.00011835
C        -2.58515904     0.55904486     0.19434152     0.00037124    -0.00014860    -0.00002537
H        -4.54956522     1.36137533    -0.45182835     0.00054549     0.00021835     0.00017944
H        -2.09531542    -0.32615179     0.59163199     0.00074425     0.00215982     0.00022824
C        -1.86265839     1.71494693     0.05996462    -0.00022956     0.00019535     0.00004617
H        -2.29247477     2.68311619    -0.22756876    -0.00074700    -0.00072465     0.00044128
N        -0.47593543     1.73189968     0.17183985    -0.00000270    -0.00009664    -0.00014600
H         0.03252487     2.58662832     0.08891844     0.00042918     0.00004626     0.00073796
H         0.07182450     0.93318013     0.35892423     0.00101600     0.00049474     0.00089431
    14
  Step:     9            Position(A)                                  Velocity(au)
C        -6.01598719    -0.81216180    -0.10941494    -0.00044701     0.00005896     0.00011987
C        -4.64625632    -0.72093466     0.11107255     0.00066170     0.00005602     0.00012687
H        -6.60374541     0.07130937    -0.44325106    -0.00012188     0.00098549    -0.00090363
H        -6.42146916    -1.83951583     0.06838773    -0.00151911    -0.00024946    -0.00126463
H        -4.15274830    -1.62030246     0.49880460    -0.00069753    -0.00014646    -0.00009225
C        -3.97291908     0.49340402    -0.07694323    -0.00040409    -0.00029500    -0.00012901
C        -2.58079889     0.55746858     0.19415160     0.00042204    -0.00013388    -0.00001171
H        -4.54296971     1.36340045    -0.44960050     0.00064984     0.00015316     0.00022488
H        -2.08707516    -0.30274221     0.59392645     0.00078649     0.00205848     0.00021373
C        -1.86496155     1.71716896     0.06043318    -0.00018976     0.00020742     0.00004028
H        -2.30072573     2.67472653    -0.22263850    -0.00076565    -0.00078098     0.00045121
N        -0.47613195     1.73090784     0.17023571    -0.00003208    -0.00008422    -0.00014720
H         0.03761359     2.58802136     0.09687740     0.00048664     0.00019363     0.00071796
H         0.08361121     0.93701480     0.36906196     0.00111591     0.00022551     0.00095472
    14
  Step:    10            Position(A)                                  Velocity(au)
C        -6.02095232    -0.81161624    -0.10810694    -0.00045948     0.00004247     0.00011820
C        -4.63902554    -0.72025794     0.11247685     0.00065381     0.00006747     0.00012886
H        -6.60486492     0.08108080    -0.45284125    -0.00007007     0.00078024    -0.00083872
H        -6.43865239    -1.84087399     0.05414575    -0.00160867     0.00001186    -0.00133555
H        -4.16003278    -1.62147005     0.49756837    -0.00061771    -0.00007983    -0.00012608
C        -3.97767759     0.49007595    -0.07840630    -0.00046020    -0.00031366    -0.00013714
C        -2.57592601     0.55611591     0.19408538     0.00046395    -0.00010832    -0.00000294
H        -4.53534876     1.36472608    -0.44690871     0.00073008     0.00009406     0.00026273
H        -2.07810955    -0.28111870     0.59630776     0.00087784     0.00183534     0.00024510
C        -1.86680966     1.71948455     0.06084591    -0.00014628     0.00021264     0.00003596
H        -2.30922477     2.66603067    -0.21769774    -0.00079319    -0.00077906     0.00044296
N        -0.47663730     1.73005721     0.16861959    -0.00005799    -0.00007131    -0.00014787
H         0.04317116     2.59086437     0.10462523     0.00051100     0.00030406     0.00069939
H         0.09623707     0.93811350     0.37981048     0.00115939     0.00000872     0.00100148
    14
  Step:    11            Position(A)                                  Velocity(au)
C        -6.02603922    -0.81123260    -0.10682900    -0.00046932     0.00002933     0.00011440
C        -4.63195299    -0.71945864     0.11389162     0.00063319     0.00007811     0.00012893
H        -6.60527843     0.08837865    -0.46159964     0.00000298     0.00054038    -0.00075397
H        -6.45666181    -1.83925646     0.03916996    -0.00167193     0.00028717    -0.00139754
H        -4.16626189    -1.62204889     0.49604630    -0.00050542    -0.00003956    -0.00014433
C        -3.98298678     0.48654221    -0.07994338    -0.00050369    -0.00033231    -0.00014241
C        -2.57064916     0.55509891     0.19408737     0.00049529    -0.00007385     0.00000093
H        -4.52699792     1.36545808    -0.44385276     0.00078112     0.00004769     0.00029021
H        -2.06787078    -0.26259073     0.59928847     0.00101551     0.00150262     0.00032034
C        -1.86816180     1.72182083     0.06121979    -0.00009915     0.00021168     0.00003310
H        -2.31807832     2.65768311    -0.21294797    -0.00083023    -0.00071846     0.00041685
N        -0.47740065     1.72934787     0.16700086    -0.00007849    -0.00005864    -0.00014742
H         0.04879274     2.59467333     0.11217796     0.00049655     0.00036635     0.00068198
H         0.10897512     0.93720554     0.39097122     0.00113095    -0.00013396     0.00102687
    14
  Step:    12            Position(A)                                  Velocity(au)
C        -6.03121953    -0.81097460    -0.10560414    -0.00047643     0.00001945     0.00010861
C        -4.62517329    -0.71854912     0.11529741     0.00060059     0.00008704     0.00012742
H        -6.60479981     0.09290274    -0.46933574     0.00008883     0.00028057    -0.00065451
H        -6.47522909    -1.83459158     0.02357185    -0.00171275     0.00056167    -0.00144834
H        -4.17108982    -1.62233551     0.49441081    -0.00036336    -0.00002561    -0.00014739
C        -3.98869677     0.48280599    -0.08152186    -0.00053262    -0.00035018    -0.00014469
C        -2.56509054     0.55450028     0.19410576     0.00051549    -0.00003382     0.00000063
H        -4.51826035     1.36576930    -0.44055975     0.00079953     0.00001931     0.00030527
H        -2.05589326    -0.24824596     0.60331586     0.00118663     0.00108871     0.00042903
C        -1.86897880     1.72411548     0.06156997    -0.00004873     0.00020575     0.00003147
H        -2.32738771     2.65031293    -0.20857828    -0.00087491    -0.00060465     0.00037492
N        -0.47835440     1.72877425     0.16539451    -0.00009248    -0.00004653    -0.00014545
H         0.05403405     2.59887899     0.11954475     0.00044188     0.00037626     0.00066487
H         0.12097874     0.93518292     0.40227527     0.00102457    -0.00019433     0.00102618
    14
  Step:    13            Position(A)                                  Velocity(au)
C        -6.03646198    -0.81080718    -0.10445297    -0.00048039     0.00001268     0.00010111
C        -4.61881397    -0.71755448     0.11667924     0.00055659     0.00009289     0.00012481
H        -6.60333511     0.09451673    -0.47591839     0.00017920     0.00001591    -0.00054597
H        -6.49413157    -1.82696876     0.00748482    -0.00173559     0.00082090    -0.00148619
H        -4.17421102    -1.62260916     0.49282176    -0.00019612    -0.00003483    -0.00013715
C        -3.99463890     0.47888127    -0.08310867    -0.00054562    -0.00036611    -0.00014403
C        -2.55937175     0.55435900     0.19410124     0.00052525     0.00000742    -0.00000236
H        -4.50950659     1.36588043    -0.43717434     0.00078392     0.00001207     0.00030688
H        -2.04191098    -0.23877313     0.60867430     0.00136882     0.00063534     0.00055284
C        -1.86922786     1.72632210     0.06190827     0.00000418     0.00019648     0.00003071
H        -2.33721862     2.64445523    -0.20474589    -0.00092252    -0.00044913     0.00032087
N        -0.47942394     1.72832983     0.16381891    -0.00009975    -0.00003491    -0.00014176
H         0.05845962     2.60290482     0.12672321     0.00034977     0.00033628     0.00064694
H         0.13138959     0.93295410     0.41342082     0.00084351    -0.00017632     0.00099813
    14
  Step:    14            Position(A)                                  Velocity(au)
C        -6.04172895    -0.81069719    -0.10339228    -0.00048050     0.00000881     0.00009230
C        -4.61299675    -0.71651702     0.11802777     0.00050173     0.00009397     0.00012163
H        -6.60087957     0.09325076    -0.48127994     0.00026608    -0.00023833    -0.00043430
H        -6.51319835    -1.81663275    -0.00894147    -0.00174536     0.00105115    -0.00150990
H        -4.17538036    -1.62309740     0.49141044    -0.00001001    -0.00006109    -0.00011681
C        -4.00063327     0.47479662    -0.08467280    -0.00054205    -0.00037866    -0.00014074
C        -2.55359968     0.55466256     0.19405403     0.00052631     0.00004524    -0.00000616
H        -4.50111051     1.36603328    -0.43384619     0.00073513     0.00002644     0.00029521
H        -2.02594775    -0.23434669     0.61541030     0.00153434     0.00018999     0.00066898
C        -1.86888733     1.72841387     0.06224183     0.00005840     0.00018572     0.00003036
H        -2.34756954     2.64048744    -0.20155861    -0.00096577    -0.00026833     0.00025975
N        -0.48053669     1.72801050     0.16229323    -0.00010080    -0.00002348    -0.00013638
H         0.06168602     2.60623571     0.13369788     0.00022654     0.00025442     0.00062707
H         0.13943222     0.93132558     0.42411134     0.00059838    -0.00009269     0.00094464
    14
  Step:    15            Position(A)                                  Velocity(au)
C        -6.04697380    -0.81061434    -0.10243380    -0.00047589     0.00000752     0.00008269
C        -4.60783771    -0.71549866     0.11934004     0.00043658     0.00008853     0.00011848
H        -6.59751406     0.08930277    -0.48541955     0.00034184    -0.00046680    -0.00032572
H        -6.53231469    -1.80397292    -0.02554703    -0.00174727     0.00123998    -0.00151879
H        -4.17442998    -1.62394571     0.49026638     0.00018742    -0.00009600    -0.00009056
C        -4.00649721     0.47059746    -0.08618752    -0.00052204    -0.00038626    -0.00013527
C        -2.54785770     0.55534879     0.19396641     0.00052091     0.00007562    -0.00000887
H        -4.49342411     1.36645889    -0.43071597     0.00065626     0.00005990     0.00027175
H        -2.00834444    -0.23461669     0.62330954     0.00165636    -0.00020384     0.00075535
C        -1.86795027     1.73038498     0.06257240     0.00011250     0.00017532     0.00002992
H        -2.35834669     2.63858502    -0.19906346    -0.00099570    -0.00008139     0.00019723
N        -0.48162910     1.72781613     0.16083534    -0.00009667    -0.00001187    -0.00012951
H         0.06341558     2.60847074     0.14044150     0.00008105     0.00014272     0.00060430
H         0.14448036     0.93092627     0.43408656     0.00030465     0.00003845     0.00087005
    14
  Step:    16            Position(A)                                  Velocity(au)
C        -6.05213988    -0.81053276    -0.10158329    -0.00046564     0.00000829     0.00007286
C        -4.60344571    -0.71458032     0.12061966     0.00036192     0.00007497     0.00011593
H        -6.59340116     0.08303858    -0.48840565     0.00039926    -0.00065433    -0.00022659
H        -6.55142333    -1.78950577    -0.04216785    -0.00174647     0.00137694    -0.00151279
H        -4.17128015    -1.62519768     0.48942934     0.00038792    -0.00013001    -0.00006300
C        -4.01205394     0.46634640    -0.08763215    -0.00048647    -0.00038743    -0.00012824
C        -2.54220367     0.55631697     0.19385998     0.00051119     0.00009580    -0.00000903
H        -4.48675348     1.36734368    -0.42790113     0.00055242     0.00010694     0.00023916
H        -1.98971178    -0.23880599     0.63193500     0.00171491    -0.00051473     0.00079540
C        -1.86642624     1.73224941     0.06289638     0.00016496     0.00016694     0.00002894
H        -2.36935243     2.63870688    -0.19724393    -0.00100306     0.00009273     0.00013882
N        -0.48265156     1.72775082     0.15945990    -0.00008878     0.00000029    -0.00012151
H         0.06345918     2.60935802     0.14691810    -0.00007613     0.00001574     0.00057804
H         0.14609696     0.93216672     0.44314538    -0.00001944     0.00019635     0.00078052
    14
  Step:    17            Position(A)                                  Velocity(au)
C        -6.05716064    -0.81043292    -0.10083982    -0.00044897     0.00001045     0.00006343
C        -4.59992011    -0.71385862     0.12187629     0.00027875     0.00005215     0.00011449
H        -6.58877947     0.07498799    -0.49037667     0.00043185    -0.00078648    -0.00014318
H        -6.57052198    -1.77384973    -0.05864227    -0.00174747     0.00145446    -0.00149241
H        -4.16594346    -1.62678992     0.48888805     0.00058321    -0.00015380    -0.00003857
C        -4.01713977     0.46212177    -0.08899293    -0.00043681    -0.00038090    -0.00012026
C        -2.53667434     0.55744463     0.19376882     0.00049876     0.00010457    -0.00000587
H        -4.48133877     1.36879830    -0.42548383     0.00043021     0.00015965     0.00020102
H        -1.97082740    -0.24587732     0.64071036     0.00170004    -0.00072680     0.00078068
C        -1.86434141     1.73403718     0.06320561     0.00021436     0.00016178     0.00002708
H        -2.38029063     2.64061367    -0.19602658    -0.00097986     0.00023801     0.00008908
N        -0.48357133     1.72782254     0.15817706    -0.00007874     0.00001334    -0.00011284
H         0.06175010     2.60881504     0.15308716    -0.00023359    -0.00011069     0.00054807
H         0.14405511     0.93522184     0.45116190    -0.00035430     0.00035928     0.00068343
    14
  Step:    18            Position(A)                                  Velocity(au)
C        -6.06196189    -0.81030407    -0.10019565    -0.00042533     0.00001309     0.00005500
C        -4.59734757    -0.71343934     0.12312431     0.00018840     0.00001962     0.00011450
H        -6.58395355     0.06583284    -0.49153797     0.00043428    -0.00085045    -0.00008122
H        -6.58965250    -1.75768663    -0.07481711    -0.00175343     0.00146908    -0.00145865
H        -4.15852139    -1.62856225     0.48858554     0.00076551    -0.00015959    -0.00002096
C        -4.02161010     0.45801350    -0.09026303    -0.00037501    -0.00036589    -0.00011194
C        -2.53129233     0.55860458     0.19373163     0.00048461     0.00010214     0.00000074
H        -4.47734173     1.37083630    -0.42350333     0.00029700     0.00020885     0.00016133
H        -1.95252013    -0.25470613     0.64901393     0.00161163    -0.00083855     0.00071074
C        -1.86173677     1.73578867     0.06348872     0.00025944     0.00016048     0.00002409
H        -2.39078871     2.64391373    -0.19529513    -0.00092061     0.00034330     0.00005108
N        -0.48437425     1.72804275     0.15699133    -0.00006829     0.00002759    -0.00010405
H         0.05834896     2.60693649     0.15890814    -0.00037974    -0.00022056     0.00051460
H         0.13834605     0.94002668     0.45809673    -0.00067999     0.00050548     0.00058706
    14
  Step:    19            Position(A)                                  Velocity(au)
C        -6.06646564    -0.81014654    -0.09963654    -0.00039466     0.00001515     0.00004810
C        -4.59579853    -0.71342934     0.12438109     0.00009249    -0.00002229     0.00011612
H        -6.57927878     0.05638267    -0.49215348     0.00040321    -0.00083686    -0.00004514
H        -6.60888154    -1.74171090    -0.09055307    -0.00176536     0.00142228    -0.00141291
H        -4.14919639    -1.63028125     0.48842951     0.00092805    -0.00014215    -0.00001278
C        -4.02534392     0.45411712    -0.09144172    -0.00030336    -0.00034226    -0.00010374
C        -2.52607249     0.55967907     0.19378494     0.00046925     0.00008977     0.00001038
H        -4.47484125     1.37336723    -0.42195453     0.00016017     0.00024540     0.00012392
H        -1.93557001    -0.26422230     0.65625912     0.00145697    -0.00085886     0.00059108
C        -1.85866558     1.73754791     0.06373270     0.00029924     0.00016309     0.00001992
H        -2.40043078     2.64812400    -0.19490913    -0.00082305     0.00040314     0.00002620
N        -0.48506521     1.72842622     0.15590078    -0.00005911     0.00004336    -0.00009576
H         0.05344266     2.60398977     0.16434507    -0.00050353    -0.00029886     0.00047824
H         0.12917905     0.94628028     0.46400504    -0.00097695     0.00061383     0.00050028
    14
  Step:    20            Position(A)                                  Velocity(au)
C        -6.07059591    -0.80997262    -0.09914343    -0.00035747     0.00001558     0.00004303
C        -4.59532412    -0.71392700     0.12566463    -0.00000708    -0.00007240     0.00011932
H        -6.57513246     0.04752496    -0.49252545     0.00033840    -0.00074182    -0.00003705
H        -6.62827307    -1.72657163    -0.10572712    -0.00178152     0.00132091    -0.00135663
H        -4.13821855    -1.63167197     0.48830597     0.00106531    -0.00009922    -0.00001536
C        -4.02824661     0.45052599    -0.09253264    -0.00022433    -0.00031056    -0.00009599
C        -2.52102662     0.56056848     0.19395876     0.00045284     0.00006932     0.00002238
H        -4.47383762     1.37620486    -0.42079225     0.00002643     0.00026153     0.00009207
H        -1.92064606    -0.27349528     0.66194488     0.00124760    -0.00080226     0.00043061
C        -1.85519029     1.73935647     0.06392448     0.00033303     0.00016915     0.00001460
H        -2.40879448     2.65273309    -0.19472195    -0.00068809     0.00041733     0.00001432
N        -0.48566744     1.72899138     0.15489643    -0.00005277     0.00006099    -0.00008861