 Fermi distribution function

Calculation with static geometry


********************************************************************************
 iSCC Total electronic   Diff electronic      SCC error    
   10   -0.53357929E+01   -0.32708947E-10    0.49507654E-06
********************************************************************************

 Total charge:     1.00000000

 Atomic gross charges (e)
 Atom           Charge
    1       0.24133766
    2      -0.12938311
    3       0.17889634
    4       0.26446311
    5       0.26571393
    6       0.17897206

Nr. of electrons (up):     12.00000000
Atom populations (up)
 Atom       Population
    1       3.75866234
    2       5.12938311
    3       0.82110366
    4       0.73553689
    5       0.73428607
    6       0.82102794

l-shell populations (up)
 Atom Sh.   l       Population
    1   1   0       1.36938065
    1   2   1       2.38928169
    2   1   0       1.48448381
    2   2   1       3.64489930
    3   1   0       0.82110366
    4   1   0       0.73553689
    5   1   0       0.73428607
    6   1   0       0.82102794

Orbital populations (up)
 Atom Sh.   l   m       Population  Label
    1   1   0   0       1.36938065  s
    1   2   1  -1       0.49619091  p_y
    1   2   1   0       0.88026204  p_z
    1   2   1   1       1.01282874  p_x
    2   1   0   0       1.48448381  s
    2   2   1  -1       1.35095970  p_y
    2   2   1   0       1.13609837  p_z
    2   2   1   1       1.15784123  p_x
    3   1   0   0       0.82110366  s
    4   1   0   0       0.73553689  s
    5   1   0   0       0.73428607  s
    6   1   0   0       0.82102794  s

Fermi level:                        -0.5264238301 H          -14.3247 eV
Band energy:                        -8.8412448337 H         -240.5825 eV
TS:                                  0.0000000000 H            0.0000 eV
Band free energy (E-TS):            -8.8412448337 H         -240.5825 eV
Extrapolated E(0K):                 -8.8412448337 H         -240.5825 eV
Input / Output electrons (q):     12.0000000000     12.0000000000

Energy H0:                          -5.4727201957 H         -148.9203 eV
Energy SCC:                          0.1369272512 H            3.7260 eV
Total Electronic energy:            -5.3357929445 H         -145.1943 eV
Repulsive energy:                    0.1623186253 H            4.4169 eV
Total energy:                       -5.1734743192 H         -140.7774 eV
Extrapolated to 0:                  -5.1734743192 H         -140.7774 eV
Total Mermin free energy:           -5.1734743192 H         -140.7774 eV
Force related energy:               -5.1734743192 H         -140.7774 eV

SCC converged

Excitation Energy:                   0.1516022923 H            4.1253 eV

Total Forces
    1      0.011682477209      0.007090383254      0.014670527480
    2      0.010745666149     -0.005715449232     -0.014681049170
    3     -0.001218901808     -0.006566089036     -0.011256171067
    4     -0.006527445590      0.000531446564     -0.000898047524
    5     -0.013863477910      0.003653237815      0.013771096636
    6     -0.000818318049      0.001006470635     -0.001606356356

Maximal derivative component:        0.146810E-01 au


