     6
  Step:   120            Position(A)                                  Velocity(au)
C        -0.04975815    -0.04783671     0.01614613    -0.00018398     0.00004543    -0.00004203
N        -0.03844076    -0.07565416     1.30632495     0.00008667     0.00006460     0.00000165
H         0.82697353    -0.03096031    -0.68454553     0.00032148    -0.00151532     0.00049578
H         0.68992582     0.47148070     1.82324958    -0.00051811     0.00092344     0.00016206
H        -0.90650783    -0.27265888     1.86644572     0.00040650    -0.00164566    -0.00049455
H        -0.69622542     0.78372911    -0.45865914     0.00077800     0.00079846     0.00031456
