     6
  Step:   600            Position(A)                                  Velocity(au)
C         0.07514784     0.14890829    -0.01902288    -0.00010254    -0.00024947     0.00104456
N        -0.13755968    -0.23690049     1.34237718    -0.00009655     0.00038797     0.00013753
H        -0.94571375    -0.44683293    -0.82719610    -0.00129106    -0.00012755    -0.00824000
H        -0.83191800     0.48378442     1.65751718    -0.00004627    -0.00275691     0.00043104
H         0.68191977    -0.32119613     1.81293600     0.00196701    -0.00173264    -0.00096717
H         0.89806318     1.13181823    -0.17869109     0.00193384     0.00219838    -0.00558205
