     6
  Step:   300            Position(A)                                  Velocity(au)
C        -0.05275804     0.00278363     0.02609248     0.00005163    -0.00006963     0.00009911
N        -0.04721946    -0.05384783     1.28970093    -0.00020959     0.00005997    -0.00009285
H         0.19520639     0.97939870    -0.38527818    -0.00141623     0.00019817    -0.00010076
H         0.05799220    -0.90558070     1.84037397    -0.00022112     0.00044468     0.00048121
H         0.16137456     0.79877930     1.82849506     0.00259304    -0.00072696     0.00040174
H        -0.34269023    -0.82725722    -0.62460191     0.00134169     0.00008046    -0.00067290
