     6
  Step:   300            Position(A)                                  Velocity(au)
C        -0.06774280     0.02291806     0.02177957     0.00008947     0.00012431     0.00015660
N        -0.00662468    -0.05980867     1.29827070    -0.00029675     0.00000545    -0.00018086
H         0.15559353    -0.89155152    -0.53296932    -0.00052721    -0.00061201     0.00091393
H         0.03538006     0.78670100     1.86941661     0.00096664    -0.00050192     0.00028251
H        -0.19326642    -0.97737225     1.71724040     0.00214853    -0.00044823     0.00016484
H        -0.31137017     0.97047460    -0.46240961     0.00046974     0.00000511    -0.00071395
