    14
  Step:     0            Position(A)                                  Velocity(au)
C        -5.96753082    -0.75411003    -0.17434348     0.00009638    -0.00031129     0.00029687
C        -4.71527366    -0.77078876     0.19226281    -0.00037548    -0.00009621    -0.00011655
H        -6.41908452    -0.02121290    -0.79470360     0.00065736    -0.00017190    -0.00090077
H        -6.61061248    -1.58859363    -0.01823245     0.00020375     0.00069342    -0.00028169
H        -4.22746475    -1.59206676     0.71877879     0.00100829    -0.00002544    -0.00059798
C        -3.92893287     0.44361895    -0.05365571    -0.00031158     0.00000205    -0.00005581
C        -2.57330912     0.55690864     0.26309412     0.00018182     0.00043332    -0.00005604
H        -4.38618451     1.21955413    -0.61440468     0.00046168     0.00073990    -0.00065292
H        -2.01211164    -0.27220451     0.76435651     0.00032985     0.00018219     0.00011385
C        -1.84365227     1.70720150     0.03267595    -0.00018820     0.00005863     0.00010787
H        -2.29440742     2.69145119    -0.36041233    -0.00024900     0.00096177    -0.00039676
N        -0.51393603     1.76258533     0.11369040     0.00021963    -0.00015232     0.00006678
H        -0.05636575     2.68084868     0.02669472     0.00101310    -0.00011985    -0.00029282
H        -0.07824042     0.93492702     0.61324101     0.00063750    -0.00117415    -0.00002016
    14
  Step:     1            Position(A)                                  Velocity(au)
C        -5.96700588    -0.75765237    -0.17126033    -0.00000281    -0.00033175     0.00026332
C        -4.71873756    -0.77159023     0.19112490    -0.00025281    -0.00005056    -0.00009016
H        -6.41208065    -0.02172738    -0.80500640     0.00063261     0.00005669    -0.00096311
H        -6.60908544    -1.58194705    -0.02083452     0.00005137     0.00048909    -0.00018577
H        -4.21666478    -1.59245400     0.71224366     0.00095544    -0.00003766    -0.00059949
C        -3.93267992     0.44335257    -0.05428003    -0.00037350    -0.00004859    -0.00005957
C        -2.57097379     0.56158232     0.26264714     0.00024330     0.00041905    -0.00002513
H        -4.38181377     1.22867619    -0.62203112     0.00034441     0.00090240    -0.00072519
H        -2.00924012    -0.26978093     0.76492336     0.00019319     0.00026604    -0.00001446
C        -1.84589749     1.70812953     0.03370644    -0.00021919     0.00011344     0.00007986
H        -2.29686328     2.69994255    -0.36413512    -0.00019169     0.00057446    -0.00027645
N        -0.51131013     1.76082162     0.11453713     0.00025989    -0.00017064     0.00008860
H        -0.04520768     2.67856899     0.02378515     0.00101638    -0.00031048    -0.00023794
H        -0.07140913     0.92411890     0.61191340     0.00059601    -0.00077970    -0.00023459
    14
  Step:     2            Position(A)                                  Velocity(au)
C        -5.96759225    -0.76136770    -0.16858279    -0.00010535    -0.00034324     0.00022323
C        -4.72080434    -0.77189494     0.19029031    -0.00012250    -0.00000566    -0.00006174
H        -6.40524501    -0.01997260    -0.81577348     0.00062669     0.00023874    -0.00098232
H        -6.60948863    -1.57789381    -0.02229645    -0.00014324     0.00022795    -0.00007605
H        -4.20656260    -1.59289057     0.70566385     0.00088257    -0.00003530    -0.00060476
C        -3.93710383     0.44255588    -0.05495887    -0.00043470    -0.00009410    -0.00006600
C        -2.56798638     0.56607611     0.26254444     0.00030021     0.00040099     0.00000642
H        -4.37864999     1.23929586    -0.63026951     0.00024343     0.00100794    -0.00076094
H        -2.00788523    -0.26638443     0.76404024     0.00005711     0.00035465    -0.00014774
C        -1.84844755     1.70968325     0.03442299    -0.00024329     0.00017186     0.00005092
H        -2.29860102     2.70401855    -0.36646015    -0.00012190     0.00016556    -0.00014547
N        -0.50825043     1.75885219     0.11562877     0.00029784    -0.00018927     0.00011093
H        -0.03413060     2.67405630     0.02148922     0.00100207    -0.00051953    -0.00018197
H        -0.06520149     0.91786957     0.60810882     0.00053109    -0.00035704    -0.00046353
    14
  Step:     3            Position(A)                                  Velocity(au)
C        -5.96931060    -0.76516139    -0.16637675    -0.00020835    -0.00034694     0.00017792
C        -4.72141745    -0.77171411     0.18977429     0.00001037     0.00003797    -0.00003261
H        -6.39837067    -0.01650440    -0.82649657     0.00063800     0.00036853    -0.00095440
H        -6.61221906    -1.57696022    -0.02249830    -0.00036502    -0.00006885     0.00004131
H        -4.19735679    -1.59322624     0.69901338     0.00079401    -0.00002075    -0.00061077
C        -3.94218992     0.44129390    -0.05572397    -0.00049371    -0.00013314    -0.00007534
C        -2.56440606     0.57035469     0.26278768     0.00035082     0.00038022     0.00003763
H        -4.37648820     1.25072682    -0.63867804     0.00016161     0.00104849    -0.00075491
H        -2.00799081    -0.26202235     0.76169117    -0.00006945     0.00043718    -0.00027887
C        -1.85121983     1.71188928     0.03482048    -0.00025926     0.00023160     0.00002196
H        -2.29953009     2.70356440    -0.36731758    -0.00004785    -0.00024305    -0.00001228
N        -0.50479440     1.75668093     0.11696404     0.00033129    -0.00020691     0.00013256
H        -0.02328555     2.66720318     0.01980424     0.00097809    -0.00072959    -0.00012766
H        -0.05979058     0.91630798     0.60177281     0.00045798     0.00006106    -0.00068835
    14
  Step:     4            Position(A)                                  Velocity(au)
C        -5.97215021    -0.76895775    -0.16469055    -0.00030906    -0.00034494     0.00012915
C        -4.72057741    -0.77106431     0.18957701     0.00014064     0.00007987    -0.00000413
H        -6.39128749    -0.01191041    -0.83665274     0.00066205     0.00044532    -0.00088023
H        -6.61747406    -1.57940002    -0.02139265    -0.00059383    -0.00037432     0.00015957
H        -4.18919210    -1.59334447     0.69230210     0.00069506     0.00000245    -0.00061420
C        -3.94790466     0.43964324    -0.05660700    -0.00054865    -0.00016489    -0.00008737
C        -2.56031154     0.57439419     0.26336763     0.00039334     0.00035777     0.00006750
H        -4.37511449     1.26223355    -0.64678453     0.00009821     0.00102260    -0.00070644
H        -2.00940454    -0.25682020     0.75793946    -0.00017794     0.00050299    -0.00040058
C        -1.85411939     1.71474998     0.03490335    -0.00026604     0.00029045    -0.00000616
H        -2.29964788     2.69870138    -0.36672877     0.00002228    -0.00062944     0.00011464
N        -0.50100284     1.75432560     0.11852879     0.00035815    -0.00022226     0.00015231
H        -0.01273307     2.65809517     0.01869639     0.00095277    -0.00092334    -0.00007785
H        -0.05518231     0.91920538     0.59304993     0.00039218     0.00044168    -0.00089107
    14
  Step:     5            Position(A)                                  Velocity(au)
C        -5.97607192    -0.77270761    -0.16355132    -0.00040505    -0.00033975     0.00007893
C        -4.71834078    -0.76996690     0.18968397     0.00026338     0.00011960     0.00002242
H        -6.38388705    -0.00676215    -0.84575320     0.00069261     0.00047222    -0.00076462
H        -6.62521031    -1.58514926    -0.01900738    -0.00080775    -0.00065974     0.00027210
H        -4.18215093    -1.59317273     0.68557653     0.00059160     0.00003002    -0.00061182
C        -3.95419274     0.43768659    -0.05763543    -0.00059753    -0.00018902    -0.00010159
C        -2.55580097     0.57818149     0.26426429     0.00042609     0.00033458     0.00009507
H        -4.37433964     1.27309812    -0.65413268     0.00004995     0.00093431    -0.00061863
H        -2.01188351    -0.25101852     0.75292775    -0.00026047     0.00054186    -0.00050580
C        -1.85704002     1.71824335     0.03468581    -0.00026265     0.00034610    -0.00003249
H        -2.29904265     2.68979415    -0.36480969     0.00007982    -0.00097060     0.00022627
N        -0.49695907     1.75181862     0.12029622     0.00037644    -0.00023389     0.00016905
H        -0.00244194     2.64700334     0.01810105     0.00093423    -0.00108472    -0.00003526
H        -0.05121095     0.92597050     0.58227884     0.00034962     0.00075146    -0.00105421
    14
  Step:     6            Position(A)                                  Velocity(au)
C        -5.98101151    -0.77639049    -0.16296382    -0.00049418    -0.00033387     0.00002924
C        -4.71481542    -0.76844779     0.19006759     0.00037430     0.00015677     0.00004597
H        -6.37613523    -0.00157967    -0.85338019     0.00072276     0.00045504    -0.00061519
H        -6.63514511    -1.59383312    -0.01544004    -0.00098687    -0.00089930     0.00037309
H        -4.17624971    -1.59268783     0.67891745     0.00048959     0.00005743    -0.00060069
C        -3.96097669     0.43550814    -0.05882958    -0.00063842    -0.00020554    -0.00011728
C        -2.55099003     0.58171387     0.26544743     0.00044766     0.00031163     0.00011947
H        -4.37402177     1.28267342    -0.66031828     0.00001200     0.00079174    -0.00049732
H        -2.01510277    -0.24496593     0.74687419    -0.00031015     0.00054454    -0.00058806
C        -1.85986535     1.72232149     0.03419264    -0.00024823     0.00039606    -0.00005602
H        -2.29790164     2.67746770    -0.36177876     0.00011520    -0.00124178     0.00031278
N        -0.49276754     1.74920885     0.12222702     0.00038435    -0.00024026     0.00018166
H         0.00770507     2.63436492     0.01792491     0.00092972    -0.00120001    -0.00000232
H        -0.04753372     0.93564497     0.56998713     0.00034626     0.00095770    -0.00116131
    14
  Step:     7            Position(A)                                  Velocity(au)
C        -5.98688313    -0.78001168    -0.16291169    -0.00057465    -0.00032936    -0.00001813
C        -4.71015228    -0.76653718     0.19068971     0.00046993     0.00019099     0.00006569
H        -6.36807524     0.00319266    -0.85921175     0.00074568     0.00040134    -0.00044130
H        -6.64680001    -1.60482313    -0.01084534    -0.00111652    -0.00107389     0.00045812
H        -4.17144024    -1.59191632     0.67243530     0.00039471     0.00008035    -0.00057840
C        -3.96815947     0.43318991    -0.06020113    -0.00066975    -0.00021479    -0.00013362
C        -2.54600754     0.58499896     0.26687784     0.00045715     0.00028981     0.00013997
H        -4.37407715     1.29041891    -0.66501250    -0.00002102     0.00060554    -0.00034994
H        -2.01866858    -0.23910572     0.74006289    -0.00032174     0.00050362    -0.00064221
C        -1.86247060     1.72690802     0.03346021    -0.00022216     0.00043765    -0.00007567
H        -2.29652238     2.66262790    -0.35796704     0.00011798    -0.00141687     0.00036359
N        -0.48855058     1.74656254     0.12427027     0.00038055    -0.00023985     0.00018922
H         0.01789737     2.62075080     0.01805022     0.00094477    -0.00125918     0.00001902
H        -0.04363595     0.94692210     0.55687291     0.00039637     0.00103186    -0.00119896
    14
  Step:     8            Position(A)                                  Velocity(au)
C        -5.99358308    -0.78359580    -0.16336043    -0.00064500    -0.00032765    -0.00006169
C        -4.70453487    -0.76426956     0.19150476     0.00054785     0.00022188     0.00008108
H        -6.35982206     0.00720043    -0.86303453     0.00075515     0.00031974    -0.00025311
H        -6.65957117    -1.61732660    -0.00541789    -0.00118884    -0.00117297     0.00052431
H        -4.16761478    -1.59092993     0.66626382     0.00031188     0.00009504    -0.00054323
C        -3.97562878     0.43080913    -0.06175283    -0.00069035    -0.00021731    -0.00014982
C        -2.54098906     0.58805412     0.26850944     0.00045425     0.00026993     0.00015607
H        -4.37448173     1.29592086    -0.66797392    -0.00005447     0.00038790    -0.00018481
H        -2.02214135    -0.23394823     0.73282465    -0.00029253     0.00041496    -0.00066532
C        -1.86472553     1.73189601     0.03253725    -0.00018407     0.00046813    -0.00009032
H        -2.29532063     2.64647093    -0.35382462     0.00007755    -0.00147054     0.00036813
N        -0.48444219     1.74396164     0.12636652     0.00036441    -0.00023156     0.00019123
H         0.02837368     2.60681805     0.01834097     0.00098235    -0.00125722     0.00002749
H        -0.03886229     0.95821880     0.54375748     0.00050924     0.00095589    -0.00116008
    14
  Step:     9            Position(A)                                  Velocity(au)
C        -6.00099382    -0.78717956    -0.16426129    -0.00070418    -0.00032953    -0.00010032
C        -4.69816700    -0.76168315     0.19246342     0.00060674     0.00024908     0.00009194
H        -6.35155490     0.01018768    -0.86474907     0.00074581     0.00021947    -0.00006108
H        -6.67280815    -1.63048405     0.00062499    -0.00120280    -0.00119445     0.00057044
H        -4.16461716    -1.58983703     0.66055114     0.00024495     0.00009876    -0.00049431
C        -3.98326225     0.42843578    -0.06347870    -0.00069951    -0.00021383    -0.00016509
C        -2.53606988     0.59090425     0.27029214     0.00043933     0.00025249     0.00016757
H        -4.37526868     1.29890497    -0.66905553    -0.00009336     0.00015190    -0.00001066
H        -2.02506812    -0.23002768     0.72550774    -0.00022320     0.00027904    -0.00065740
C        -1.86649738     1.73714930     0.03148437    -0.00013399     0.00048518    -0.00009903
H        -2.29482586     2.63045698    -0.34991357    -0.00001487    -0.00138305     0.00031784
N        -0.48057833     1.74149674     0.12845377     0.00033641    -0.00021517     0.00018786
H         0.03938810     2.59324679     0.01865156     0.00104195    -0.00119533     0.00002274
H        -0.03249546     0.96783413     0.53149401     0.00068460     0.00073021    -0.00104770
    14
  Step:    10            Position(A)                                  Velocity(au)
C        -6.00898837    -0.79080492    -0.16555521    -0.00075154    -0.00033528    -0.00013325
C        -4.69126132    -0.75882051     0.19351603     0.00064625     0.00027216     0.00009838
H        -6.34350600     0.01200179    -0.86437087     0.00071333     0.00011008     0.00012444
H        -6.68588478    -1.64345757     0.00706162    -0.00116288    -0.00114319     0.00059673
H        -4.16225597    -1.58876927     0.65544988     0.00019637     0.00009016    -0.00043178
C        -3.99093182     0.42613123    -0.06536449    -0.00069686    -0.00020518    -0.00017871
C        -2.53137794     0.59357791     0.27217543     0.00041333     0.00023757     0.00017462
H        -4.37652421     1.29924392    -0.66820702    -0.00014232    -0.00008881     0.00016363
H        -2.02702426    -0.22784361     0.71844286    -0.00011852     0.00010230    -0.00062193
C        -1.86765672     1.74251020     0.03037074    -0.00007263     0.00048757    -0.00010135
H        -2.29564600     2.61621414    -0.34687123    -0.00016283    -0.00114764     0.00020936
N        -0.47708252     1.73925445     0.13047633     0.00029846    -0.00019178     0.00018014
H         0.05116840     2.58066797     0.01883849     0.00111912    -0.00108135     0.00000554
H        -0.02388530     0.97419346     0.52083709     0.00090879     0.00037970    -0.00087743
    14
  Step:    11            Position(A)                                  Velocity(au)
C        -6.01743511    -0.79451441    -0.16717638    -0.00078683    -0.00034479    -0.00015999
C        -4.68402900    -0.75572915     0.19461577     0.00066689     0.00029061     0.00010081
H        -6.33594949     0.01259583    -0.86202664     0.00065441     0.00000119     0.00029370
H        -6.69824836    -1.65549341     0.01367954    -0.00107726    -0.00102882     0.00060451
H        -4.16032121    -1.58786459     0.65110513     0.00016700     0.00006956    -0.00035688
C        -3.99850732     0.42394710    -0.06738822    -0.00068232    -0.00019227    -0.00018998
C        -2.52702748     0.59610163     0.27411237     0.00037774     0.00022471     0.00017771
H        -4.37838227     1.29696205    -0.66547574    -0.00020549    -0.00032022     0.00032911
H        -2.02766105    -0.22778969     0.71190185     0.00001257    -0.00010250    -0.00056596
C        -1.86808634     1.74781585     0.02926713    -0.00000165     0.00047590    -0.00009758
H        -2.29838806     2.60535019    -0.34533341    -0.00036069    -0.00077816     0.00004794
N        -0.47404898     1.73730112     0.13239462     0.00025392    -0.00016388     0.00016986
H         0.06387105     2.56959015     0.01877276     0.00120542    -0.00092934    -0.00002223
H        -0.01261390     0.97614089     0.51229848     0.00115375    -0.00004619    -0.00067635
    14
  Step:    12            Position(A)                                  Velocity(au)
C        -6.02620188    -0.79834786    -0.16905525    -0.00081016    -0.00035774    -0.00018031
C        -4.67667181    -0.75246293     0.19572146     0.00066975     0.00030378     0.00009982
H        -6.32918950     0.01202792    -0.85794565     0.00056689    -0.00009781     0.00043785
H        -6.70945194    -1.66596499     0.02028642    -0.00095628    -0.00086395     0.00059599
H        -4.15860249    -1.58724761     0.64764248     0.00015608     0.00003905    -0.00027190
C        -4.00585885     0.42192500    -0.06952077    -0.00065599    -0.00017601    -0.00019831
C        -2.52311405     0.59849396     0.27606308     0.00033441     0.00021298     0.00017757
H        -4.38101978     1.29223850    -0.66100716    -0.00028657    -0.00052813     0.00047689
H        -2.02674926    -0.23008591     0.70606141     0.00015780    -0.00031727    -0.00049916
C        -1.86769285     1.75292143     0.02823594     0.00007622     0.00045291    -0.00008898
H        -2.30353684     2.59919043    -0.34582244    -0.00059106    -0.00031270    -0.00015056
N        -0.47152756     1.73566918     0.13419237     0.00020723    -0.00013481     0.00015923
H         0.07753919     2.56033690     0.01835219     0.00128912    -0.00075799    -0.00005767
H         0.00135523     0.97318304     0.50604056     0.00138122    -0.00048230    -0.00047756
    14
  Step:    13            Position(A)                                  Velocity(au)
C        -6.03515900    -0.80234066    -0.17112094    -0.00082181    -0.00037365    -0.00019417
C        -4.66937689    -0.74908347     0.19679949     0.00065627     0.00031087     0.00009615
H        -6.32354772     0.01045600    -0.85244781     0.00044974    -0.00017828     0.00054952
H        -6.71916878    -1.67439391     0.02671805    -0.00081111    -0.00066259     0.00057398
H        -4.15690666    -1.58701019     0.64515675     0.00016133     0.00000246    -0.00018003
C        -4.01285838     0.42009651    -0.07172655    -0.00061811    -0.00015728    -0.00020313
C        -2.51971158     0.60076101     0.27799700     0.00028538     0.00020118     0.00017509
H        -4.38465158     1.28540822    -0.65504287    -0.00038873    -0.00069861     0.00059839
H        -2.02420882    -0.23473048     0.70098170     0.00030316    -0.00052108    -0.00043237
C        -1.86641892     1.75772406     0.02732044     0.00015728     0.00042312    -0.00007764
H        -2.31131862     2.59850935    -0.34862730    -0.00082567     0.00019058    -0.00036111
N        -0.46951553     1.73435199     0.13587809     0.00016309    -0.00010783     0.00015028
H         0.09207303     2.55300764     0.01751114     0.00135676    -0.00058802    -0.00009721
H         0.01760299     0.96558969     0.50185098     0.00155141    -0.00086301    -0.00031206
    14
  Step:    14            Position(A)                                  Velocity(au)
C        -6.04418054    -0.80652222    -0.17330315    -0.00082212    -0.00039190    -0.00020173
C        -4.66231469    -0.74566211     0.19782491     0.00062797     0.00031095     0.00009061
H        -6.31935065     0.00812764    -0.84592374     0.00030319    -0.00023297     0.00062348
H        -6.72719653    -1.68046044     0.03284323    -0.00065313    -0.00043946     0.00054168
H        -4.15507316    -1.58719388     0.64370401     0.00017924    -0.00003512    -0.00008505
C        -4.01938114     0.41848426    -0.07396468    -0.00056900    -0.00013682    -0.00020404
C        -2.51687088     0.60289525     0.27989348     0.00023269     0.00018817     0.00017111
H        -4.38952396     1.27695504    -0.64791626    -0.00051447    -0.00081875     0.00068575
H        -2.02011696    -0.24148550     0.69660256     0.00043494    -0.00069342    -0.00037575
C        -1.86425198     1.76217792     0.02653740     0.00023739     0.00039174    -0.00006601
H        -2.32159986     2.60335984    -0.35372234    -0.00103080     0.00066601    -0.00055468
N        -0.46795970     1.73331025     0.13747998     0.00012561    -0.00008528     0.00014438
H         0.10722092     2.54747280     0.01622552     0.00139511    -0.00043895    -0.00013711
H         0.03529523     0.95430300     0.49921374     0.00163263    -0.00113763    -0.00020156
    14
  Step:    15            Position(A)                                  Velocity(au)
C        -6.05314441    -0.81091426    -0.17553422    -0.00081141    -0.00041167    -0.00020333
C        -4.65563885    -0.74228077     0.19878166     0.00058635     0.00030309     0.00008397
H        -6.31691486     0.00535924    -0.83880796     0.00012888    -0.00025704     0.00065728
H        -6.73345725    -1.68400796     0.03856828    -0.00049359    -0.00020953     0.00050270
H        -4.15298535    -1.58777845     0.64329613     0.00020556    -0.00006787     0.00000898
C        -4.02530636     0.41710339    -0.07619031    -0.00050913    -0.00011521    -0.00020077
C        -2.51462109     0.60487766     0.28174041     0.00017822     0.00017314     0.00016629
H        -4.39590669     1.26749644    -0.64004086    -0.00066528    -0.00087798     0.00073276
H        -2.01469357    -0.24990047     0.69276144     0.00054161    -0.00081742    -0.00033721
C        -1.86122556     1.76629420     0.02587643     0.00031264     0.00036330    -0.00005628
H        -2.33386931     2.61307949    -0.36076199    -0.00117540     0.00105635    -0.00070543
N        -0.46676758     1.73248622     0.13903669     0.00009763    -0.00006813     0.00014205
H         0.12259380     2.54340483     0.01451153     0.00139331    -0.00032614    -0.00017400
H         0.05331990     0.94070195     0.49744153     0.00160775    -0.00127922    -0.00015521
    14
  Step:    16            Position(A)                                  Velocity(au)
C        -6.06193163    -0.81552823    -0.17775144    -0.00078995    -0.00043187    -0.00019955
C        -4.64948718    -0.73903138     0.19966185     0.00053282     0.00028649     0.00007692
H        -6.31653118     0.00250449    -0.83154453    -0.00007011    -0.00024890     0.00065180
H        -6.73799480    -1.68504429     0.04384079    -0.00034347     0.00001218     0.00046098
H        -4.15057622    -1.58867869     0.64390038     0.00023572    -0.00009013     0.00009815
C        -4.03051925     0.41596385    -0.07835691    -0.00043915    -0.00009279    -0.00019331
C        -2.51297205     0.60668303     0.28353148     0.00012355     0.00015583     0.00016101
H        -4.40407822     1.25774746    -0.63188581    -0.00084092    -0.00087004     0.00073609
H        -2.00826825    -0.25936813     0.68922555     0.00061510    -0.00088209    -0.00032141
C        -1.85741244     1.77012581     0.02530607     0.00037998     0.00034055    -0.00004994
H        -2.34731408     2.62646954    -0.36915503    -0.00123812     0.00132486    -0.00079635
N        -0.46582386     1.73181968     0.14058769     0.00008050    -0.00005607     0.00014305
H         0.13770233     2.54033787     0.01241900     0.00134455    -0.00025882    -0.00020529
H         0.07046779     0.92631769     0.49581831     0.00147531    -0.00128486    -0.00017066
    14
  Step:    17            Position(A)                                  Velocity(au)
C        -6.07042605    -0.82036222    -0.17989982    -0.00075799    -0.00045113    -0.00019123
C        -4.64398233    -0.73601324     0.20046446     0.00046875     0.00026067     0.00007000
H        -6.31844856    -0.00008594    -0.82454858    -0.00028923    -0.00021098     0.00061148
H        -6.74097133    -1.68374146     0.04865306    -0.00021335     0.00021079     0.00042074
H        -4.14782855    -1.58975018     0.64544325     0.00026542    -0.00009713     0.00017908
C        -4.03491350     0.41507347    -0.08041927    -0.00036003    -0.00006958    -0.00018194
C        -2.51191824     0.60828668     0.28526285     0.00006994     0.00013658     0.00015536
H        -4.41430335     1.24846265    -0.62393737    -0.00103869    -0.00079495     0.00069656
H        -2.00123708    -0.26919791     0.68572997     0.00065130    -0.00088323    -0.00032968
C        -1.85291268     1.77374442     0.02478388     0.00043753     0.00032423    -0.00004753
H        -2.36095545     2.64206339    -0.37818360    -0.00121026     0.00145863    -0.00082119
N        -0.46500660     1.73125969     0.14216627     0.00007419    -0.00004797     0.00014666
H         0.15200850     2.53774256     0.01002052     0.00124701    -0.00023938    -0.00022946
H         0.08559509     0.91259320     0.49370810     0.00124642    -0.00116969    -0.00023779
    14
  Step:    18            Position(A)                                  Velocity(au)
C        -6.07851416    -0.82539746    -0.18193493    -0.00071584    -0.00046777    -0.00017945
C        -4.63923230    -0.73332865     0.20119335     0.00039553     0.00022567     0.00006356
H        -6.32285862    -0.00211114    -0.81816713    -0.00052264    -0.00014995     0.00054413
H        -6.74266224    -1.68043282     0.05304533    -0.00011316     0.00037200     0.00038644
H        -4.14476971    -1.59080364     0.64781819     0.00029094    -0.00008570     0.00024922
C        -4.03839557     0.41444162    -0.08233725    -0.00027320    -0.00004528    -0.00016733
C        -2.51144206     0.60967103     0.28693019     0.00001834     0.00011626     0.00014918
H        -4.42680148     1.24035647    -0.61664732    -0.00125258    -0.00066071     0.00062004
H        -1.99401990    -0.27869056     0.68201307     0.00064963    -0.00082277    -0.00036054
C        -1.84784056     1.77721905     0.02426627     0.00048444     0.00031344    -0.00004884
H        -2.37379087     2.65837993    -0.38712011    -0.00109459     0.00146439    -0.00078291
N        -0.46420071     1.73077022     0.14379606     0.00007768    -0.00004246     0.00015195
H         0.16498313     2.53510095     0.00739917     0.00110395    -0.00026383    -0.00024612
H         0.09773552     0.90072838     0.49061611     0.00094001    -0.00095932    -0.00034276
    14
  Step:    19            Position(A)                                  Velocity(au)
C        -6.08608645    -0.83059554    -0.18382567    -0.00066395    -0.00047995    -0.00016552
C        -4.63532930    -0.73107635     0.20185506     0.00031468     0.00018213     0.00005774
H        -6.32988221    -0.00336636    -0.81264459    -0.00076339    -0.00007622     0.00046015
H        -6.74344696    -1.67560336     0.05710724    -0.00005171     0.00048278     0.00036256
H        -4.14146362    -1.59162510     0.65089544     0.00030942    -0.00005460     0.00030693
C        -4.04089033     0.41408288    -0.08407984    -0.00018062    -0.00001931    -0.00015044
C        -2.51151699     0.61083015     0.28852655    -0.00003053     0.00009606     0.00014220
H        -4.44170595     1.23400835    -0.61037273    -0.00147283    -0.00048359     0.00051763
H        -1.98702519    -0.28719762     0.67784254     0.00061239    -0.00070745    -0.00041046
C        -1.84231456     1.78060162     0.02371549     0.00052065     0.00030635    -0.00005317
H        -2.38490173     2.67409981    -0.39531118    -0.00090154     0.00136084    -0.00069023
N        -0.46330710     1.73033072     0.14549045     0.00008923    -0.00003822     0.00015804
H         0.17615950     2.53197066     0.00463620     0.00092302    -0.00032316    -0.00025592
H         0.10615956     0.89160629     0.48620951     0.00057867    -0.00068363    -0.00047091
    14
  Step:    20            Position(A)                                  Velocity(au)
C        -6.09303940    -0.83589722    -0.18555596    -0.00060304    -0.00048586    -0.00015081
C        -4.63234814    -0.72934430     0.20245654     0.00022788     0.00013138     0.00005247
H        -6.33955923    -0.00377860    -0.80810037    -0.00100389    -0.00000259     0.00037123
H        -6.74379356    -1.66987102     0.06097705    -0.00003574     0.00053279     0.00035320
H        -4.13800054    -1.59199817     0.65453278     0.00031890    -0.00000462     0.00035153
C        -4.04234698     0.41401925    -0.08562837    -0.00008476     0.00000900    -0.00013247
C        -2.51211005     0.61177245     0.29004114    -0.00007618     0.00007730     0.00013404
H        -4.45902240     1.22977712    -0.60532328    -0.00168619    -0.00028628     0.00040424
H        -1.98062269    -0.29416743     0.67303344     0.00054394    -0.00054737    -0.00047472
C        -1.83645043     1.78392097     0.02310312     0.00054655     0.00030083    -0.00005964
H        -2.39351383     2.68815082    -0.40222018    -0.00064527     0.00117143    -0.00055435
N        -0.46224858     1.72993406     0.14725359     0.00010667    -0.00003412     0.00016416