 Fermi distribution function

Calculation with static geometry


********************************************************************************
 iSCC Total electronic   Diff electronic      SCC error    
   10   -0.54305980E+01   -0.29753977E-12    0.23949408E-07
********************************************************************************

 Total charge:     1.00000000

 Atomic gross charges (e)
 Atom           Charge
    1       0.15256161
    2      -0.03179533
    3       0.15677204
    4       0.27888599
    5       0.26576445
    6       0.17781122

Nr. of electrons (up):     12.00000000
Atom populations (up)
 Atom       Population
    1       3.84743839
    2       5.03179533
    3       0.84322796
    4       0.72111401
    5       0.73423555
    6       0.82218878

l-shell populations (up)
 Atom Sh.   l       Population
    1   1   0       1.29799032
    1   2   1       2.54944806
    2   1   0       1.41390556
    2   2   1       3.61788976
    3   1   0       0.84322796
    4   1   0       0.72111401
    5   1   0       0.73423555
    6   1   0       0.82218878

Orbital populations (up)
 Atom Sh.   l   m       Population  Label
    1   1   0   0       1.29799032  s
    1   2   1  -1       0.61289871  p_y
    1   2   1   0       0.88712076  p_z
    1   2   1   1       1.04942859  p_x
    2   1   0   0       1.41390556  s
    2   2   1  -1       1.33658395  p_y
    2   2   1   0       1.11098365  p_z
    2   2   1   1       1.17032216  p_x
    3   1   0   0       0.84322796  s
    4   1   0   0       0.72111401  s
    5   1   0   0       0.73423555  s
    6   1   0   0       0.82218878  s

Fermi level:                        -0.4930665448 H          -13.4170 eV
Band energy:                        -8.9799155351 H         -244.3559 eV
TS:                                  0.0000000000 H            0.0000 eV
Band free energy (E-TS):            -8.9799155351 H         -244.3559 eV
Extrapolated E(0K):                 -8.9799155351 H         -244.3559 eV
Input / Output electrons (q):     12.0000000000     12.0000000000

Energy H0:                          -5.5655468595 H         -151.4462 eV
Energy SCC:                          0.1349488502 H            3.6721 eV
Total Electronic energy:            -5.4305980093 H         -147.7741 eV
Repulsive energy:                    0.2031572462 H            5.5282 eV
Total energy:                       -5.2274407631 H         -142.2459 eV
Extrapolated to 0:                  -5.2274407631 H         -142.2459 eV
Total Mermin free energy:           -5.2274407631 H         -142.2459 eV
Force related energy:               -5.2274407631 H         -142.2459 eV

SCC converged

Excitation Energy:                   0.1500781337 H            4.0838 eV

Total Forces
    1     -0.010603470329      0.000847593620     -0.012103039395
    2     -0.012229182118      0.006145454518     -0.002364618249
    3      0.001374240431     -0.006736207459      0.001583570769
    4      0.003122322088      0.006934977083      0.007869383239
    5      0.010592372948     -0.009890762167      0.001196296875
    6      0.007743716980      0.002698944405      0.003818406762

Maximal derivative component:        0.122292E-01 au


