     6
  Step:     0            Position(A)                                  Velocity(au)
C        -0.03819724     0.01787978     0.01736712     0.00003170     0.00001320     0.00032471
N        -0.03917551    -0.04969978     1.29617612    -0.00022641     0.00009295    -0.00023186
H         0.91941939    -0.03308901    -0.52485945     0.00032566    -0.00035710    -0.00039723
H         0.78730618    -0.12665144     1.86631191     0.00082205    -0.00042404     0.00019488
H        -0.92856951    -0.08691112     1.83309498     0.00158168    -0.00048530    -0.00057685
H        -0.99153670     0.05446233    -0.50157307     0.00003904    -0.00018254     0.00013185
     6
  Step:     1            Position(A)                                  Velocity(au)
C        -0.03800629     0.01799375     0.01877555     0.00003846     0.00002870     0.00018966
N        -0.04044490    -0.04918761     1.29522438    -0.00023533     0.00009446    -0.00011586
H         0.92123256    -0.03517590    -0.52704152     0.00033521    -0.00040721    -0.00039694
H         0.79220699    -0.12913844     1.86752741     0.00095656    -0.00048522     0.00023923
H        -0.91993268    -0.08968406     1.82989820     0.00155669    -0.00053074    -0.00058236
H        -0.99152355     0.05333369    -0.50096742    -0.00003658    -0.00023151     0.00008995
     6
  Step:     2            Position(A)                                  Velocity(au)
C        -0.03777657     0.01819376     0.01944176     0.00004577     0.00004455     0.00005379
N        -0.04174967    -0.04866655     1.29490879    -0.00023925     0.00009616     0.00000027
H         0.92308604    -0.03754333    -0.52920139     0.00034026    -0.00045912    -0.00038970
H         0.79776949    -0.13195898     1.86892874     0.00106336    -0.00054535     0.00026314
H        -0.91154161    -0.09271659     1.82672482     0.00149103    -0.00057999    -0.00056716
H        -0.99193687     0.05192993    -0.50058912    -0.00011548    -0.00028265     0.00004894
     6
  Step:     3            Position(A)                                  Velocity(au)
C        -0.03750562     0.01848105     0.01936395     0.00005343     0.00006054    -0.00008195
N        -0.04306190    -0.04813581     1.29522729    -0.00023802     0.00009798     0.00011554
H         0.92495443    -0.04019798    -0.53130420     0.00034039    -0.00051183    -0.00037670
H         0.80383847    -0.13510364     1.87040572     0.00114151    -0.00060329     0.00026752
H        -0.90362325    -0.09602825     1.82369442     0.00138362    -0.00063275    -0.00052926
H        -0.99278673     0.05024199    -0.50043212    -0.00019469    -0.00033509     0.00000924
     6
  Step:     4            Position(A)                                  Velocity(au)
C        -0.03719210     0.01885592     0.01854535     0.00006123     0.00007649    -0.00021659
N        -0.04435323    -0.04759481     1.29617264    -0.00023161     0.00009990     0.00022899
H         0.92680929    -0.04314188    -0.53332183     0.00033504    -0.00056451    -0.00035910
H         0.81025564    -0.13855794     1.87185494     0.00119066    -0.00065818     0.00025381
H        -0.89640727    -0.09963776     1.82093562     0.00123434    -0.00068884    -0.00046737
H        -0.99406643     0.04826464    -0.50048807    -0.00027124    -0.00038818    -0.00002875
     6
  Step:     5            Position(A)                                  Velocity(au)
C        -0.03683578     0.01931781     0.01699470     0.00006896     0.00009225    -0.00034895
N        -0.04559554    -0.04704304     1.29773225    -0.00022011     0.00010188     0.00033952
H         0.92861948    -0.04637323    -0.53523245     0.00032383    -0.00061641    -0.00033799
H         0.81686319    -0.14230352     1.87318212     0.00121104    -0.00070925     0.00022380
H        -0.89012068    -0.10356347     1.81858181     0.00104441    -0.00074804    -0.00038121
H        -0.99575379     0.04599570    -0.50074659    -0.00034246    -0.00044129    -0.00006465
     6
  Step:     6            Position(A)                                  Velocity(au)
C        -0.03643754     0.01986527     0.01472723     0.00007640     0.00010761    -0.00047760
N        -0.04676160    -0.04648007     1.29988755    -0.00020374     0.00010390     0.00044586
H         0.93035252    -0.04988648    -0.53702006     0.00030666    -0.00066670    -0.00031436
H         0.82350663    -0.14631844     1.87430369     0.00120336    -0.00075573     0.00017955
H        -0.88497948    -0.10782263     1.81676455     0.00081686    -0.00080989    -0.00027186
H        -0.99781352     0.04343611    -0.50119542    -0.00040612    -0.00049373    -0.00009811
     6
  Step:     7            Position(A)                                  Velocity(au)
C        -0.03599940     0.02049582     0.01176620     0.00008332     0.00012234    -0.00060078
N        -0.04782597    -0.04590563     1.30261325    -0.00018293     0.00010590     0.00054659
H         0.93197666    -0.05367184    -0.53867393     0.00028387    -0.00071445    -0.00028913
H         0.83003696    -0.15057684     1.87514770     0.00116880    -0.00079676     0.00012333
H        -0.88117820    -0.11242973     1.81560562     0.00055688    -0.00087356    -0.00014204
H        -1.00019981     0.04059058    -0.50182066    -0.00046048    -0.00054465    -0.00012883
     6
  Step:     8            Position(A)                                  Velocity(au)
C        -0.03552461     0.02120574     0.00814447     0.00008948     0.00013618    -0.00071642
N        -0.04876591    -0.04531977     1.30587646    -0.00015827     0.00010779     0.00064009
H         0.93346283    -0.05771464    -0.54018808     0.00025611    -0.00075860    -0.00026312
H         0.83631307    -0.15504850     1.87565500     0.00110902    -0.00083141     0.00005767
H        -0.87887783    -0.11739414     1.81520822     0.00027210    -0.00093768     0.00000387
H        -1.00285895     0.03746845    -0.50260703    -0.00050420    -0.00059301    -0.00015656
     6
  Step:     9            Position(A)                                  Velocity(au)
C        -0.03501769     0.02198990     0.00390616     0.00009463     0.00014883    -0.00082217
N        -0.04956240    -0.04472301     1.30963587    -0.00013058     0.00010947     0.00072464
H         0.93478656    -0.06199462    -0.54156067     0.00022441    -0.00079798    -0.00023703
H         0.84220433    -0.15969848     1.87578045     0.00102631    -0.00085874    -0.00001463
H        -0.87819295    -0.12271727     1.81564803    -0.00002743    -0.00100039     0.00015983
H        -1.00573155     0.03408453    -0.50353828    -0.00053639    -0.00063765    -0.00018111
     6
  Step:    10            Position(A)                                  Velocity(au)
C        -0.03448452     0.02284156    -0.00089218     0.00009852     0.00015997    -0.00091555
N        -0.05020117    -0.04411653     1.31384115    -0.00010086     0.00011080     0.00079846
H         0.93592938    -0.06648540    -0.54279338     0.00019005    -0.00083137    -0.00021158
H         0.84759351    -0.16448710     1.87549421     0.00092362    -0.00087786    -0.00009053
H        -0.87917933    -0.12838968     1.81696500    -0.00032954    -0.00105932     0.00031850
H        -1.00875459     0.03045983    -0.50459771    -0.00055654    -0.00067734    -0.00020244
     6
  Step:    11            Position(A)                                  Velocity(au)
C        -0.03393228     0.02375234    -0.00618086     0.00010092     0.00016929    -0.00099412
N        -0.05067366    -0.04350230     1.31843285    -0.00007028     0.00011161     0.00085987
H         0.93688041    -0.07115424    -0.54389175     0.00015457    -0.00085762    -0.00018753
H         0.85238027    -0.16937031     1.87478307     0.00080463    -0.00088808    -0.00016677
H        -0.88182370    -0.13438834     1.81915713    -0.00062066    -0.00111175     0.00047170
H        -1.01186322     0.02662195    -0.50576866    -0.00056452    -0.00071082    -0.00022057
     6
  Step:    12            Position(A)                                  Velocity(au)
C        -0.03336938     0.02471221    -0.01187736     0.00010165     0.00017652    -0.00105579
N        -0.05097779    -0.04288317     1.32334285    -0.00004010     0.00011178     0.00090750
H         0.93763744    -0.07596232    -0.54486561     0.00011965    -0.00087580    -0.00016567
H         0.85648487    -0.17430060     1.87365135     0.00067383    -0.00088905    -0.00024004
H        -0.88603773    -0.14067478     1.82217735    -0.00088690    -0.00115489     0.00061120
H        -1.01499260     0.02260508    -0.50703507    -0.00056063    -0.00073703    -0.00023566
     6
  Step:    13            Position(A)                                  Velocity(au)
C        -0.03280511     0.02570976    -0.01788837     0.00010063     0.00018150    -0.00109923
N        -0.05111837    -0.04226280     1.32849598    -0.00001160     0.00011118     0.00094057
H         0.93820725    -0.08086586    -0.54572886     0.00008694    -0.00088539    -0.00014674
H         0.85985227    -0.17922890     1.87212129     0.00053637    -0.00088096    -0.00030716
H        -0.89165843    -0.14719481     1.82593461    -0.00111562    -0.00118631     0.00072968
H        -1.01808004     0.01844913    -0.50838186    -0.00054571    -0.00075524    -0.00024794
     6
  Step:    14            Position(A)                                  Velocity(au)
C        -0.03224919     0.02673272    -0.02411397     0.00009789     0.00018424    -0.00112431
N        -0.05110690    -0.04164546     1.33381330     0.00001410     0.00010980     0.00095924
H         0.93860527    -0.08581845    -0.54649913     0.00005792    -0.00088658    -0.00013137
H         0.86245576    -0.18410746     1.87023205     0.00039789    -0.00086476    -0.00036543
H        -0.89845687    -0.15388084     1.83030014    -0.00129715    -0.00120452     0.00082174
H        -1.02106744     0.01419773    -0.50979518    -0.00052109    -0.00076538    -0.00025775
     6
  Step:    15            Position(A)                                  Velocity(au)
C        -0.03171107     0.02776887    -0.03045417     0.00009360     0.00018492    -0.00113239
N        -0.05096081    -0.04103559     1.33921698     0.00003610     0.00010771     0.00096481
H         0.93885454    -0.09077478    -0.54719714     0.00003375    -0.00088048    -0.00012006
H         0.86429930    -0.18889387     1.86803708     0.00026393    -0.00084227    -0.00041296
H        -0.90615599    -0.16065715     1.83511877    -0.00142617    -0.00120944     0.00088469
H        -1.02390405     0.00989488    -0.51126260    -0.00048866    -0.00076819    -0.00026548
     6
  Step:    16            Position(A)                                  Velocity(au)
C        -0.03119919     0.02880712    -0.03681681     0.00008807     0.00018399    -0.00112638
N        -0.05070193    -0.04043716     1.34463627     0.00005390     0.00010512     0.00095972
H         0.93898383    -0.09569546    -0.54784589     0.00001519    -0.00086909    -0.00011312
H         0.86541651    -0.19355585     1.86559959     0.00013938    -0.00081615    -0.00044893
H        -0.91445522    -0.16744802     1.84022437    -0.00150252    -0.00120264     0.00091891
H        -1.02654908     0.00558040    -0.51277324    -0.00045062    -0.00076532    -0.00027159
     6
  Step:    17            Position(A)                                  Velocity(au)
C        -0.03072024     0.02983876    -0.04312599     0.00012886     0.00028719    -0.00175171
N        -0.05035446    -0.03985302     1.35001390     0.00010628     0.00016140     0.00149454
H         0.93902539    -0.10055212    -0.54846977     0.00000400    -0.00134905    -0.00017470
H         0.86586733    -0.19807560     1.86298662     0.00004402    -0.00124560    -0.00074714
H        -0.92305935    -0.17418694     1.84545656    -0.00241486    -0.00187279     0.00146314
H        -1.02897353     0.00128504    -0.51431800    -0.00064577    -0.00119757    -0.00043664
     6
  Step:    18            Position(A)                                  Velocity(au)
C        -0.03001433     0.03141611    -0.05258613     0.00011905     0.00026804    -0.00157657
N        -0.04973350    -0.03896775     1.35812573     0.00010927     0.00015022     0.00135955
H         0.93922802    -0.10801086    -0.54977628     0.00006895    -0.00127745    -0.00028295
H         0.86586676    -0.20483068     1.85882975    -0.00003335    -0.00113463    -0.00070837
H        -0.93655023    -0.18449544     1.85368122    -0.00230207    -0.00175179     0.00141360
H        -1.03272621    -0.00529053    -0.51707731    -0.00067069    -0.00111773    -0.00052871
     6
  Step:    19            Position(A)                                  Velocity(au)
C        -0.02936556     0.03288881    -0.06106552     0.00006150     0.00014148    -0.00079549
N        -0.04911113    -0.03814367     1.36548401     0.00006056     0.00007902     0.00069510
H         0.93980993    -0.11508811    -0.55168941     0.00007666    -0.00068627    -0.00021871
H         0.86548786    -0.21098637     1.85492618    -0.00005062    -0.00058470    -0.00037236
H        -0.94925435    -0.19412033     1.86154173    -0.00121105    -0.00092245     0.00075615
H        -1.03660527    -0.01143342    -0.52033410    -0.00038950    -0.00059057    -0.00034543
     6
  Step:    20            Position(A)                                  Velocity(au)
C        -0.02904152     0.03368309    -0.06549934     0.00005343     0.00014023    -0.00077651
N        -0.04876586    -0.03770295     1.36936999     0.00006064     0.00007738     0.00068281
H         0.94023533    -0.11894021    -0.55293322     0.00007514    -0.00068046    -0.00022330
H         0.86500980    -0.21425921     1.85283393    -0.00011237    -0.00057782    -0.00036648
H        -0.95582137    -0.19925603     1.86565411    -0.00110832    -0.00089791     0.00069786
H        -1.03864511    -0.01476191    -0.52227811    -0.00033379    -0.00059008    -0.00034380
     6
  Step:    21            Position(A)                                  Velocity(au)
C        -0.02876326     0.03446972    -0.06981963     0.00004583     0.00014032    -0.00076380
N        -0.04842751    -0.03727135     1.37318180     0.00005891     0.00007664     0.00067631
H         0.94065701    -0.12275935    -0.55420687     0.00007598    -0.00068204    -0.00023170
H         0.86422105    -0.21750047     1.85079461    -0.00016256    -0.00057995    -0.00035763
H        -0.96174917    -0.20424307     1.86940918    -0.00099748    -0.00087965     0.00063762
H        -1.04036826    -0.01808577    -0.52420995    -0.00028068    -0.00059552    -0.00034507
     6
  Step:    22            Position(A)                                  Velocity(au)
C        -0.02852777     0.03525609    -0.07406150     0.00003852     0.00014124    -0.00075452
N        -0.04810554    -0.03684380     1.37695136     0.00005537     0.00007654     0.00067301
H         0.94108710    -0.12658578    -0.55553055     0.00007854    -0.00068834    -0.00024289
H         0.86318746    -0.22076034     1.84882490    -0.00020125    -0.00058907    -0.00034443
H        -0.96700307    -0.20911678     1.87280180    -0.00087670    -0.00086442     0.00057410
H        -1.04179153    -0.02143767    -0.52614629    -0.00022898    -0.00060481    -0.00034823
     6
  Step:    23            Position(A)                                  Velocity(au)
C        -0.02833320     0.03604672    -0.07824435     0.00003138     0.00014256    -0.00074645
N        -0.04780932    -0.03641673     1.38069634     0.00005006     0.00007686     0.00067084
H         0.94153398    -0.13044507    -0.55691894     0.00008219    -0.00069717    -0.00025600
H         0.86197400    -0.22407785     1.84694880    -0.00022816    -0.00060360    -0.00032587
H        -0.97153809    -0.21389488     1.87581934    -0.00074555    -0.00084982     0.00050678
H        -1.04292502    -0.02483885    -0.52809816    -0.00017815    -0.00061623    -0.00035248
     6
  Step:    24            Position(A)                                  Velocity(au)
C        -0.02817824     0.03684386    -0.08237540     0.00002442     0.00014399    -0.00073813
N        -0.04754797    -0.03598772     1.38442314     0.00004311     0.00007747     0.00066842
H         0.94200258    -0.13435078    -0.55838185     0.00008638    -0.00070695    -0.00027029
H         0.86064620    -0.22748319     1.84519541    -0.00024317    -0.00062240    -0.00030145
H        -0.97530694    -0.21858195     1.87844629    -0.00060512    -0.00083437     0.00043605
H        -1.04377577    -0.02830123    -0.53007221    -0.00012819    -0.00062862    -0.00035732
     6
  Step:    25            Position(A)                                  Velocity(au)
C        -0.02806164     0.03764814    -0.08645385     0.00001766     0.00014534    -0.00072870
N        -0.04732983    -0.03555509     1.38813048     0.00003471     0.00007829     0.00066486
H         0.94249467    -0.13830775    -0.55992506     0.00009057    -0.00071658    -0.00028516
H         0.85926950    -0.23100018     1.84359604    -0.00024643    -0.00064468    -0.00027117
H        -0.97826826    -0.22317468     1.88066906    -0.00045757    -0.00081735     0.00036287
H        -1.04435078    -0.03183030    -0.53207222    -0.00007946    -0.00064119    -0.00036244
     6
  Step:    26            Position(A)                                  Velocity(au)
C        -0.02798193     0.03845913    -0.09047410     0.00001120     0.00014649    -0.00071769
N        -0.04716218    -0.03511762     1.39181228     0.00002511     0.00007927     0.00065964
H         0.94300913    -0.14231475    -0.56155107     0.00009427    -0.00072529    -0.00030012
H         0.85790741    -0.23464810     1.84218166    -0.00023852    -0.00066984    -0.00023539
H        -0.98039238    -0.22766586     1.88247924    -0.00030569    -0.00079854     0.00028858
H        -1.04465893    -0.03542737    -0.53410034    -0.00003251    -0.00065350    -0.00036772
     6
  Step:    27            Position(A)                                  Velocity(au)
C        -0.02793723     0.03927576    -0.09442806     0.00000511     0.00014737    -0.00070491
N        -0.04705081    -0.03467431     1.39545974     0.00001461     0.00008040     0.00065253
H         0.94354208    -0.14636637    -0.56325972     0.00009703    -0.00073255    -0.00031478
H         0.85661933    -0.23844272     1.84098065    -0.00022044    -0.00069738    -0.00019481
H        -0.98166471    -0.23204718     1.88387549    -0.00015257    -0.00077806     0.00021468
H        -1.04471196    -0.03909129    -0.53615795     0.00001207    -0.00066529    -0.00037312
     6
  Step:    28            Position(A)                                  Velocity(au)
C        -0.02792519     0.04009656    -0.09830655    -0.00000052     0.00014794    -0.00069036
N        -0.04699986    -0.03422431     1.39906267     0.00000353     0.00008166     0.00064343
H         0.94408725    -0.15045422    -0.56504867     0.00009845    -0.00073799    -0.00032880
H         0.85545809    -0.24239687     1.84001711    -0.00019359    -0.00072686    -0.00015037
H        -0.98208758    -0.23631103     1.88486455    -0.00000144    -0.00075626     0.00014270
H        -1.04452480    -0.04281954    -0.53824612     0.00005366    -0.00067646    -0.00037864
     6
  Step:    29            Position(A)                                  Velocity(au)
C        -0.02794296     0.04091984    -0.10210030    -0.00000558     0.00014818    -0.00067412
N        -0.04701161    -0.03376682     1.40261050    -0.00000779     0.00008305     0.00063240
H         0.94463617    -0.15456793    -0.56691380     0.00009817    -0.00074135    -0.00034191
H         0.85446790    -0.24652065     1.83930954    -0.00015971    -0.00075783    -0.00010319
H        -0.98168069    -0.24045181     1.88546139     0.00014453    -0.00073363     0.00007417
H        -1.04411561    -0.04660912    -0.54036589     0.00009170    -0.00068703    -0.00038431
     6
  Step:    30            Position(A)                                  Velocity(au)
C        -0.02798727     0.04174386    -0.10580059    -0.00001002     0.00014811    -0.00065638
N        -0.04708641    -0.03330108     1.40609292    -0.00001898     0.00008457     0.00061955
H         0.94517861    -0.15869566    -0.56884962     0.00009592    -0.00074248    -0.00035393
H         0.85368263    -0.25082148     1.83886995    -0.00012080    -0.00078985    -0.00005451
H        -0.98048090    -0.24446660     1.88568910     0.00028229    -0.00071074     0.00001053
H        -1.04350542    -0.05045709    -0.54251845     0.00012570    -0.00069709    -0.00039020
     6
  Step:    31            Position(A)                                  Velocity(au)
C        -0.02805444     0.04256688    -0.10939959    -0.00001377     0.00014773    -0.00063733
N        -0.04722264    -0.03282631     1.40950025    -0.00002970     0.00008624     0.00060505
H         0.94570288    -0.16282464    -0.57084969     0.00009148    -0.00074124    -0.00036472
H         0.85312456    -0.25530418     1.83870331    -0.00007899    -0.00082248    -0.00000562
H        -0.97854142    -0.24835566     1.88557844     0.00040904    -0.00068822    -0.00004692
H        -1.04271774    -0.05436109    -0.54470507     0.00015528    -0.00070679    -0.00039631
     6
  Step:    32            Position(A)                                  Velocity(au)
C        -0.02814047     0.04338724    -0.11289054    -0.00001677     0.00014706    -0.00061721
N        -0.04741682    -0.03234174     1.41282377    -0.00003963     0.00008804     0.00058910
H         0.94619626    -0.16694145    -0.57290696     0.00008470    -0.00073755    -0.00037424
H         0.85280387    -0.25997105     1.83880742    -0.00003648    -0.00085531     0.00004221
H        -0.97593057    -0.25212260     1.88516719     0.00052222    -0.00066667    -0.00009697
H        -1.04177802    -0.05831968    -0.54692717     0.00018014    -0.00071636    -0.00040268
     6
  Step:    33            Position(A)                                  Velocity(au)
C        -0.02824110     0.04420340    -0.11626794    -0.00001899     0.00014615    -0.00059625
N        -0.04766367    -0.03184659     1.41605580    -0.00004847     0.00008999     0.00057191
H         0.94664543    -0.17103213    -0.57501422     0.00007551    -0.00073136    -0.00038249
H         0.85271859    -0.26482204     1.83917299     0.00000461    -0.00088797     0.00008774
H        -0.97273014    -0.25577430     1.88449937     0.00061962    -0.00064666    -0.00013860
H        -1.04071314    -0.06233271    -0.54918610     0.00020008    -0.00072607    -0.00040929
     6
  Step:    34            Position(A)                                  Velocity(au)
C        -0.02835186     0.04501400    -0.11952743    -0.00002039     0.00014500    -0.00057464
N        -0.04795635    -0.03134003     1.41918980    -0.00005596     0.00009210     0.00055368
H         0.94703682    -0.17508229    -0.57716452     0.00006391    -0.00072256    -0.00038958
H         0.85285519    -0.26985513     1.83978407     0.00004232    -0.00092017     0.00012984
H        -0.96903355    -0.25932062     1.88362442     0.00069937    -0.00062867    -0.00017093
H        -1.03955086    -0.06640167    -0.55148307     0.00021500    -0.00073627    -0.00041611
     6
  Step:    35            Position(A)                                  Velocity(au)
C        -0.02846811     0.04581783    -0.12266575    -0.00002094     0.00014367    -0.00055256
N        -0.04828673    -0.03082123     1.42222029    -0.00006191     0.00009436     0.00053459
H         0.94735702    -0.17907686    -0.57935168     0.00004995    -0.00071101    -0.00039571
H         0.85318975    -0.27506693     1.84061863     0.00007492    -0.00095177     0.00016749
H        -0.96494359    -0.26277373     1.88259627     0.00076007    -0.00061304    -0.00019326
H        -1.03831944    -0.07053014    -0.55381894     0.00022481    -0.00074742    -0.00042305
     6
  Step:    36            Position(A)                                  Velocity(au)
C        -0.02858503     0.04661388    -0.12568052    -0.00002060     0.00014219    -0.00053013
N        -0.04864571    -0.03028933     1.42514276    -0.00006617     0.00009678     0.00051478
H         0.94759309    -0.18299974    -0.58157094     0.00003375    -0.00069643    -0.00040123
H         0.85368947    -0.28045360     1.84164911     0.00010101    -0.00098283     0.00019973
H        -0.96056980    -0.26614709     1.88147237     0.00080078    -0.00059981    -0.00020503
H        -1.03704751    -0.07472456    -0.55619396     0.00022944    -0.00076013    -0.00042999
     6
  Step:    37            Position(A)                                  Velocity(au)
C        -0.02869748     0.04740133    -0.12856960    -0.00001928     0.00014059    -0.00050730
N        -0.04902368    -0.02974345     1.42795317    -0.00006873     0.00009937     0.00049428
H         0.94773285    -0.18683277    -0.58382001     0.00001545    -0.00067830    -0.00040676
H         0.85431461    -0.28601237     1.84284298     0.00011954    -0.00101380     0.00022571
H        -0.95602567    -0.26945359     1.88031296     0.00082107    -0.00058861    -0.00020575
H        -1.03576429    -0.07899542    -0.55860760     0.00022865    -0.00077538    -0.00043678
     6
  Step:    38            Position(A)                                  Velocity(au)
C        -0.02879970     0.04817956    -0.13133031    -0.00001679     0.00013890    -0.00048380
N        -0.04941112    -0.02918268     1.43064744    -0.00006967     0.00010213     0.00047294
H         0.94776520    -0.19055384    -0.58610101    -0.00000467    -0.00065548    -0.00041354
H         0.85502077    -0.29174421     1.84416277     0.00012995    -0.00104584     0.00024442
H        -0.95142560    -0.27270242     1.87918095     0.00082110    -0.00057817    -0.00019482
H        -1.03450101    -0.08335992    -0.56105830     0.00022171    -0.00079492    -0.00044325
     6
  Step:    39            Position(A)                                  Velocity(au)
C        -0.02888441     0.04894822    -0.13395739    -0.00001262     0.00013721    -0.00045847
N        -0.04979951    -0.02860613     1.43322001    -0.00006934     0.00010504     0.00045003
H         0.94768086    -0.19413241    -0.58842530    -0.00002596    -0.00062546    -0.00042465
H         0.85576177    -0.29765919     1.84556495     0.00013238    -0.00108172     0.00025441
H        -0.94688163    -0.27589230     1.87814335     0.00080157    -0.00056502    -0.00017084
H        -1.03329521    -0.08784790    -0.56354375     0.00020605    -0.00082254    -0.00044962
     6
  Step:    40            Position(A)                                  Velocity(au)
C        -0.02894028     0.04970745    -0.13643533    -0.00000539     0.00013573    -0.00042542
N        -0.05018326    -0.02801307     1.43565853    -0.00006873     0.00010797     0.00042150
H         0.94747612    -0.19751834    -0.59082947    -0.00004422    -0.00058328    -0.00045157
H         0.85649481    -0.30378917     1.84699558     0.00012911    -0.00112711     0.00025326
H        -0.94250014    -0.27899387     1.87727862     0.00076356    -0.00053948    -0.00012920
H        -1.03220661    -0.09251887    -0.56606485     0.00017083    -0.00086793    -0.00046051
     6
  Step:    41            Position(A)                                  Velocity(au)
C        -0.02894443     0.05045928    -0.13869346     0.00000432     0.00013507    -0.00036600
N        -0.05056463    -0.02740411     1.43791245    -0.00006760     0.00011021     0.00037434
H         0.94718859    -0.20062594    -0.59345253    -0.00003818    -0.00054507    -0.00051863
H         0.85719913    -0.31020700     1.84838443     0.00012603    -0.00116580     0.00024917
H        -0.93838115    -0.28189819     1.87670504     0.00070566    -0.00050242    -0.00006801
H        -1.03139346    -0.09751029    -0.56867048     0.00009437    -0.00092781    -0.00050326
     6
  Step:    42            Position(A)                                  Velocity(au)
C        -0.02889222     0.05121072    -0.14050869     0.00001198     0.00013529    -0.00028168
N        -0.05093558    -0.02678649     1.43982471    -0.00006343     0.00011150     0.00030963
H         0.94705116    -0.20358459    -0.59660145    -0.00000236    -0.00053767    -0.00061444
H         0.85789742    -0.31676367     1.84976864     0.00012126    -0.00116963     0.00025487
H        -0.93464663    -0.28458548     1.87652177     0.00062787    -0.00048015    -0.00000043
H        -1.03115633    -0.10284473    -0.57166580    -0.00000819    -0.00097415    -0.00058627
     6
  Step:    43            Position(A)                                  Velocity(au)
C        -0.02881113     0.05196428    -0.14182695     0.00001586     0.00013578    -0.00019357
N        -0.05127020    -0.02616370     1.44135690    -0.00005548     0.00011242     0.00024220
H         0.94716239    -0.20660726    -0.60028782     0.00004191    -0.00055698    -0.00070680
H         0.85854804    -0.32321845     1.85121970     0.00010762    -0.00114242     0.00026776
H        -0.93139649    -0.28723961     1.87670025     0.00053543    -0.00048376     0.00006306
H        -1.03148455    -0.10834710    -0.57519245    -0.00010308    -0.00099703    -0.00068311
     6
  Step:    44            Position(A)                                  Velocity(au)
C        -0.02871584     0.05272032    -0.14266088     0.00001752     0.00013628    -0.00010846
N        -0.05155239    -0.02553653     1.44251754    -0.00004505     0.00011323     0.00017681
H         0.94751717    -0.20977727    -0.60445984     0.00008292    -0.00058771    -0.00078950
H         0.85909397    -0.32946549     1.85274567     0.00008383    -0.00109978     0.00028059
H        -0.92869357    -0.28996406     1.87722294     0.00043385    -0.00050276     0.00012351
H        -1.03230244    -0.11393010    -0.57926081    -0.00018346    -0.00100706    -0.00077925
     6