|===============================================================================
|
|  DFTB+ release 20.1
|
|  Copyright (C) 2006 - 2020  DFTB+ developers group
|
|===============================================================================
|
|  When publishing results obtained with DFTB+, please cite the following
|  reference:
|
|  * DFTB+, a software package for efficient approximate density functional
|    theory based atomistic simulations, J. Chem. Phys. 152, 124101 (2020).
|    [doi: 10.1063/1.5143190]
|
|  You should also cite additional publications crediting the parametrization
|  data you use. Please consult the documentation of the SK-files for the
|  references.
|
|===============================================================================

Reading input file 'dftb_in.hsd'
Parser version: 8

--------------------------------------------------------------------------------
Reading SK-files:
Done.


Processed input in HSD format written to 'dftb_pin.hsd'

Starting initialization...
--------------------------------------------------------------------------------
WARNING!
-> Excited state forces are not implemented yet for fractional occupations, kT=  0.3158E-02K
OpenMP threads:              1
Chosen random seed:          506733115
Mode:                        Static calculation
Self consistent charges:     Yes
SCC-tolerance:                 0.100000E-05
Max. scc iterations:                    100
Shell resolved Hubbard:      No
Spin polarisation:           No
Nr. of up electrons:             6.000000
Nr. of down electrons:           6.000000
Periodic boundaries:         No
Electronic solver:           Relatively robust
Mixer:                       Broyden mixer
Mixing parameter:                  0.200000
Maximal SCC-cycles:                     100
Nr. of chrg. vec. in memory:              0
Electronic temperature:        0.100000E-07 H      0.272114E-06 eV
Initial charges:             Set automatically (system chrg:   0.100E+01)
Included shells:             C:  s, p
                             N:  s, p
                             H:  s
Extra options:
                             Mulliken analysis
                             Force calculation
Force type                   original
                             Eigenvector printing

--------------------------------------------------------------------------------

***  Geometry step: 0

 iSCC Total electronic   Diff electronic      SCC error    
    1   -0.52016057E+01    0.00000000E+00    0.11314942E+01
    2   -0.52356830E+01   -0.34077230E-01    0.65954962E+00
    3   -0.52432606E+01   -0.75776148E-02    0.34089625E+00
    4   -0.46085415E+01    0.63471913E+00    0.25908282E+01
    5   -0.52477825E+01   -0.63924100E+00    0.14311666E+00
    6   -0.52500519E+01   -0.22694199E-02    0.13919731E-01
    7   -0.52500344E+01    0.17522686E-04    0.13089718E-01
    8   -0.52500561E+01   -0.21690616E-04    0.59210207E-02
    9   -0.52500599E+01   -0.38789733E-05    0.73924273E-03
   10   -0.52500600E+01   -0.40356742E-07    0.35472289E-03
   11   -0.52500600E+01   -0.11036262E-07    0.12266337E-03
   12   -0.52500600E+01   -0.16354855E-08    0.17754528E-05
   13   -0.52500600E+01    0.13580248E-11    0.37204098E-05
   14   -0.52500600E+01   -0.14699353E-11    0.12975786E-07
>> Charges saved for restart in charges.bin

Total Energy:                       -5.0221753839 H         -136.6603 eV
Extrapolated to 0:                  -5.1176154386 H         -139.2574 eV
Total Mermin free energy:           -5.0221753839 H         -136.6603 eV
Force related energy:               -5.1176154386 H         -139.2574 eV

--------------------------------------------------------------------------------
DFTB+ running times                          cpu [s]             wall clock [s]
--------------------------------------------------------------------------------
SCC                                    +     0.01  ( 56.5%)      0.04  ( 66.7%)
Post-SCC processing                    +     0.01  ( 39.2%)      0.01  ( 25.9%)
--------------------------------------------------------------------------------
Missing                                +     0.00  (  4.2%)      0.00  (  7.4%)
Total                                  =     0.02  (100.0%)      0.05  (100.0%)
--------------------------------------------------------------------------------
