|===============================================================================
|
|  DFTB+ release 20.1
|
|  Copyright (C) 2006 - 2020  DFTB+ developers group
|
|===============================================================================
|
|  When publishing results obtained with DFTB+, please cite the following
|  reference:
|
|  * DFTB+, a software package for efficient approximate density functional
|    theory based atomistic simulations, J. Chem. Phys. 152, 124101 (2020).
|    [doi: 10.1063/1.5143190]
|
|  You should also cite additional publications crediting the parametrization
|  data you use. Please consult the documentation of the SK-files for the
|  references.
|
|===============================================================================

Reading input file 'dftb_in.hsd'
Parser version: 8

--------------------------------------------------------------------------------
Reading SK-files:
Done.


Processed input in HSD format written to 'dftb_pin.hsd'

Starting initialization...
--------------------------------------------------------------------------------
OpenMP threads:              1
Chosen random seed:          502684492
Mode:                        Static calculation
Self consistent charges:     Yes
SCC-tolerance:                 0.100000E-05
Max. scc iterations:                   1000
Shell resolved Hubbard:      No
Spin polarisation:           No
Nr. of up electrons:            16.000000
Nr. of down electrons:          16.000000
Periodic boundaries:         No
Electronic solver:           Relatively robust
Maximal SCC-cycles:                    1000
Initial charges:             Set automatically (system chrg:   0.100E+01)
Included shells:             C:  s, p
                             H:  s
                             N:  s, p
Spin coupling constants:     C   1(s)-1(s):  -0.455900E-01
                             C   1(s)-2(p):  -0.293000E-01
                             C   2(p)-1(s):  -0.293000E-01
                             C   2(p)-2(p):  -0.275500E-01
                             H   1(s)-1(s):  -0.792500E-01
                             N   1(s)-1(s):  -0.468700E-01
                             N   1(s)-2(p):  -0.317000E-01
                             N   2(p)-1(s):  -0.317000E-01
                             N   2(p)-2(p):  -0.307200E-01
Range separated hybrid:      Yes
  Screening parameter omega:   0.300000E+00
  Range separated algorithm:   MatrixBased
Extra options:
                             Mulliken analysis
                             Force calculation
Force type                   original
                             Eigenvector printing


REKS Calcuation:             Yes
SSR(2,2) Calcuation:         Yes
Energy Functional:           (PPS+OSS)/2
Number of Core Orbitals:                 15
Number of Active Orbitals:                2
Number of Basis:                         32
Number of States:                         2
State-Averaging Weight:          0.500000
                                 0.500000
State of Interest:                        1
Initial Guess:               Diagonalize H0 matrix
Newton-Raphson for FON opt:  Yes
NR max. Iterations:                      50
Level Shifting:              Yes
Shift Value:                     0.300000
W Scale Factor:              C  =    3.200000
                             H  =    3.200000
                             N  =    3.200000
Transition Dipole:           No
Gradient of Microstate:      No
CP-REKS Solver:              Preconditioned Conjugate-Gradient
CG max. Iterations:                     100
CG Tolerance:                  0.100000E-07
Memory for A and Hxc:        Direct Updating Without Saving
Non-Adiabatic Coupling:      Yes

--------------------------------------------------------------------------------

***  Geometry step: 0

  iSCC       reks energy        Diff energy         x_a       SCC error   
    1      -16.4072313258       0.0000000000     0.998910    1.23642226
    2      -16.4266856610      -0.0194543352     0.999820    0.05728811
    3      -16.4307967123      -0.0041110513     0.999934    0.02062102
    4      -16.4321987665      -0.0014020542     0.999965    0.01353166
    5      -16.4328170736      -0.0006183072     0.999977    0.00910253
    6      -16.4331415450      -0.0003244714     0.999983    0.00631453
    7      -16.4333361715      -0.0001946265     0.999986    0.00450018
    8      -16.4334660258      -0.0001298543     0.999988    0.00329506
    9      -16.4335601753      -0.0000941495     0.999990    0.00253439
   10      -16.4336328110      -0.0000726357     0.999990    0.00210989
   11      -16.4336913932      -0.0000585822     0.999991    0.00178619
   12      -16.4337401207      -0.0000487275     0.999992    0.00153364
   13      -16.4337815178      -0.0000413971     0.999992    0.00134839
   14      -16.4338172027      -0.0000356849     0.999992    0.00131617
   15      -16.4338482770      -0.0000310743     0.999993    0.00127268
   16      -16.4338755320      -0.0000272549     0.999993    0.00122283
   17      -16.4338995628      -0.0000240308     0.999993    0.00116983
   18      -16.4339208344      -0.0000212716     0.999993    0.00111575
   19      -16.4339397208      -0.0000188865     0.999993    0.00106192
   20      -16.4339565303      -0.0000168095     0.999993    0.00100920
   21      -16.4339715211      -0.0000149908     0.999994    0.00095811
   22      -16.4339849129      -0.0000133918     0.999994    0.00090895
   23      -16.4339968942      -0.0000119813     0.999994    0.00086189
   24      -16.4340076283      -0.0000107341     0.999994    0.00081701
   25      -16.4340172574      -0.0000096291     0.999994    0.00077430
   26      -16.4340259059      -0.0000086486     0.999994    0.00073375
   27      -16.4340336834      -0.0000077774     0.999994    0.00069529
   28      -16.4340406861      -0.0000070028     0.999994    0.00065885
   29      -16.4340469994      -0.0000063133     0.999994    0.00062436
   30      -16.4340526988      -0.0000056993     0.999994    0.00059171
   31      -16.4340578511      -0.0000051523     0.999995    0.00056082
   32      -16.4340625160      -0.0000046649     0.999995    0.00053161
   33      -16.4340667465      -0.0000042305     0.999995    0.00050399
   34      -16.4340705898      -0.0000038433     0.999995    0.00047788
   35      -16.4340740881      -0.0000034983     0.999995    0.00045319
   36      -16.4340772790      -0.0000031909     0.999995    0.00042985
   37      -16.4340801962      -0.0000029172     0.999995    0.00040779
   38      -16.4340828699      -0.0000026737     0.999995    0.00038693
   39      -16.4340853271      -0.0000024572     0.999995    0.00036722
   40      -16.4340875919      -0.0000022649     0.999995    0.00034858
   41      -16.4340896863      -0.0000020943     0.999995    0.00033096
   42      -16.4340916296      -0.0000019433     0.999995    0.00031431
   43      -16.4340934396      -0.0000018099     0.999995    0.00029857
   44      -16.4340951319      -0.0000016924     0.999995    0.00028370
   45      -16.4340967210      -0.0000015890     0.999995    0.00026964
   46      -16.4340982195      -0.0000014986     0.999995    0.00025635
   47      -16.4340996393      -0.0000014197     0.999995    0.00024380
   48      -16.4341009907      -0.0000013514     0.999995    0.00023194
   49      -16.4341022832      -0.0000012926     0.999996    0.00022073
   50      -16.4341035256      -0.0000012423     0.999996    0.00021015
   51      -16.4341047255      -0.0000011999     0.999996    0.00020784
   52      -16.4341058901      -0.0000011646     0.999996    0.00020840
   53      -16.4341070258      -0.0000011357     0.999996    0.00020913
   54      -16.4341081385      -0.0000011127     0.999996    0.00021002
   55      -16.4341092336      -0.0000010951     0.999996    0.00021107
   56      -16.4341103160      -0.0000010823     0.999996    0.00021227
   57      -16.4341113900      -0.0000010741     0.999996    0.00021361
   58      -16.4341124599      -0.0000010699     0.999996    0.00021508
   59      -16.4341135295      -0.0000010695     0.999996    0.00021668
   60      -16.4341146020      -0.0000010726     0.999996    0.00021840
   61      -16.4341156808      -0.0000010788     0.999996    0.00022023
   62      -16.4341167688      -0.0000010880     0.999996    0.00022217
   63      -16.4341178686      -0.0000010998     0.999996    0.00022422
   64      -16.4341189828      -0.0000011142     0.999996    0.00022635
   65      -16.4341201137      -0.0000011309     0.999996    0.00022858
   66      -16.4341212635      -0.0000011498     0.999996    0.00023090
   67      -16.4341224341      -0.0000011706     0.999996    0.00023329
   68      -16.4341236274      -0.0000011933     0.999996    0.00023575
   69      -16.4341248451      -0.0000012177     0.999996    0.00023829
   70      -16.4341260889      -0.0000012437     0.999996    0.00024089
   71      -16.4341273601      -0.0000012712     0.999996    0.00024355
   72      -16.4341286602      -0.0000013001     0.999996    0.00024626
   73      -16.4341299905      -0.0000013303     0.999996    0.00024903
   74      -16.4341313522      -0.0000013616     0.999996    0.00025183
   75      -16.4341327463      -0.0000013941     0.999996    0.00025468
   76      -16.4341341738      -0.0000014276     0.999996    0.00025756
   77      -16.4341356358      -0.0000014620     0.999996    0.00026048
   78      -16.4341371330      -0.0000014972     0.999996    0.00026342
   79      -16.4341386663      -0.0000015333     0.999996    0.00026638
   80      -16.4341402364      -0.0000015700     0.999996    0.00026935
   81      -16.4341418438      -0.0000016074     0.999996    0.00027234
   82      -16.4341434892      -0.0000016454     0.999996    0.00027534
   83      -16.4341451730      -0.0000016838     0.999996    0.00027834
   84      -16.4341468957      -0.0000017227     0.999997    0.00028133
   85      -16.4341486576      -0.0000017619     0.999997    0.00028433
   86      -16.4341504590      -0.0000018014     0.999997    0.00028820
   87      -16.4341523001      -0.0000018411     0.999997    0.00029227
   88      -16.4341541810      -0.0000018809     0.999997    0.00029633
   89      -16.4341561019      -0.0000019209     0.999997    0.00030038
   90      -16.4341580627      -0.0000019608     0.999997    0.00030441
   91      -16.4341600633      -0.0000020006     0.999997    0.00030842
   92      -16.4341621036      -0.0000020403     0.999997    0.00031240
   93      -16.4341641834      -0.0000020798     0.999997    0.00031634
   94      -16.4341663024      -0.0000021190     0.999997    0.00032025
   95      -16.4341684602      -0.0000021578     0.999997    0.00032412
   96      -16.4341706564      -0.0000021963     0.999997    0.00032794
   97      -16.4341728906      -0.0000022342     0.999997    0.00033172
   98      -16.4341751621      -0.0000022715     0.999997    0.00033544
   99      -16.4341774704      -0.0000023082     0.999997    0.00033910
  100      -16.4341798146      -0.0000023442     0.999997    0.00034270
  101      -16.4341821941      -0.0000023795     0.999997    0.00034623
  102      -16.4341846079      -0.0000024139     0.999997    0.00034968
  103      -16.4341870553      -0.0000024473     0.999997    0.00035307
  104      -16.4341895351      -0.0000024798     0.999997    0.00035637
  105      -16.4341920464      -0.0000025113     0.999997    0.00035958
  106      -16.4341945881      -0.0000025417     0.999997    0.00036271
  107      -16.4341971589      -0.0000025709     0.999997    0.00036575
  108      -16.4341997578      -0.0000025989     0.999997    0.00036869
  109      -16.4342023835      -0.0000026256     0.999997    0.00037153
  110      -16.4342050345      -0.0000026511     0.999997    0.00037427
  111      -16.4342077097      -0.0000026751     0.999997    0.00037690
  112      -16.4342104074      -0.0000026978     0.999997    0.00037942
  113      -16.4342131264      -0.0000027190     0.999997    0.00038182
  114      -16.4342158652      -0.0000027387     0.999997    0.00038411
  115      -16.4342186221      -0.0000027569     0.999997    0.00038628
  116      -16.4342213957      -0.0000027736     0.999997    0.00038834
  117      -16.4342241843      -0.0000027887     0.999997    0.00039026
  118      -16.4342269865      -0.0000028021     0.999997    0.00039206
  119      -16.4342298004      -0.0000028140     0.999997    0.00039374
  120      -16.4342326247      -0.0000028242     0.999997    0.00039528
  121      -16.4342354575      -0.0000028328     0.999997    0.00039670
  122      -16.4342382972      -0.0000028397     0.999997    0.00039798
  123      -16.4342411422      -0.0000028450     0.999998    0.00039914
  124      -16.4342439909      -0.0000028486     0.999998    0.00040015
  125      -16.4342468415      -0.0000028506     0.999998    0.00040104
  126      -16.4342496925      -0.0000028510     0.999998    0.00040179
  127      -16.4342525422      -0.0000028497     0.999998    0.00040241
  128      -16.4342553890      -0.0000028468     0.999998    0.00040289
  129      -16.4342582313      -0.0000028424     0.999998    0.00040324
  130      -16.4342610676      -0.0000028363     0.999998    0.00040346
  131      -16.4342638964      -0.0000028288     0.999998    0.00040355
  132      -16.4342667161      -0.0000028197     0.999998    0.00040351
  133      -16.4342695253      -0.0000028092     0.999998    0.00040334
  134      -16.4342723225      -0.0000027972     0.999998    0.00040304
  135      -16.4342751063      -0.0000027838     0.999998    0.00040262
  136      -16.4342778755      -0.0000027691     0.999998    0.00040207
  137      -16.4342806286      -0.0000027531     0.999998    0.00040140
  138      -16.4342833644      -0.0000027358     0.999998    0.00040061
  139      -16.4342860817      -0.0000027173     0.999998    0.00039971
  140      -16.4342887793      -0.0000026976     0.999998    0.00039869
  141      -16.4342914561      -0.0000026768     0.999998    0.00039756
  142      -16.4342941111      -0.0000026550     0.999998    0.00039632
  143      -16.4342967431      -0.0000026321     0.999998    0.00039498
  144      -16.4342993513      -0.0000026082     0.999998    0.00039353
  145      -16.4343019348      -0.0000025835     0.999998    0.00039198
  146      -16.4343044927      -0.0000025578     0.999998    0.00039034
  147      -16.4343070241      -0.0000025314     0.999998    0.00038860
  148      -16.4343095283      -0.0000025042     0.999998    0.00038677
  149      -16.4343120047      -0.0000024764     0.999998    0.00038486
  150      -16.4343144525      -0.0000024478     0.999998    0.00038286
  151      -16.4343168712      -0.0000024187     0.999998    0.00038079
  152      -16.4343192603      -0.0000023891     0.999998    0.00037864
  153      -16.4343216192      -0.0000023589     0.999998    0.00037641
  154      -16.4343239475      -0.0000023283     0.999998    0.00037412
  155      -16.4343262448      -0.0000022973     0.999998    0.00037176
  156      -16.4343285108      -0.0000022660     0.999998    0.00036933
  157      -16.4343307452      -0.0000022344     0.999998    0.00036685
  158      -16.4343329476      -0.0000022025     0.999998    0.00036431
  159      -16.4343351180      -0.0000021703     0.999998    0.00036172
  160      -16.4343372561      -0.0000021381     0.999998    0.00035909
  161      -16.4343393617      -0.0000021057     0.999998    0.00035640
  162      -16.4343414349      -0.0000020732     0.999998    0.00035367
  163      -16.4343434755      -0.0000020406     0.999998    0.00035091
  164      -16.4343454835      -0.0000020080     0.999998    0.00034810
  165      -16.4343474590      -0.0000019755     0.999998    0.00034527
  166      -16.4343494020      -0.0000019430     0.999998    0.00034240
  167      -16.4343513125      -0.0000019105     0.999998    0.00033951
  168      -16.4343531908      -0.0000018782     0.999999    0.00033659
  169      -16.4343550368      -0.0000018460     0.999999    0.00033365
  170      -16.4343568508      -0.0000018140     0.999999    0.00033068
  171      -16.4343586330      -0.0000017822     0.999999    0.00032771
  172      -16.4343603836      -0.0000017506     0.999999    0.00032471
  173      -16.4343621028      -0.0000017192     0.999999    0.00032171
  174      -16.4343637908      -0.0000016880     0.999999    0.00031870
  175      -16.4343654480      -0.0000016572     0.999999    0.00031567
  176      -16.4343670746      -0.0000016266     0.999999    0.00031265
  177      -16.4343686709      -0.0000015963     0.999999    0.00030962
  178      -16.4343702373      -0.0000015664     0.999999    0.00030659
  179      -16.4343717740      -0.0000015368     0.999999    0.00030355
  180      -16.4343732815      -0.0000015075     0.999999    0.00030052
  181      -16.4343747600      -0.0000014786     0.999999    0.00029750
  182      -16.4343762100      -0.0000014500     0.999999    0.00029448
  183      -16.4343776319      -0.0000014218     0.999999    0.00029147
  184      -16.4343790259      -0.0000013940     0.999999    0.00028846
  185      -16.4343803925      -0.0000013666     0.999999    0.00028547
  186      -16.4343817321      -0.0000013396     0.999999    0.00028248
  187      -16.4343830451      -0.0000013130     0.999999    0.00027951
  188      -16.4343843320      -0.0000012868     0.999999    0.00027656
  189      -16.4343855930      -0.0000012610     0.999999    0.00027362
  190      -16.4343868286      -0.0000012356     0.999999    0.00027069
  191      -16.4343880392      -0.0000012107     0.999999    0.00026778
  192      -16.4343892253      -0.0000011861     0.999999    0.00026489
  193      -16.4343903873      -0.0000011620     0.999999    0.00026202
  194      -16.4343915255      -0.0000011382     0.999999    0.00025916
  195      -16.4343926404      -0.0000011149     0.999999    0.00025633
  196      -16.4343937324      -0.0000010920     0.999999    0.00025352
  197      -16.4343948020      -0.0000010695     0.999999    0.00025073
  198      -16.4343958494      -0.0000010475     0.999999    0.00024796
  199      -16.4343968752      -0.0000010258     0.999999    0.00024522
  200      -16.4343978797      -0.0000010045     0.999999    0.00024250
  201      -16.4343988634      -0.0000009837     0.999999    0.00023980
  202      -16.4343998266      -0.0000009632     0.999999    0.00023712
  203      -16.4344007697      -0.0000009431     0.999999    0.00023447
  204      -16.4344016932      -0.0000009235     0.999999    0.00023185
  205      -16.4344025974      -0.0000009042     0.999999    0.00022925
  206      -16.4344034827      -0.0000008853     0.999999    0.00022667
  207      -16.4344043494      -0.0000008668     0.999999    0.00022412
  208      -16.4344051980      -0.0000008486     0.999999    0.00022160
  209      -16.4344060289      -0.0000008308     0.999999    0.00021910
  210      -16.4344068423      -0.0000008134     0.999999    0.00021663
  211      -16.4344076386      -0.0000007963     0.999999    0.00021419
  212      -16.4344084183      -0.0000007796     0.999999    0.00021177
  213      -16.4344091815      -0.0000007633     0.999999    0.00020938
  214      -16.4344099288      -0.0000007473     0.999999    0.00020701
  215      -16.4344106604      -0.0000007316     0.999999    0.00020467
  216      -16.4344113766      -0.0000007162     0.999999    0.00020236
  217      -16.4344120778      -0.0000007012     0.999999    0.00020007
  218      -16.4344127644      -0.0000006865     0.999999    0.00019781
  219      -16.4344134365      -0.0000006721     0.999999    0.00019558
  220      -16.4344140946      -0.0000006581     0.999999    0.00019337
  221      -16.4344147388      -0.0000006443     0.999999    0.00019119
  222      -16.4344153696      -0.0000006308     0.999999    0.00018903
  223      -16.4344159873      -0.0000006176     0.999999    0.00018690
  224      -16.4344165920      -0.0000006047     0.999999    0.00018479
  225      -16.4344171841      -0.0000005921     0.999999    0.00018272
  226      -16.4344177639      -0.0000005798     0.999999    0.00018066
  227      -16.4344183316      -0.0000005677     0.999999    0.00017863
  228      -16.4344188875      -0.0000005559     0.999999    0.00017663
  229      -16.4344194318      -0.0000005444     0.999999    0.00017465
  230      -16.4344199649      -0.0000005331     0.999999    0.00017270
  231      -16.4344204869      -0.0000005220     0.999999    0.00017077
  232      -16.4344209981      -0.0000005112     0.999999    0.00016886
  233      -16.4344214988      -0.0000005007     0.999999    0.00016698
  234      -16.4344219891      -0.0000004903     0.999999    0.00016512
  235      -16.4344224694      -0.0000004802     0.999999    0.00016329
  236      -16.4344229398      -0.0000004704     0.999999    0.00016148
  237      -16.4344234005      -0.0000004607     0.999999    0.00015969
  238      -16.4344238518      -0.0000004513     0.999999    0.00015793
  239      -16.4344242938      -0.0000004421     0.999999    0.00015619
  240      -16.4344247269      -0.0000004330     0.999999    0.00015447
  241      -16.4344251511      -0.0000004242     0.999999    0.00015277
  242      -16.4344255666      -0.0000004156     0.999999    0.00015109
  243      -16.4344259738      -0.0000004071     0.999999    0.00014944
  244      -16.4344263727      -0.0000003989     0.999999    0.00014781
  245      -16.4344267635      -0.0000003908     0.999999    0.00014620
  246      -16.4344271464      -0.0000003829     0.999999    0.00014461
  247      -16.4344275217      -0.0000003752     0.999999    0.00014304
  248      -16.4344278894      -0.0000003677     0.999999    0.00014149
  249      -16.4344282497      -0.0000003603     0.999999    0.00013996
  250      -16.4344286028      -0.0000003531     0.999999    0.00013846
  251      -16.4344289489      -0.0000003461     0.999999    0.00013697
  252      -16.4344292880      -0.0000003392     0.999999    0.00013550
  253      -16.4344296205      -0.0000003324     0.999999    0.00013405
  254      -16.4344299463      -0.0000003258     0.999999    0.00013262
  255      -16.4344302657      -0.0000003194     0.999999    0.00013121
  256      -16.4344305788      -0.0000003131     0.999999    0.00012981
  257      -16.4344308857      -0.0000003069     0.999999    0.00012844
  258      -16.4344311866      -0.0000003009     0.999999    0.00012708
  259      -16.4344314816      -0.0000002950     0.999999    0.00012574
  260      -16.4344317709      -0.0000002892     0.999999    0.00012442
  261      -16.4344320545      -0.0000002836     0.999999    0.00012311
  262      -16.4344323325      -0.0000002781     0.999999    0.00012183
  263      -16.4344326052      -0.0000002727     0.999999    0.00012056
  264      -16.4344328726      -0.0000002674     0.999999    0.00011930
  265      -16.4344331349      -0.0000002622     0.999999    0.00011806
  266      -16.4344333921      -0.0000002572     0.999999    0.00011684
  267      -16.4344336443      -0.0000002523     0.999999    0.00011564
  268      -16.4344338917      -0.0000002474     0.999999    0.00011445
  269      -16.4344341344      -0.0000002427     0.999999    0.00011327
  270      -16.4344343725      -0.0000002381     0.999999    0.00011211
  271      -16.4344346060      -0.0000002335     0.999999    0.00011097
  272      -16.4344348352      -0.0000002291     0.999999    0.00010984
  273      -16.4344350599      -0.0000002248     0.999999    0.00010872
  274      -16.4344352805      -0.0000002205     0.999999    0.00010762
  275      -16.4344354969      -0.0000002164     0.999999    0.00010654
  276      -16.4344357092      -0.0000002123     0.999999    0.00010547
  277      -16.4344359176      -0.0000002084     0.999999    0.00010441
  278      -16.4344361220      -0.0000002045     0.999999    0.00010336
  279      -16.4344363227      -0.0000002007     0.999999    0.00010233
  280      -16.4344365196      -0.0000001969     0.999999    0.00010132
  281      -16.4344367129      -0.0000001933     0.999999    0.00010031
  282      -16.4344369027      -0.0000001897     0.999999    0.00009932
  283      -16.4344370889      -0.0000001862     0.999999    0.00009834
  284      -16.4344372717      -0.0000001828     0.999999    0.00009737
  285      -16.4344374512      -0.0000001795     0.999999    0.00009642
  286      -16.4344376274      -0.0000001762     0.999999    0.00009548
  287      -16.4344378004      -0.0000001730     0.999999    0.00009455
  288      -16.4344379702      -0.0000001698     0.999999    0.00009363
  289      -16.4344381370      -0.0000001668     0.999999    0.00009272
  290      -16.4344383008      -0.0000001638     0.999999    0.00009182
  291      -16.4344384616      -0.0000001608     0.999999    0.00009094
  292      -16.4344386195      -0.0000001579     0.999999    0.00009007
  293      -16.4344387746      -0.0000001551     0.999999    0.00008921
  294      -16.4344389269      -0.0000001523     0.999999    0.00008835
  295      -16.4344390765      -0.0000001496     0.999999    0.00008751
  296      -16.4344392235      -0.0000001470     0.999999    0.00008668
  297      -16.4344393679      -0.0000001444     0.999999    0.00008586
  298      -16.4344395097      -0.0000001418     0.999999    0.00008505
  299      -16.4344396490      -0.0000001393     0.999999    0.00008425
  300      -16.4344397858      -0.0000001369     0.999999    0.00008346
  301      -16.4344399203      -0.0000001345     0.999999    0.00008268
  302      -16.4344400524      -0.0000001321     0.999999    0.00008191
  303      -16.4344401822      -0.0000001298     0.999999    0.00008115
  304      -16.4344403098      -0.0000001276     0.999999    0.00008040
  305      -16.4344404352      -0.0000001254     0.999999    0.00007966
  306      -16.4344405583      -0.0000001232     0.999999    0.00007892
  307      -16.4344406794      -0.0000001211     0.999999    0.00007820
  308      -16.4344407984      -0.0000001190     0.999999    0.00007748
  309      -16.4344409154      -0.0000001170     0.999999    0.00007678
  310      -16.4344410303      -0.0000001150     0.999999    0.00007608
  311      -16.4344411433      -0.0000001130     0.999999    0.00007539
  312      -16.4344412544      -0.0000001111     0.999999    0.00007471
  313      -16.4344413636      -0.0000001092     0.999999    0.00007403
  314      -16.4344414710      -0.0000001074     0.999999    0.00007337
  315      -16.4344415765      -0.0000001055     0.999999    0.00007271
  316      -16.4344416803      -0.0000001038     0.999999    0.00007206
  317      -16.4344417823      -0.0000001020     0.999999    0.00007142
  318      -16.4344418827      -0.0000001003     0.999999    0.00007078
  319      -16.4344419813      -0.0000000987     0.999999    0.00007016
  320      -16.4344420783      -0.0000000970     0.999999    0.00006954
  321      -16.4344421738      -0.0000000954     1.000000    0.00006893
  322      -16.4344422676      -0.0000000938     1.000000    0.00006832
  323      -16.4344423599      -0.0000000923     1.000000    0.00006772
  324      -16.4344424507      -0.0000000908     1.000000    0.00006713
  325      -16.4344425400      -0.0000000893     1.000000    0.00006655
  326      -16.4344426278      -0.0000000878     1.000000    0.00006597
  327      -16.4344427143      -0.0000000864     1.000000    0.00006540
  328      -16.4344427993      -0.0000000850     1.000000    0.00006484
  329      -16.4344428829      -0.0000000836     1.000000    0.00006428
  330      -16.4344429652      -0.0000000823     1.000000    0.00006373
  331      -16.4344430461      -0.0000000810     1.000000    0.00006318
  332      -16.4344431258      -0.0000000797     1.000000    0.00006265
  333      -16.4344432042      -0.0000000784     1.000000    0.00006211
  334      -16.4344432813      -0.0000000771     1.000000    0.00006159
  335      -16.4344433572      -0.0000000759     1.000000    0.00006107
  336      -16.4344434319      -0.0000000747     1.000000    0.00006055
  337      -16.4344435054      -0.0000000735     1.000000    0.00006004
  338      -16.4344435778      -0.0000000724     1.000000    0.00005954
  339      -16.4344436490      -0.0000000712     1.000000    0.00005904
  340      -16.4344437191      -0.0000000701     1.000000    0.00005855
  341      -16.4344437881      -0.0000000690     1.000000    0.00005807
  342      -16.4344438560      -0.0000000679     1.000000    0.00005759
  343      -16.4344439228      -0.0000000669     1.000000    0.00005711
  344      -16.4344439887      -0.0000000658     1.000000    0.00005664
  345      -16.4344440535      -0.0000000648     1.000000    0.00005618
  346      -16.4344441173      -0.0000000638     1.000000    0.00005572
  347      -16.4344441801      -0.0000000628     1.000000    0.00005526
  348      -16.4344442419      -0.0000000618     1.000000    0.00005481
  349      -16.4344443028      -0.0000000609     1.000000    0.00005437
  350      -16.4344443628      -0.0000000600     1.000000    0.00005393
  351      -16.4344444218      -0.0000000591     1.000000    0.00005349
  352      -16.4344444800      -0.0000000582     1.000000    0.00005306
  353      -16.4344445373      -0.0000000573     1.000000    0.00005264
  354      -16.4344445937      -0.0000000564     1.000000    0.00005222
  355      -16.4344446492      -0.0000000556     1.000000    0.00005180
  356      -16.4344447040      -0.0000000547     1.000000    0.00005139
  357      -16.4344447579      -0.0000000539     1.000000    0.00005098
  358      -16.4344448110      -0.0000000531     1.000000    0.00005058
  359      -16.4344448633      -0.0000000523     1.000000    0.00005018
  360      -16.4344449148      -0.0000000515     1.000000    0.00004979
  361      -16.4344449655      -0.0000000508     1.000000    0.00004940
  362      -16.4344450156      -0.0000000500     1.000000    0.00004901
  363      -16.4344450648      -0.0000000493     1.000000    0.00004863
  364      -16.4344451134      -0.0000000485     1.000000    0.00004825
  365      -16.4344451612      -0.0000000478     1.000000    0.00004788
  366      -16.4344452083      -0.0000000471     1.000000    0.00004750
  367      -16.4344452548      -0.0000000464     1.000000    0.00004714
  368      -16.4344453005      -0.0000000458     1.000000    0.00004678
  369      -16.4344453456      -0.0000000451     1.000000    0.00004642
  370      -16.4344453900      -0.0000000444     1.000000    0.00004606
  371      -16.4344454338      -0.0000000438     1.000000    0.00004571
  372      -16.4344454770      -0.0000000432     1.000000    0.00004536
  373      -16.4344455196      -0.0000000425     1.000000    0.00004502
  374      -16.4344455615      -0.0000000419     1.000000    0.00004468
  375      -16.4344456028      -0.0000000413     1.000000    0.00004434
  376      -16.4344456436      -0.0000000407     1.000000    0.00004401
  377      -16.4344456837      -0.0000000402     1.000000    0.00004368
  378      -16.4344457233      -0.0000000396     1.000000    0.00004335
  379      -16.4344457624      -0.0000000390     1.000000    0.00004303
  380      -16.4344458008      -0.0000000385     1.000000    0.00004271
  381      -16.4344458388      -0.0000000379     1.000000    0.00004239
  382      -16.4344458762      -0.0000000374     1.000000    0.00004208
  383      -16.4344459130      -0.0000000369     1.000000    0.00004177
  384      -16.4344459494      -0.0000000364     1.000000    0.00004146
  385      -16.4344459853      -0.0000000359     1.000000    0.00004115
  386      -16.4344460206      -0.0000000354     1.000000    0.00004085
  387      -16.4344460555      -0.0000000349     1.000000    0.00004055
  388      -16.4344460899      -0.0000000344     1.000000    0.00004026
  389      -16.4344461238      -0.0000000339     1.000000    0.00003997
  390      -16.4344461572      -0.0000000334     1.000000    0.00003968
  391      -16.4344461902      -0.0000000330     1.000000    0.00003939
  392      -16.4344462227      -0.0000000325     1.000000    0.00003911
  393      -16.4344462548      -0.0000000321     1.000000    0.00003882
  394      -16.4344462864      -0.0000000316     1.000000    0.00003855
  395      -16.4344463176      -0.0000000312     1.000000    0.00003827
  396      -16.4344463484      -0.0000000308     1.000000    0.00003800
  397      -16.4344463788      -0.0000000304     1.000000    0.00003773
  398      -16.4344464087      -0.0000000300     1.000000    0.00003746
  399      -16.4344464383      -0.0000000296     1.000000    0.00003719
  400      -16.4344464674      -0.0000000292     1.000000    0.00003693
  401      -16.4344464962      -0.0000000288     1.000000    0.00003667
  402      -16.4344465246      -0.0000000284     1.000000    0.00003641
  403      -16.4344465526      -0.0000000280     1.000000    0.00003616
  404      -16.4344465802      -0.0000000276     1.000000    0.00003590
  405      -16.4344466074      -0.0000000273     1.000000    0.00003565
  406      -16.4344466343      -0.0000000269     1.000000    0.00003541
  407      -16.4344466609      -0.0000000265     1.000000    0.00003516
  408      -16.4344466871      -0.0000000262     1.000000    0.00003492
  409      -16.4344467129      -0.0000000258     1.000000    0.00003468
  410      -16.4344467384      -0.0000000255     1.000000    0.00003444
  411      -16.4344467636      -0.0000000252     1.000000    0.00003420
  412      -16.4344467884      -0.0000000248     1.000000    0.00003397
  413      -16.4344468129      -0.0000000245     1.000000    0.00003373
  414      -16.4344468371      -0.0000000242     1.000000    0.00003350
  415      -16.4344468610      -0.0000000239     1.000000    0.00003328
  416      -16.4344468846      -0.0000000236     1.000000    0.00003305
  417      -16.4344469079      -0.0000000233     1.000000    0.00003283
  418      -16.4344469308      -0.0000000230     1.000000    0.00003260
  419      -16.4344469535      -0.0000000227     1.000000    0.00003238
  420      -16.4344469759      -0.0000000224     1.000000    0.00003217
  421      -16.4344469980      -0.0000000221     1.000000    0.00003195
  422      -16.4344470198      -0.0000000218     1.000000    0.00003174
  423      -16.4344470413      -0.0000000215     1.000000    0.00003153
  424      -16.4344470626      -0.0000000213     1.000000    0.00003132
  425      -16.4344470836      -0.0000000210     1.000000    0.00003111
  426      -16.4344471043      -0.0000000207     1.000000    0.00003090
  427      -16.4344471247      -0.0000000205     1.000000    0.00003070
  428      -16.4344471449      -0.0000000202     1.000000    0.00003049
  429      -16.4344471649      -0.0000000199     1.000000    0.00003029
  430      -16.4344471846      -0.0000000197     1.000000    0.00003009
  431      -16.4344472040      -0.0000000194     1.000000    0.00002990
  432      -16.4344472232      -0.0000000192     1.000000    0.00002970
  433      -16.4344472422      -0.0000000190     1.000000    0.00002951
  434      -16.4344472609      -0.0000000187     1.000000    0.00002932
  435      -16.4344472794      -0.0000000185     1.000000    0.00002913
  436      -16.4344472977      -0.0000000183     1.000000    0.00002894
  437      -16.4344473157      -0.0000000180     1.000000    0.00002875
  438      -16.4344473336      -0.0000000178     1.000000    0.00002857
  439      -16.4344473512      -0.0000000176     1.000000    0.00002838
  440      -16.4344473685      -0.0000000174     1.000000    0.00002820
  441      -16.4344473857      -0.0000000172     1.000000    0.00002802
  442      -16.4344474027      -0.0000000170     1.000000    0.00002784
  443      -16.4344474194      -0.0000000168     1.000000    0.00002766
  444      -16.4344474360      -0.0000000165     1.000000    0.00002749
  445      -16.4344474523      -0.0000000163     1.000000    0.00002731
  446      -16.4344474685      -0.0000000162     1.000000    0.00002714
  447      -16.4344474844      -0.0000000160     1.000000    0.00002697
  448      -16.4344475002      -0.0000000158     1.000000    0.00002680
  449      -16.4344475158      -0.0000000156     1.000000    0.00002663
  450      -16.4344475312      -0.0000000154     1.000000    0.00002646
  451      -16.4344475464      -0.0000000152     1.000000    0.00002630
  452      -16.4344475614      -0.0000000150     1.000000    0.00002613
  453      -16.4344475762      -0.0000000148     1.000000    0.00002597
  454      -16.4344475909      -0.0000000147     1.000000    0.00002581
  455      -16.4344476054      -0.0000000145     1.000000    0.00002565
  456      -16.4344476197      -0.0000000143     1.000000    0.00002549
  457      -16.4344476338      -0.0000000141     1.000000    0.00002533
  458      -16.4344476478      -0.0000000140     1.000000    0.00002518
  459      -16.4344476616      -0.0000000138     1.000000    0.00002502
  460      -16.4344476753      -0.0000000136     1.000000    0.00002487
  461      -16.4344476887      -0.0000000135     1.000000    0.00002472
  462      -16.4344477021      -0.0000000133     1.000000    0.00002457
  463      -16.4344477152      -0.0000000132     1.000000    0.00002442
  464      -16.4344477283      -0.0000000130     1.000000    0.00002427
  465      -16.4344477411      -0.0000000129     1.000000    0.00002412
  466      -16.4344477539      -0.0000000127     1.000000    0.00002397
  467      -16.4344477664      -0.0000000126     1.000000    0.00002383
  468      -16.4344477789      -0.0000000124     1.000000    0.00002369
  469      -16.4344477911      -0.0000000123     1.000000    0.00002354
  470      -16.4344478033      -0.0000000121     1.000000    0.00002340
  471      -16.4344478153      -0.0000000120     1.000000    0.00002326
  472      -16.4344478271      -0.0000000119     1.000000    0.00002312
  473      -16.4344478389      -0.0000000117     1.000000    0.00002298
  474      -16.4344478505      -0.0000000116     1.000000    0.00002285
  475      -16.4344478619      -0.0000000115     1.000000    0.00002271
  476      -16.4344478732      -0.0000000113     1.000000    0.00002258
  477      -16.4344478844      -0.0000000112     1.000000    0.00002244
  478      -16.4344478955      -0.0000000111     1.000000    0.00002231
  479      -16.4344479065      -0.0000000109     1.000000    0.00002218
  480      -16.4344479173      -0.0000000108     1.000000    0.00002205
  481      -16.4344479280      -0.0000000107     1.000000    0.00002192
  482      -16.4344479386      -0.0000000106     1.000000    0.00002179
  483      -16.4344479490      -0.0000000105     1.000000    0.00002166
  484      -16.4344479594      -0.0000000103     1.000000    0.00002154
  485      -16.4344479696      -0.0000000102     1.000000    0.00002141
  486      -16.4344479797      -0.0000000101     1.000000    0.00002129
  487      -16.4344479897      -0.0000000100     1.000000    0.00002116
  488      -16.4344479996      -0.0000000099     1.000000    0.00002104
  489      -16.4344480094      -0.0000000098     1.000000    0.00002092
  490      -16.4344480190      -0.0000000097     1.000000    0.00002080
  491      -16.4344480286      -0.0000000096     1.000000    0.00002068
  492      -16.4344480380      -0.0000000095     1.000000    0.00002056
  493      -16.4344480474      -0.0000000094     1.000000    0.00002044
  494      -16.4344480566      -0.0000000092     1.000000    0.00002033
  495      -16.4344480658      -0.0000000091     1.000000    0.00002021
  496      -16.4344480748      -0.0000000090     1.000000    0.00002010
  497      -16.4344480838      -0.0000000089     1.000000    0.00001998
  498      -16.4344480926      -0.0000000088     1.000000    0.00001987
  499      -16.4344481014      -0.0000000088     1.000000    0.00001975
  500      -16.4344481100      -0.0000000087     1.000000    0.00001964
  501      -16.4344481186      -0.0000000086     1.000000    0.00001953
  502      -16.4344481271      -0.0000000085     1.000000    0.00001942
  503      -16.4344481354      -0.0000000084     1.000000    0.00001931
  504      -16.4344481437      -0.0000000083     1.000000    0.00001920
  505      -16.4344481519      -0.0000000082     1.000000    0.00001910
  506      -16.4344481600      -0.0000000081     1.000000    0.00001899
  507      -16.4344481681      -0.0000000080     1.000000    0.00001888
  508      -16.4344481760      -0.0000000079     1.000000    0.00001878
  509      -16.4344481838      -0.0000000078     1.000000    0.00001868
  510      -16.4344481916      -0.0000000078     1.000000    0.00001857
  511      -16.4344481993      -0.0000000077     1.000000    0.00001847
  512      -16.4344482069      -0.0000000076     1.000000    0.00001837
  513      -16.4344482144      -0.0000000075     1.000000    0.00001827
  514      -16.4344482218      -0.0000000074     1.000000    0.00001816
  515      -16.4344482292      -0.0000000074     1.000000    0.00001807
  516      -16.4344482365      -0.0000000073     1.000000    0.00001797
  517      -16.4344482437      -0.0000000072     1.000000    0.00001787
  518      -16.4344482508      -0.0000000071     1.000000    0.00001777
  519      -16.4344482579      -0.0000000071     1.000000    0.00001767
  520      -16.4344482649      -0.0000000070     1.000000    0.00001758
  521      -16.4344482718      -0.0000000069     1.000000    0.00001748
  522      -16.4344482786      -0.0000000068     1.000000    0.00001739
  523      -16.4344482854      -0.0000000068     1.000000    0.00001729
  524      -16.4344482920      -0.0000000067     1.000000    0.00001720
  525      -16.4344482987      -0.0000000066     1.000000    0.00001711
  526      -16.4344483052      -0.0000000066     1.000000    0.00001701
  527      -16.4344483117      -0.0000000065     1.000000    0.00001692
  528      -16.4344483181      -0.0000000064     1.000000    0.00001683
  529      -16.4344483245      -0.0000000064     1.000000    0.00001674
  530      -16.4344483308      -0.0000000063     1.000000    0.00001665
  531      -16.4344483370      -0.0000000062     1.000000    0.00001656
  532      -16.4344483431      -0.0000000062     1.000000    0.00001647
  533      -16.4344483492      -0.0000000061     1.000000    0.00001639
  534      -16.4344483553      -0.0000000060     1.000000    0.00001630
  535      -16.4344483612      -0.0000000060     1.000000    0.00001621
  536      -16.4344483671      -0.0000000059     1.000000    0.00001613
  537      -16.4344483730      -0.0000000058     1.000000    0.00001604
  538      -16.4344483788      -0.0000000058     1.000000    0.00001596
  539      -16.4344483845      -0.0000000057     1.000000    0.00001587
  540      -16.4344483902      -0.0000000057     1.000000    0.00001579
  541      -16.4344483958      -0.0000000056     1.000000    0.00001571
  542      -16.4344484013      -0.0000000056     1.000000    0.00001563
  543      -16.4344484068      -0.0000000055     1.000000    0.00001554
  544      -16.4344484123      -0.0000000054     1.000000    0.00001546
  545      -16.4344484177      -0.0000000054     1.000000    0.00001538
  546      -16.4344484230      -0.0000000053     1.000000    0.00001530
  547      -16.4344484283      -0.0000000053     1.000000    0.00001522
  548      -16.4344484335      -0.0000000052     1.000000    0.00001514
  549      -16.4344484387      -0.0000000052     1.000000    0.00001506
  550      -16.4344484438      -0.0000000051     1.000000    0.00001499
  551      -16.4344484489      -0.0000000051     1.000000    0.00001491
  552      -16.4344484539      -0.0000000050     1.000000    0.00001483
  553      -16.4344484589      -0.0000000050     1.000000    0.00001476
  554      -16.4344484638      -0.0000000049     1.000000    0.00001468
  555      -16.4344484686      -0.0000000049     1.000000    0.00001461
  556      -16.4344484735      -0.0000000048     1.000000    0.00001453
  557      -16.4344484782      -0.0000000048     1.000000    0.00001446
  558      -16.4344484830      -0.0000000047     1.000000    0.00001438
  559      -16.4344484877      -0.0000000047     1.000000    0.00001431
  560      -16.4344484923      -0.0000000046     1.000000    0.00001424
  561      -16.4344484969      -0.0000000046     1.000000    0.00001416
  562      -16.4344485014      -0.0000000045     1.000000    0.00001409
  563      -16.4344485059      -0.0000000045     1.000000    0.00001402
  564      -16.4344485104      -0.0000000045     1.000000    0.00001395
  565      -16.4344485148      -0.0000000044     1.000000    0.00001388
  566      -16.4344485192      -0.0000000044     1.000000    0.00001381
  567      -16.4344485235      -0.0000000043     1.000000    0.00001374
  568      -16.4344485278      -0.0000000043     1.000000    0.00001367
  569      -16.4344485320      -0.0000000042     1.000000    0.00001360
  570      -16.4344485362      -0.0000000042     1.000000    0.00001354
  571      -16.4344485404      -0.0000000042     1.000000    0.00001347
  572      -16.4344485445      -0.0000000041     1.000000    0.00001340
  573      -16.4344485486      -0.0000000041     1.000000    0.00001333
  574      -16.4344485526      -0.0000000040     1.000000    0.00001327
  575      -16.4344485566      -0.0000000040     1.000000    0.00001320
  576      -16.4344485606      -0.0000000040     1.000000    0.00001314
  577      -16.4344485645      -0.0000000039     1.000000    0.00001307
  578      -16.4344485684      -0.0000000039     1.000000    0.00001301
  579      -16.4344485723      -0.0000000039     1.000000    0.00001294
  580      -16.4344485761      -0.0000000038     1.000000    0.00001288
  581      -16.4344485799      -0.0000000038     1.000000    0.00001282
  582      -16.4344485836      -0.0000000037     1.000000    0.00001275
  583      -16.4344485873      -0.0000000037     1.000000    0.00001269
  584      -16.4344485910      -0.0000000037     1.000000    0.00001263
  585      -16.4344485946      -0.0000000036     1.000000    0.00001257
  586      -16.4344485982      -0.0000000036     1.000000    0.00001251
  587      -16.4344486018      -0.0000000036     1.000000    0.00001244
  588      -16.4344486053      -0.0000000035     1.000000    0.00001238
  589      -16.4344486088      -0.0000000035     1.000000    0.00001232
  590      -16.4344486123      -0.0000000035     1.000000    0.00001226
  591      -16.4344486157      -0.0000000034     1.000000    0.00001220
  592      -16.4344486191      -0.0000000034     1.000000    0.00001215
  593      -16.4344486225      -0.0000000034     1.000000    0.00001209
  594      -16.4344486258      -0.0000000033     1.000000    0.00001203
  595      -16.4344486291      -0.0000000033     1.000000    0.00001197
  596      -16.4344486324      -0.0000000033     1.000000    0.00001191
  597      -16.4344486357      -0.0000000032     1.000000    0.00001186
  598      -16.4344486389      -0.0000000032     1.000000    0.00001180
  599      -16.4344486421      -0.0000000032     1.000000    0.00001174
  600      -16.4344486452      -0.0000000032     1.000000    0.00001169
  601      -16.4344486483      -0.0000000031     1.000000    0.00001163
  602      -16.4344486514      -0.0000000031     1.000000    0.00001157
  603      -16.4344486545      -0.0000000031     1.000000    0.00001152
  604      -16.4344486575      -0.0000000030     1.000000    0.00001147
  605      -16.4344486606      -0.0000000030     1.000000    0.00001141
  606      -16.4344486635      -0.0000000030     1.000000    0.00001136
  607      -16.4344486665      -0.0000000030     1.000000    0.00001130
  608      -16.4344486694      -0.0000000029     1.000000    0.00001125
  609      -16.4344486723      -0.0000000029     1.000000    0.00001120
  610      -16.4344486752      -0.0000000029     1.000000    0.00001114
  611      -16.4344486780      -0.0000000028     1.000000    0.00001109
  612      -16.4344486809      -0.0000000028     1.000000    0.00001104
  613      -16.4344486837      -0.0000000028     1.000000    0.00001099
  614      -16.4344486864      -0.0000000028     1.000000    0.00001094
  615      -16.4344486892      -0.0000000027     1.000000    0.00001088
  616      -16.4344486919      -0.0000000027     1.000000    0.00001083
  617      -16.4344486946      -0.0000000027     1.000000    0.00001078
  618      -16.4344486973      -0.0000000027     1.000000    0.00001073
  619      -16.4344486999      -0.0000000026     1.000000    0.00001068
  620      -16.4344487026      -0.0000000026     1.000000    0.00001063
  621      -16.4344487052      -0.0000000026     1.000000    0.00001058
  622      -16.4344487077      -0.0000000026     1.000000    0.00001053
  623      -16.4344487103      -0.0000000026     1.000000    0.00001049
  624      -16.4344487128      -0.0000000025     1.000000    0.00001044
  625      -16.4344487153      -0.0000000025     1.000000    0.00001039
  626      -16.4344487178      -0.0000000025     1.000000    0.00001034
  627      -16.4344487203      -0.0000000025     1.000000    0.00001029
  628      -16.4344487227      -0.0000000024     1.000000    0.00001025
  629      -16.4344487251      -0.0000000024     1.000000    0.00001020
  630      -16.4344487275      -0.0000000024     1.000000    0.00001015
  631      -16.4344487299      -0.0000000024     1.000000    0.00001011
  632      -16.4344487323      -0.0000000024     1.000000    0.00001006
  633      -16.4344487346      -0.0000000023     1.000000    0.00001001
  634      -16.4344487369      -0.0000000023     1.000000    0.00000997
  635      -16.4344487392      -0.0000000023     1.000000    0.00000992
  636      -16.4344487415      -0.0000000023     1.000000    0.00000988
  637      -16.4344487437      -0.0000000023     1.000000    0.00000983
  638      -16.4344487460      -0.0000000022     1.000000    0.00000979
  639      -16.4344487482      -0.0000000022     1.000000    0.00000974
  640      -16.4344487504      -0.0000000022     1.000000    0.00000970
  641      -16.4344487525      -0.0000000022     1.000000    0.00000966
  642      -16.4344487547      -0.0000000022     1.000000    0.00000961
  643      -16.4344487568      -0.0000000021     1.000000    0.00000957
  644      -16.4344487589      -0.0000000021     1.000000    0.00000953
  645      -16.4344487610      -0.0000000021     1.000000    0.00000948
  646      -16.4344487631      -0.0000000021     1.000000    0.00000944
  647      -16.4344487652      -0.0000000021     1.000000    0.00000940
  648      -16.4344487672      -0.0000000020     1.000000    0.00000936
  649      -16.4344487693      -0.0000000020     1.000000    0.00000931
  650      -16.4344487713      -0.0000000020     1.000000    0.00000927
  651      -16.4344487732      -0.0000000020     1.000000    0.00000923
  652      -16.4344487752      -0.0000000020     1.000000    0.00000919
  653      -16.4344487772      -0.0000000020     1.000000    0.00000915
  654      -16.4344487791      -0.0000000019     1.000000    0.00000911
  655      -16.4344487810      -0.0000000019     1.000000    0.00000907
  656      -16.4344487829      -0.0000000019     1.000000    0.00000903
  657      -16.4344487848      -0.0000000019     1.000000    0.00000899
  658      -16.4344487867      -0.0000000019     1.000000    0.00000895
  659      -16.4344487886      -0.0000000019     1.000000    0.00000891
  660      -16.4344487904      -0.0000000018     1.000000    0.00000887
  661      -16.4344487922      -0.0000000018     1.000000    0.00000883
  662      -16.4344487940      -0.0000000018     1.000000    0.00000879
  663      -16.4344487958      -0.0000000018     1.000000    0.00000875
  664      -16.4344487976      -0.0000000018     1.000000    0.00000871
  665      -16.4344487994      -0.0000000018     1.000000    0.00000868
  666      -16.4344488011      -0.0000000017     1.000000    0.00000864
  667      -16.4344488028      -0.0000000017     1.000000    0.00000860
  668      -16.4344488046      -0.0000000017     1.000000    0.00000856
  669      -16.4344488063      -0.0000000017     1.000000    0.00000852
  670      -16.4344488080      -0.0000000017     1.000000    0.00000849
  671      -16.4344488096      -0.0000000017     1.000000    0.00000845
  672      -16.4344488113      -0.0000000017     1.000000    0.00000841
  673      -16.4344488129      -0.0000000016     1.000000    0.00000838
  674      -16.4344488146      -0.0000000016     1.000000    0.00000834
  675      -16.4344488162      -0.0000000016     1.000000    0.00000830
  676      -16.4344488178      -0.0000000016     1.000000    0.00000827
  677      -16.4344488194      -0.0000000016     1.000000    0.00000823
  678      -16.4344488210      -0.0000000016     1.000000    0.00000820
  679      -16.4344488225      -0.0000000016     1.000000    0.00000816
  680      -16.4344488241      -0.0000000016     1.000000    0.00000813
  681      -16.4344488256      -0.0000000015     1.000000    0.00000809
  682      -16.4344488271      -0.0000000015     1.000000    0.00000806
  683      -16.4344488286      -0.0000000015     1.000000    0.00000802
  684      -16.4344488301      -0.0000000015     1.000000    0.00000799
  685      -16.4344488316      -0.0000000015     1.000000    0.00000795
  686      -16.4344488331      -0.0000000015     1.000000    0.00000792
  687      -16.4344488346      -0.0000000015     1.000000    0.00000789
  688      -16.4344488360      -0.0000000014     1.000000    0.00000785
  689      -16.4344488375      -0.0000000014     1.000000    0.00000782
  690      -16.4344488389      -0.0000000014     1.000000    0.00000779
  691      -16.4344488403      -0.0000000014     1.000000    0.00000775
  692      -16.4344488417      -0.0000000014     1.000000    0.00000772
  693      -16.4344488431      -0.0000000014     1.000000    0.00000769
  694      -16.4344488445      -0.0000000014     1.000000    0.00000765
  695      -16.4344488458      -0.0000000014     1.000000    0.00000762
  696      -16.4344488472      -0.0000000014     1.000000    0.00000759
  697      -16.4344488485      -0.0000000013     1.000000    0.00000756
  698      -16.4344488499      -0.0000000013     1.000000    0.00000752
  699      -16.4344488512      -0.0000000013     1.000000    0.00000749
  700      -16.4344488525      -0.0000000013     1.000000    0.00000746
  701      -16.4344488538      -0.0000000013     1.000000    0.00000743
  702      -16.4344488551      -0.0000000013     1.000000    0.00000740
  703      -16.4344488564      -0.0000000013     1.000000    0.00000737
  704      -16.4344488576      -0.0000000013     1.000000    0.00000734
  705      -16.4344488589      -0.0000000013     1.000000    0.00000731
  706      -16.4344488601      -0.0000000012     1.000000    0.00000728
  707      -16.4344488614      -0.0000000012     1.000000    0.00000725
  708      -16.4344488626      -0.0000000012     1.000000    0.00000721
  709      -16.4344488638      -0.0000000012     1.000000    0.00000718
  710      -16.4344488650      -0.0000000012     1.000000    0.00000715
  711      -16.4344488662      -0.0000000012     1.000000    0.00000712
  712      -16.4344488674      -0.0000000012     1.000000    0.00000710
  713      -16.4344488686      -0.0000000012     1.000000    0.00000707
  714      -16.4344488698      -0.0000000012     1.000000    0.00000704
  715      -16.4344488709      -0.0000000012     1.000000    0.00000701
  716      -16.4344488721      -0.0000000011     1.000000    0.00000698
  717      -16.4344488732      -0.0000000011     1.000000    0.00000695
  718      -16.4344488743      -0.0000000011     1.000000    0.00000692
  719      -16.4344488755      -0.0000000011     1.000000    0.00000689
  720      -16.4344488766      -0.0000000011     1.000000    0.00000686
  721      -16.4344488777      -0.0000000011     1.000000    0.00000684
  722      -16.4344488788      -0.0000000011     1.000000    0.00000681
  723      -16.4344488799      -0.0000000011     1.000000    0.00000678
  724      -16.4344488809      -0.0000000011     1.000000    0.00000675
  725      -16.4344488820      -0.0000000011     1.000000    0.00000672
  726      -16.4344488831      -0.0000000011     1.000000    0.00000670
  727      -16.4344488841      -0.0000000011     1.000000    0.00000667
  728      -16.4344488852      -0.0000000010     1.000000    0.00000664
  729      -16.4344488862      -0.0000000010     1.000000    0.00000661
  730      -16.4344488872      -0.0000000010     1.000000    0.00000659
  731      -16.4344488882      -0.0000000010     1.000000    0.00000656
  732      -16.4344488893      -0.0000000010     1.000000    0.00000653
  733      -16.4344488903      -0.0000000010     1.000000    0.00000651
  734      -16.4344488913      -0.0000000010     1.000000    0.00000648
  735      -16.4344488922      -0.0000000010     1.000000    0.00000645
  736      -16.4344488932      -0.0000000010     1.000000    0.00000643
  737      -16.4344488942      -0.0000000010     1.000000    0.00000640
  738      -16.4344488951      -0.0000000010     1.000000    0.00000638
  739      -16.4344488961      -0.0000000010     1.000000    0.00000635
  740      -16.4344488971      -0.0000000009     1.000000    0.00000632
  741      -16.4344488980      -0.0000000009     1.000000    0.00000630
  742      -16.4344488989      -0.0000000009     1.000000    0.00000627
  743      -16.4344488999      -0.0000000009     1.000000    0.00000625
  744      -16.4344489008      -0.0000000009     1.000000    0.00000622
  745      -16.4344489017      -0.0000000009     1.000000    0.00000620
  746      -16.4344489026      -0.0000000009     1.000000    0.00000617
  747      -16.4344489035      -0.0000000009     1.000000    0.00000615
  748      -16.4344489044      -0.0000000009     1.000000    0.00000612
  749      -16.4344489052      -0.0000000009     1.000000    0.00000610
  750      -16.4344489061      -0.0000000009     1.000000    0.00000607
  751      -16.4344489070      -0.0000000009     1.000000    0.00000605
  752      -16.4344489079      -0.0000000009     1.000000    0.00000603
  753      -16.4344489087      -0.0000000009     1.000000    0.00000600
  754      -16.4344489096      -0.0000000008     1.000000    0.00000598
  755      -16.4344489104      -0.0000000008     1.000000    0.00000595
  756      -16.4344489112      -0.0000000008     1.000000    0.00000593
  757      -16.4344489121      -0.0000000008     1.000000    0.00000591
  758      -16.4344489129      -0.0000000008     1.000000    0.00000588
  759      -16.4344489137      -0.0000000008     1.000000    0.00000586
  760      -16.4344489145      -0.0000000008     1.000000    0.00000584
  761      -16.4344489153      -0.0000000008     1.000000    0.00000581
  762      -16.4344489161      -0.0000000008     1.000000    0.00000579
  763      -16.4344489169      -0.0000000008     1.000000    0.00000577
  764      -16.4344489177      -0.0000000008     1.000000    0.00000574
  765      -16.4344489185      -0.0000000008     1.000000    0.00000572
  766      -16.4344489192      -0.0000000008     1.000000    0.00000570
  767      -16.4344489200      -0.0000000008     1.000000    0.00000568
  768      -16.4344489208      -0.0000000008     1.000000    0.00000565
  769      -16.4344489215      -0.0000000008     1.000000    0.00000563
  770      -16.4344489223      -0.0000000007     1.000000    0.00000561
  771      -16.4344489230      -0.0000000007     1.000000    0.00000559
  772      -16.4344489237      -0.0000000007     1.000000    0.00000557
  773      -16.4344489245      -0.0000000007     1.000000    0.00000554
  774      -16.4344489252      -0.0000000007     1.000000    0.00000552
  775      -16.4344489259      -0.0000000007     1.000000    0.00000550
  776      -16.4344489266      -0.0000000007     1.000000    0.00000548
  777      -16.4344489273      -0.0000000007     1.000000    0.00000546
  778      -16.4344489280      -0.0000000007     1.000000    0.00000544
  779      -16.4344489287      -0.0000000007     1.000000    0.00000541
  780      -16.4344489294      -0.0000000007     1.000000    0.00000539
  781      -16.4344489301      -0.0000000007     1.000000    0.00000537
  782      -16.4344489308      -0.0000000007     1.000000    0.00000535
  783      -16.4344489315      -0.0000000007     1.000000    0.00000533
  784      -16.4344489321      -0.0000000007     1.000000    0.00000531
  785      -16.4344489328      -0.0000000007     1.000000    0.00000529
  786      -16.4344489335      -0.0000000007     1.000000    0.00000527
  787      -16.4344489341      -0.0000000007     1.000000    0.00000525
  788      -16.4344489348      -0.0000000007     1.000000    0.00000523
  789      -16.4344489354      -0.0000000006     1.000000    0.00000521
  790      -16.4344489361      -0.0000000006     1.000000    0.00000519
  791      -16.4344489367      -0.0000000006     1.000000    0.00000517
  792      -16.4344489373      -0.0000000006     1.000000    0.00000515
  793      -16.4344489380      -0.0000000006     1.000000    0.00000513
  794      -16.4344489386      -0.0000000006     1.000000    0.00000511
  795      -16.4344489392      -0.0000000006     1.000000    0.00000509
  796      -16.4344489398      -0.0000000006     1.000000    0.00000507
  797      -16.4344489404      -0.0000000006     1.000000    0.00000505
  798      -16.4344489410      -0.0000000006     1.000000    0.00000503
  799      -16.4344489416      -0.0000000006     1.000000    0.00000501
  800      -16.4344489422      -0.0000000006     1.000000    0.00000499
  801      -16.4344489428      -0.0000000006     1.000000    0.00000497
  802      -16.4344489434      -0.0000000006     1.000000    0.00000495
  803      -16.4344489440      -0.0000000006     1.000000    0.00000493
  804      -16.4344489446      -0.0000000006     1.000000    0.00000492
  805      -16.4344489451      -0.0000000006     1.000000    0.00000490
  806      -16.4344489457      -0.0000000006     1.000000    0.00000488
  807      -16.4344489463      -0.0000000006     1.000000    0.00000486
  808      -16.4344489468      -0.0000000006     1.000000    0.00000484
  809      -16.4344489474      -0.0000000006     1.000000    0.00000482
  810      -16.4344489479      -0.0000000006     1.000000    0.00000480
  811      -16.4344489485      -0.0000000005     1.000000    0.00000479
  812      -16.4344489490      -0.0000000005     1.000000    0.00000477
  813      -16.4344489496      -0.0000000005     1.000000    0.00000475
  814      -16.4344489501      -0.0000000005     1.000000    0.00000473
  815      -16.4344489506      -0.0000000005     1.000000    0.00000471
  816      -16.4344489512      -0.0000000005     1.000000    0.00000470
  817      -16.4344489517      -0.0000000005     1.000000    0.00000468
  818      -16.4344489522      -0.0000000005     1.000000    0.00000466
  819      -16.4344489527      -0.0000000005     1.000000    0.00000464
  820      -16.4344489532      -0.0000000005     1.000000    0.00000463
  821      -16.4344489537      -0.0000000005     1.000000    0.00000461
  822      -16.4344489542      -0.0000000005     1.000000    0.00000459
  823      -16.4344489547      -0.0000000005     1.000000    0.00000457
  824      -16.4344489552      -0.0000000005     1.000000    0.00000456
  825      -16.4344489557      -0.0000000005     1.000000    0.00000454
  826      -16.4344489562      -0.0000000005     1.000000    0.00000452
  827      -16.4344489567      -0.0000000005     1.000000    0.00000450
  828      -16.4344489572      -0.0000000005     1.000000    0.00000449
  829      -16.4344489577      -0.0000000005     1.000000    0.00000447
  830      -16.4344489581      -0.0000000005     1.000000    0.00000445
  831      -16.4344489586      -0.0000000005     1.000000    0.00000444
  832      -16.4344489591      -0.0000000005     1.000000    0.00000442
  833      -16.4344489595      -0.0000000005     1.000000    0.00000440
  834      -16.4344489600      -0.0000000005     1.000000    0.00000439
  835      -16.4344489605      -0.0000000005     1.000000    0.00000437
  836      -16.4344489609      -0.0000000005     1.000000    0.00000436
  837      -16.4344489614      -0.0000000005     1.000000    0.00000434
  838      -16.4344489618      -0.0000000004     1.000000    0.00000432
  839      -16.4344489623      -0.0000000004     1.000000    0.00000431
  840      -16.4344489627      -0.0000000004     1.000000    0.00000429
  841      -16.4344489631      -0.0000000004     1.000000    0.00000427
  842      -16.4344489636      -0.0000000004     1.000000    0.00000426
  843      -16.4344489640      -0.0000000004     1.000000    0.00000424
  844      -16.4344489644      -0.0000000004     1.000000    0.00000423
  845      -16.4344489649      -0.0000000004     1.000000    0.00000421
  846      -16.4344489653      -0.0000000004     1.000000    0.00000420
  847      -16.4344489657      -0.0000000004     1.000000    0.00000418
  848      -16.4344489661      -0.0000000004     1.000000    0.00000417
  849      -16.4344489665      -0.0000000004     1.000000    0.00000415
  850      -16.4344489669      -0.0000000004     1.000000    0.00000413
  851      -16.4344489673      -0.0000000004     1.000000    0.00000412
  852      -16.4344489677      -0.0000000004     1.000000    0.00000410
  853      -16.4344489681      -0.0000000004     1.000000    0.00000409
  854      -16.4344489685      -0.0000000004     1.000000    0.00000407
  855      -16.4344489689      -0.0000000004     1.000000    0.00000406
  856      -16.4344489693      -0.0000000004     1.000000    0.00000404
  857      -16.4344489697      -0.0000000004     1.000000    0.00000403
  858      -16.4344489701      -0.0000000004     1.000000    0.00000401
  859      -16.4344489705      -0.0000000004     1.000000    0.00000400
  860      -16.4344489709      -0.0000000004     1.000000    0.00000398
  861      -16.4344489712      -0.0000000004     1.000000    0.00000397
  862      -16.4344489716      -0.0000000004     1.000000    0.00000396
  863      -16.4344489720      -0.0000000004     1.000000    0.00000394
  864      -16.4344489724      -0.0000000004     1.000000    0.00000393
  865      -16.4344489727      -0.0000000004     1.000000    0.00000391
  866      -16.4344489731      -0.0000000004     1.000000    0.00000390
  867      -16.4344489735      -0.0000000004     1.000000    0.00000388
  868      -16.4344489738      -0.0000000004     1.000000    0.00000387
  869      -16.4344489742      -0.0000000004     1.000000    0.00000386
  870      -16.4344489745      -0.0000000004     1.000000    0.00000384
  871      -16.4344489749      -0.0000000004     1.000000    0.00000383
  872      -16.4344489752      -0.0000000003     1.000000    0.00000381
  873      -16.4344489756      -0.0000000003     1.000000    0.00000380
  874      -16.4344489759      -0.0000000003     1.000000    0.00000379
  875      -16.4344489763      -0.0000000003     1.000000    0.00000377
  876      -16.4344489766      -0.0000000003     1.000000    0.00000376
  877      -16.4344489769      -0.0000000003     1.000000    0.00000375
  878      -16.4344489773      -0.0000000003     1.000000    0.00000373
  879      -16.4344489776      -0.0000000003     1.000000    0.00000372
  880      -16.4344489779      -0.0000000003     1.000000    0.00000370
  881      -16.4344489783      -0.0000000003     1.000000    0.00000369
  882      -16.4344489786      -0.0000000003     1.000000    0.00000368
  883      -16.4344489789      -0.0000000003     1.000000    0.00000366
  884      -16.4344489792      -0.0000000003     1.000000    0.00000365
  885      -16.4344489796      -0.0000000003     1.000000    0.00000364
  886      -16.4344489799      -0.0000000003     1.000000    0.00000363
  887      -16.4344489802      -0.0000000003     1.000000    0.00000361
  888      -16.4344489805      -0.0000000003     1.000000    0.00000360
  889      -16.4344489808      -0.0000000003     1.000000    0.00000359
  890      -16.4344489811      -0.0000000003     1.000000    0.00000357
  891      -16.4344489814      -0.0000000003     1.000000    0.00000356
  892      -16.4344489817      -0.0000000003     1.000000    0.00000355
  893      -16.4344489820      -0.0000000003     1.000000    0.00000353
  894      -16.4344489823      -0.0000000003     1.000000    0.00000352
  895      -16.4344489826      -0.0000000003     1.000000    0.00000351
  896      -16.4344489829      -0.0000000003     1.000000    0.00000350
  897      -16.4344489832      -0.0000000003     1.000000    0.00000348
  898      -16.4344489835      -0.0000000003     1.000000    0.00000347
  899      -16.4344489838      -0.0000000003     1.000000    0.00000346
  900      -16.4344489841      -0.0000000003     1.000000    0.00000345
  901      -16.4344489844      -0.0000000003     1.000000    0.00000343
  902      -16.4344489846      -0.0000000003     1.000000    0.00000342
  903      -16.4344489849      -0.0000000003     1.000000    0.00000341
  904      -16.4344489852      -0.0000000003     1.000000    0.00000340
  905      -16.4344489855      -0.0000000003     1.000000    0.00000339
  906      -16.4344489857      -0.0000000003     1.000000    0.00000337
  907      -16.4344489860      -0.0000000003     1.000000    0.00000336
  908      -16.4344489863      -0.0000000003     1.000000    0.00000335
  909      -16.4344489866      -0.0000000003     1.000000    0.00000334
  910      -16.4344489868      -0.0000000003     1.000000    0.00000333
  911      -16.4344489871      -0.0000000003     1.000000    0.00000331
  912      -16.4344489873      -0.0000000003     1.000000    0.00000330
  913      -16.4344489876      -0.0000000003     1.000000    0.00000329
  914      -16.4344489879      -0.0000000003     1.000000    0.00000328
  915      -16.4344489881      -0.0000000003     1.000000    0.00000327
  916      -16.4344489884      -0.0000000003     1.000000    0.00000326
  917      -16.4344489886      -0.0000000003     1.000000    0.00000324
  918      -16.4344489889      -0.0000000003     1.000000    0.00000323
  919      -16.4344489891      -0.0000000003     1.000000    0.00000322
  920      -16.4344489894      -0.0000000002     1.000000    0.00000321
  921      -16.4344489896      -0.0000000002     1.000000    0.00000320
  922      -16.4344489899      -0.0000000002     1.000000    0.00000319
  923      -16.4344489901      -0.0000000002     1.000000    0.00000318
  924      -16.4344489904      -0.0000000002     1.000000    0.00000317
  925      -16.4344489906      -0.0000000002     1.000000    0.00000315
  926      -16.4344489908      -0.0000000002     1.000000    0.00000314
  927      -16.4344489911      -0.0000000002     1.000000    0.00000313
  928      -16.4344489913      -0.0000000002     1.000000    0.00000312
  929      -16.4344489915      -0.0000000002     1.000000    0.00000311
  930      -16.4344489918      -0.0000000002     1.000000    0.00000310
  931      -16.4344489920      -0.0000000002     1.000000    0.00000309
  932      -16.4344489922      -0.0000000002     1.000000    0.00000308
  933      -16.4344489925      -0.0000000002     1.000000    0.00000307
  934      -16.4344489927      -0.0000000002     1.000000    0.00000306
  935      -16.4344489929      -0.0000000002     1.000000    0.00000305
  936      -16.4344489931      -0.0000000002     1.000000    0.00000303
  937      -16.4344489934      -0.0000000002     1.000000    0.00000302
  938      -16.4344489936      -0.0000000002     1.000000    0.00000301
  939      -16.4344489938      -0.0000000002     1.000000    0.00000300
  940      -16.4344489940      -0.0000000002     1.000000    0.00000299
  941      -16.4344489942      -0.0000000002     1.000000    0.00000298
  942      -16.4344489944      -0.0000000002     1.000000    0.00000297
  943      -16.4344489946      -0.0000000002     1.000000    0.00000296
  944      -16.4344489949      -0.0000000002     1.000000    0.00000295
  945      -16.4344489951      -0.0000000002     1.000000    0.00000294
  946      -16.4344489953      -0.0000000002     1.000000    0.00000293
  947      -16.4344489955      -0.0000000002     1.000000    0.00000292
  948      -16.4344489957      -0.0000000002     1.000000    0.00000291
  949      -16.4344489959      -0.0000000002     1.000000    0.00000290
  950      -16.4344489961      -0.0000000002     1.000000    0.00000289
  951      -16.4344489963      -0.0000000002     1.000000    0.00000288
  952      -16.4344489965      -0.0000000002     1.000000    0.00000287
  953      -16.4344489967      -0.0000000002     1.000000    0.00000286
  954      -16.4344489969      -0.0000000002     1.000000    0.00000285
  955      -16.4344489971      -0.0000000002     1.000000    0.00000284
  956      -16.4344489973      -0.0000000002     1.000000    0.00000283
  957      -16.4344489975      -0.0000000002     1.000000    0.00000282
  958      -16.4344489977      -0.0000000002     1.000000    0.00000281
  959      -16.4344489978      -0.0000000002     1.000000    0.00000280
  960      -16.4344489980      -0.0000000002     1.000000    0.00000279
  961      -16.4344489982      -0.0000000002     1.000000    0.00000278
  962      -16.4344489984      -0.0000000002     1.000000    0.00000277
  963      -16.4344489986      -0.0000000002     1.000000    0.00000276
  964      -16.4344489988      -0.0000000002     1.000000    0.00000275
  965      -16.4344489990      -0.0000000002     1.000000    0.00000274
  966      -16.4344489991      -0.0000000002     1.000000    0.00000273
  967      -16.4344489993      -0.0000000002     1.000000    0.00000272
  968      -16.4344489995      -0.0000000002     1.000000    0.00000272
  969      -16.4344489997      -0.0000000002     1.000000    0.00000271
  970      -16.4344489998      -0.0000000002     1.000000    0.00000270
  971      -16.4344490000      -0.0000000002     1.000000    0.00000269
  972      -16.4344490002      -0.0000000002     1.000000    0.00000268
  973      -16.4344490004      -0.0000000002     1.000000    0.00000267
  974      -16.4344490005      -0.0000000002     1.000000    0.00000266
  975      -16.4344490007      -0.0000000002     1.000000    0.00000265
  976      -16.4344490009      -0.0000000002     1.000000    0.00000264
  977      -16.4344490010      -0.0000000002     1.000000    0.00000263
  978      -16.4344490012      -0.0000000002     1.000000    0.00000262
  979      -16.4344490014      -0.0000000002     1.000000    0.00000261
  980      -16.4344490015      -0.0000000002     1.000000    0.00000261
  981      -16.4344490017      -0.0000000002     1.000000    0.00000260
  982      -16.4344490019      -0.0000000002     1.000000    0.00000259
  983      -16.4344490020      -0.0000000002     1.000000    0.00000258
  984      -16.4344490022      -0.0000000002     1.000000    0.00000257
  985      -16.4344490023      -0.0000000002     1.000000    0.00000256
  986      -16.4344490025      -0.0000000002     1.000000    0.00000255
  987      -16.4344490027      -0.0000000002     1.000000    0.00000254
  988      -16.4344490028      -0.0000000002     1.000000    0.00000254
  989      -16.4344490030      -0.0000000002     1.000000    0.00000253
  990      -16.4344490031      -0.0000000002     1.000000    0.00000252
  991      -16.4344490033      -0.0000000002     1.000000    0.00000251
  992      -16.4344490034      -0.0000000002     1.000000    0.00000250
  993      -16.4344490036      -0.0000000002     1.000000    0.00000249
  994      -16.4344490037      -0.0000000001     1.000000    0.00000248
  995      -16.4344490039      -0.0000000001     1.000000    0.00000248
  996      -16.4344490040      -0.0000000001     1.000000    0.00000247
  997      -16.4344490042      -0.0000000001     1.000000    0.00000246
  998      -16.4344490043      -0.0000000001     1.000000    0.00000245
  999      -16.4344490045      -0.0000000001     1.000000    0.00000244
 1000      -16.4344490046      -0.0000000001     1.000000    0.00000243

Total Energy:                      -16.4344490046 H         -447.2041 eV
Extrapolated to 0:                 -16.3929909470 H         -446.0760 eV

----------------------------------------------------------------------------------
 Solving CP-REKS equation for  1 state vector...
----------------------------------------------------------------------------------
  CG solver: Constructing Y initial guess
  CG solver: Iteration    1    eps =    0.146155067554
  CG solver: Iteration    2    eps =    0.016470905999
  CG solver: Iteration    3    eps =    0.004764553563
  CG solver: Iteration    4    eps =    0.007447315943
  CG solver: Iteration    5    eps =    0.018958096129
  CG solver: Iteration    6    eps =    0.024565791092
  CG solver: Iteration    7    eps =    0.016737543729
  CG solver: Iteration    8    eps =    0.044213687883
  CG solver: Iteration    9    eps =    0.031172020118
  CG solver: Iteration   10    eps =    0.006698115453
  CG solver: Iteration   11    eps =    0.002719469584
  CG solver: Iteration   12    eps =    0.000346911127
  CG solver: Iteration   13    eps =    0.000041809012
  CG solver: Iteration   14    eps =    0.000007115586
  CG solver: Iteration   15    eps =    0.000000680871
  CG solver: Iteration   16    eps =    0.000000089268
  CG solver: Iteration   17    eps =    0.000000007329
  Convergence reached in CG solver after   17 iterations
  CG solver: Calculating converged R, Z, Q2 matrix
----------------------------------------------------------------------------------

----------------------------------------------------------------------------------
 Solving CP-REKS equation for SI between  1 and  2 state vectors...
----------------------------------------------------------------------------------
  CG solver: Constructing Y initial guess
  CG solver: Iteration    1    eps =    0.044492735357
  CG solver: Iteration    2    eps =    0.003771657315
  CG solver: Iteration    3    eps =    0.006727438643
  CG solver: Iteration    4    eps =    0.062894841966
  CG solver: Iteration    5    eps =    0.011522321653
  CG solver: Iteration    6    eps =    0.029009242511
  CG solver: Iteration    7    eps =    0.057229109810
  CG solver: Iteration    8    eps =    0.024207223181
  CG solver: Iteration    9    eps =    0.006710375805
  CG solver: Iteration   10    eps =    0.002661480028
  CG solver: Iteration   11    eps =    0.000171999136
  CG solver: Iteration   12    eps =    0.000008552977
  CG solver: Iteration   13    eps =    0.000000528478
  CG solver: Iteration   14    eps =    0.000000040039
  CG solver: Iteration   15    eps =    0.000000005623
  Convergence reached in CG solver after   15 iterations
  CG solver: Calculating converged R, Z, Q2 matrix
----------------------------------------------------------------------------------

--------------------------------------------------
 Gradient Information
--------------------------------------------------
           1 st state (SSR)
     0.00000000     0.00000000     0.00000000
     0.00000000     0.00000000     0.00000000
     0.00000000     0.00000000     0.00000000
     0.00000000     0.00000000     0.00000000
     0.00000000     0.00000000     0.00000000
     0.00000000     0.00000000     0.00000000
     0.00000000     0.00000000     0.00000000
     0.00000000     0.00000000     0.00000000
     0.00000000     0.00000000     0.00000000
     0.00000000     0.00000000     0.00000000
     0.00000000     0.00000000     0.00000000
     0.00000000     0.00000000     0.00000000
     0.00000000     0.00000000     0.00000000
     0.00000000     0.00000000     0.00000000

           2 st state (SSR)
     0.00000000     0.00000000     0.00000000
     0.00000000     0.00000000     0.00000000
     0.00000000     0.00000000     0.00000000
     0.00000000     0.00000000     0.00000000
     0.00000000     0.00000000     0.00000000
     0.00000000     0.00000000     0.00000000
     0.00000000     0.00000000     0.00000000
     0.00000000     0.00000000     0.00000000
     0.00000000     0.00000000     0.00000000
     0.00000000     0.00000000     0.00000000
     0.00000000     0.00000000     0.00000000
     0.00000000     0.00000000     0.00000000
     0.00000000     0.00000000     0.00000000
     0.00000000     0.00000000     0.00000000
--------------------------------------------------
 Coupling Information
--------------------------------------------------
 between  1 and  2 states
--------------------------------------------------
 g vector - difference gradient
    -0.68896521     0.31663200    -0.12377422
     1.08521289    -0.28367715     0.02010268
    -0.09553918    -0.37153365     0.12989981
     0.06523492     0.27986146    -0.13390797
    -0.12172318    -0.31237635     0.04102184
     0.50634191     0.76973485     0.15719077
    -0.76964886    -0.69613582     0.18103420
    -0.31253769     0.15854208    -0.05560156
     0.06568814    -0.07954817     0.12738622
     0.33065011     0.28945922    -0.71828182
     0.02576444    -0.09537039    -0.00027463
    -0.09752361     0.01373431     0.37282744
     0.03834716    -0.04095216     0.01926121
    -0.03130185     0.05162978    -0.01688396

 h vector - derivative coupling
    -0.74966031     0.25239157    -0.19184269
     1.09417124    -0.18133262     0.30298000
    -0.05689748    -0.22453645     0.10586797
    -0.00310560     0.15114029    -0.09972187
    -0.10704305    -0.32655205     0.09471237
     0.13199329     0.57937303    -0.26639893
    -0.01850254    -0.23978889     0.36425869
    -0.17318181    -0.01542438    -0.02935642
     0.10852269    -0.21297332    -0.08517610
    -0.26935116     0.25061527    -0.37807731
    -0.01421048     0.01997232     0.00304932
     0.01726085    -0.00263336     0.14567731
     0.02869494    -0.09255234     0.00939614
     0.01130942     0.04230092     0.02463152

 G vector - GDV
     0.00000000     0.00000000     0.00000000
     0.00000000     0.00000000     0.00000000
     0.00000000     0.00000000     0.00000000
     0.00000000     0.00000000     0.00000000
     0.00000000     0.00000000     0.00000000
     0.00000000     0.00000000     0.00000000
     0.00000000     0.00000000     0.00000000
     0.00000000     0.00000000     0.00000000
     0.00000000     0.00000000     0.00000000
     0.00000000     0.00000000     0.00000000
     0.00000000     0.00000000     0.00000000
     0.00000000     0.00000000     0.00000000
     0.00000000     0.00000000     0.00000000
     0.00000000     0.00000000     0.00000000

 H vector - DCV - non-adiabatic coupling
     0.00000000     0.00000000     0.00000000
     0.00000000     0.00000000     0.00000000
     0.00000000     0.00000000     0.00000000
     0.00000000     0.00000000     0.00000000
     0.00000000     0.00000000     0.00000000
     0.00000000     0.00000000     0.00000000
     0.00000000     0.00000000     0.00000000
     0.00000000     0.00000000     0.00000000
     0.00000000     0.00000000     0.00000000
     0.00000000     0.00000000     0.00000000
     0.00000000     0.00000000     0.00000000
     0.00000000     0.00000000     0.00000000
     0.00000000     0.00000000     0.00000000
     0.00000000     0.00000000     0.00000000
--------------------------------------------------

WARNING!
-> SCC is NOT converged, maximal SCC iterations exceeded

--------------------------------------------------------------------------------
DFTB+ running times                          cpu [s]             wall clock [s]
--------------------------------------------------------------------------------
SCC                                    +     1.56  ( 78.7%)      1.57  ( 78.7%)
      Sparse to dense                        0.07  (  3.8%)      0.07  (  3.6%)
      Dense to sparse                        0.26  ( 12.9%)      0.27  ( 13.4%)
      Range separated Hamiltonian            0.13  (  6.3%)      0.13  (  6.3%)
  Density matrix creation                    0.16  (  7.9%)      0.15  (  7.7%)
  Force calculation                          0.42  ( 21.1%)      0.42  ( 21.1%)
--------------------------------------------------------------------------------
Missing                                +     0.42  ( 21.3%)      0.43  ( 21.3%)
Total                                  =     1.98  (100.0%)      2.00  (100.0%)
--------------------------------------------------------------------------------
