|===============================================================================
|
|  DFTB+ release 20.1
|
|  Copyright (C) 2006 - 2020  DFTB+ developers group
|
|===============================================================================
|
|  When publishing results obtained with DFTB+, please cite the following
|  reference:
|
|  * DFTB+, a software package for efficient approximate density functional
|    theory based atomistic simulations, J. Chem. Phys. 152, 124101 (2020).
|    [doi: 10.1063/1.5143190]
|
|  You should also cite additional publications crediting the parametrization
|  data you use. Please consult the documentation of the SK-files for the
|  references.
|
|===============================================================================

Reading input file 'dftb_in.hsd'
Parser version: 8

--------------------------------------------------------------------------------
Reading SK-files:
Done.


Processed input in HSD format written to 'dftb_pin.hsd'

Starting initialization...
--------------------------------------------------------------------------------
OpenMP threads:              1
Chosen random seed:          509429758
Mode:                        Static calculation
Self consistent charges:     Yes
SCC-tolerance:                 0.100000E-05
Max. scc iterations:                   1000
Shell resolved Hubbard:      No
Spin polarisation:           No
Nr. of up electrons:             6.000000
Nr. of down electrons:           6.000000
Periodic boundaries:         No
Electronic solver:           Relatively robust
Maximal SCC-cycles:                    1000
Initial charges:             Set automatically (system chrg:   0.100E+01)
Included shells:             C:  s, p
                             N:  s, p
                             H:  s
Spin coupling constants:     C   1(s)-1(s):  -0.455900E-01
                             C   1(s)-2(p):  -0.293000E-01
                             C   2(p)-1(s):  -0.293000E-01
                             C   2(p)-2(p):  -0.275500E-01
                             N   1(s)-1(s):  -0.468700E-01
                             N   1(s)-2(p):  -0.317000E-01
                             N   2(p)-1(s):  -0.317000E-01
                             N   2(p)-2(p):  -0.307200E-01
                             H   1(s)-1(s):  -0.792500E-01
Range separated hybrid:      Yes
  Screening parameter omega:   0.300000E+00
  Range separated algorithm:   MatrixBased
Extra options:
                             Mulliken analysis
                             Force calculation
Force type                   original
                             Eigenvector printing


REKS Calcuation:             Yes
SSR(2,2) Calcuation:         Yes
Energy Functional:           (PPS+OSS)/2
Number of Core Orbitals:                  5
Number of Active Orbitals:                2
Number of Basis:                         12
Number of States:                         2
State-Averaging Weight:          0.500000
                                 0.500000
State of Interest:                        1
Initial Guess:               Diagonalize H0 matrix
Newton-Raphson for FON opt:  Yes
NR max. Iterations:                      50
Level Shifting:              Yes
Shift Value:                     0.300000
W Scale Factor:              C  =    3.000000
                             N  =    3.000000
                             H  =    3.000000
Transition Dipole:           No
Gradient of Microstate:      No
CP-REKS Solver:              Preconditioned Conjugate-Gradient
CG max. Iterations:                     100
CG Tolerance:                  0.100000E-07
Memory for A and Hxc:        Direct Updating Without Saving
Non-Adiabatic Coupling:      Yes

--------------------------------------------------------------------------------

***  Geometry step: 0

  iSCC       reks energy        Diff energy         x_a       SCC error   
    1       -6.2593136959       0.0000000000     0.999116    1.18538207
    2       -6.2738124766      -0.0144987806     0.999656    0.11083813
    3       -6.2788267536      -0.0050142770     0.999816    0.05309810
    4       -6.2818022925      -0.0029755389     0.999886    0.02731821
    5       -6.2838778931      -0.0020756006     0.999920    0.01433980
    6       -6.2853906965      -0.0015128035     0.999939    0.01167832
    7       -6.2864827927      -0.0010920961     0.999951    0.01004795
    8       -6.2872473186      -0.0007645260     0.999957    0.00899966
    9       -6.2877642746      -0.0005169560     0.999961    0.00777509
   10       -6.2881031972      -0.0003389226     0.999964    0.00655787
   11       -6.2883200535      -0.0002168564     0.999965    0.00544395
   12       -6.2884563923      -0.0001363387     0.999966    0.00447308
   13       -6.2885411245      -0.0000847323     0.999967    0.00365179
   14       -6.2885934344      -0.0000523099     0.999967    0.00296961
   15       -6.2886256351      -0.0000322007     0.999967    0.00240918
   16       -6.2886454553      -0.0000198202     0.999967    0.00195171
   17       -6.2886576780      -0.0000122227     0.999967    0.00157969
   18       -6.2886652395      -0.0000075615     0.999967    0.00127778
   19       -6.2886699359      -0.0000046964     0.999967    0.00103310
   20       -6.2886728654      -0.0000029295     0.999967    0.00083493
   21       -6.2886747008      -0.0000018353     0.999967    0.00067453
   22       -6.2886758555      -0.0000011547     0.999967    0.00054476
   23       -6.2886765848      -0.0000007293     0.999967    0.00043981
   24       -6.2886770471      -0.0000004623     0.999967    0.00035496
   25       -6.2886773411      -0.0000002940     0.999967    0.00028754
   26       -6.2886775286      -0.0000001875     0.999967    0.00023380
   27       -6.2886776484      -0.0000001198     0.999967    0.00018988
   28       -6.2886777252      -0.0000000767     0.999967    0.00015404
   29       -6.2886777744      -0.0000000492     0.999967    0.00012485
   30       -6.2886778060      -0.0000000316     0.999967    0.00010110
   31       -6.2886778264      -0.0000000204     0.999967    0.00008181
   32       -6.2886778395      -0.0000000131     0.999967    0.00006616
   33       -6.2886778479      -0.0000000084     0.999967    0.00005347
   34       -6.2886778534      -0.0000000054     0.999967    0.00004320
   35       -6.2886778569      -0.0000000035     0.999967    0.00003488
   36       -6.2886778592      -0.0000000023     0.999967    0.00002815
   37       -6.2886778606      -0.0000000015     0.999967    0.00002271
   38       -6.2886778616      -0.0000000009     0.999967    0.00001832
   39       -6.2886778622      -0.0000000006     0.999967    0.00001477
   40       -6.2886778626      -0.0000000004     0.999967    0.00001191
   41       -6.2886778628      -0.0000000003     0.999967    0.00000959
   42       -6.2886778630      -0.0000000002     0.999967    0.00000773
   43       -6.2886778631      -0.0000000001     0.999967    0.00000623
   44       -6.2886778632      -0.0000000001     0.999967    0.00000502
   45       -6.2886778632      -0.0000000000     0.999967    0.00000404
   46       -6.2886778632      -0.0000000000     0.999967    0.00000325
   47       -6.2886778633      -0.0000000000     0.999967    0.00000262
   48       -6.2886778633      -0.0000000000     0.999967    0.00000211
   49       -6.2886778633      -0.0000000000     0.999967    0.00000170
   50       -6.2886778633      -0.0000000000     0.999967    0.00000137
   51       -6.2886778633      -0.0000000000     0.999967    0.00000110
   52       -6.2886778633      -0.0000000000     0.999967    0.00000088
  
--------------------------------------------------
 Final SA-REKS(2,2) energy:      -6.28867786
  
 State     Energy      FON(1)    FON(2)   Spin
  PPS   -6.41767693   1.999934  0.000066  0.00
  OSS   -6.15967880   1.000000  1.000000  0.00
 Trip   -6.23882250   1.000000  1.000000  1.00
--------------------------------------------------

 Lagrangian Wab:  -0.00223778 -0.00223770

--------------------------------------------------
 SSR: 2SI-2SA-REKS(2,2) Hamiltonian matrix
               PPS           OSS
   PPS    -6.41767693   -0.00314642
   OSS    -0.00314642   -6.15967880
--------------------------------------------------

----------------------------------------------------------------
 SSR: 2SI-2SA-REKS(2,2) states
                    E_n       C_{PPS}    C_{OSS}
 SSR state  1   -6.41771529  -0.999926  -0.012193
 SSR state  2   -6.15964043   0.012193  -0.999926
----------------------------------------------------------------

 unrelaxed SSR FONs for S0:  1.999785  0.000215

Total Energy:                       -6.4177152942 H         -174.6349 eV
Extrapolated to 0:                  -6.4177152942 H         -174.6349 eV

----------------------------------------------------------------------------------
 Solving CP-REKS equation for  1 state vector...
----------------------------------------------------------------------------------
  CG solver: Constructing Y initial guess
  CG solver: Iteration    1    eps =    0.000041883317
  CG solver: Iteration    2    eps =    0.000005943942
  CG solver: Iteration    3    eps =    0.000000321332
  CG solver: Iteration    4    eps =    0.000000029367
  CG solver: Iteration    5    eps =    0.000000005566
  Convergence reached in CG solver after    5 iterations
  CG solver: Calculating converged R, Z, Q2 matrix
----------------------------------------------------------------------------------

----------------------------------------------------------------------------------
 Solving CP-REKS equation for SI between  1 and  2 state vectors...
----------------------------------------------------------------------------------
  CG solver: Constructing Y initial guess
  CG solver: Iteration    1    eps =    0.000648877703
  CG solver: Iteration    2    eps =    0.000551322902
  CG solver: Iteration    3    eps =    0.000145705413
  CG solver: Iteration    4    eps =    0.000001983762
  CG solver: Iteration    5    eps =    0.000000263340
  CG solver: Iteration    6    eps =    0.000000006026
  Convergence reached in CG solver after    6 iterations
  CG solver: Calculating converged R, Z, Q2 matrix
----------------------------------------------------------------------------------

--------------------------------------------------
 Gradient Information
--------------------------------------------------
           1 st state (SSR)
     0.00051722     0.00063584    -0.01688123
     0.00094804    -0.00114609     0.01374646
    -0.00159654     0.00554668    -0.00121587
    -0.00083740    -0.00583028     0.00263728
    -0.00016232     0.00585272     0.00366484
     0.00113099    -0.00505887    -0.00195147

           2 st state (SSR)
    -0.00026199    -0.00441288     0.07929971
     0.00156962     0.00581740    -0.10154107
    -0.01557503    -0.00552660     0.01708239
    -0.00678871     0.00546932    -0.00621467
     0.00600502    -0.00476929    -0.00623473
     0.01505108     0.00342205     0.01760837
--------------------------------------------------
 Coupling Information
--------------------------------------------------
 between  1 and  2 states
--------------------------------------------------
 g vector - difference gradient
     0.00038563     0.00253077    -0.04817981
    -0.00031101    -0.00348484     0.05769208
     0.00700247     0.00569942    -0.00913502
     0.00295096    -0.00582709     0.00443190
    -0.00305795     0.00548672     0.00497516
    -0.00697010    -0.00440499    -0.00978432

 h vector - derivative coupling
     0.00016773    -0.00023207     0.00307636
     0.00000532     0.00008411    -0.00127808
    -0.00045729    -0.00660642    -0.00069024
     0.00104867     0.00719964    -0.00018911
    -0.00109196    -0.00713930    -0.00098008
     0.00032754     0.00669404     0.00006115

 G vector - GDV
     0.00038961     0.00252436    -0.04809047
    -0.00031079    -0.00348175     0.05764376
     0.00698924     0.00553664    -0.00914913
     0.00297566    -0.00564980     0.00442597
    -0.00308367     0.00531101     0.00494978
    -0.00696004    -0.00424046    -0.00977992

 H vector - DCV - non-adiabatic coupling
     0.00061330    -0.00113808     0.01646907
     0.00004999     0.00065508    -0.01040184
    -0.00243302    -0.02612975    -0.00181066
     0.00378341     0.02843976    -0.00115131
    -0.00394101    -0.02817384    -0.00426659
     0.00192733     0.02634684     0.00116133
--------------------------------------------------


--------------------------------------------------------------------------------
DFTB+ running times                          cpu [s]             wall clock [s]
--------------------------------------------------------------------------------
SCC                                    +     0.02  ( 69.1%)      0.03  ( 65.0%)
Post-SCC processing                    +     0.01  ( 26.7%)      0.01  ( 27.5%)
--------------------------------------------------------------------------------
Missing                                +     0.00  (  4.1%)      0.00  (  7.5%)
Total                                  =     0.03  (100.0%)      0.04  (100.0%)
--------------------------------------------------------------------------------
