     6
  Step:   300            Position(A)                                  Velocity(au)
C        -0.04773624     0.02787257     0.03022206     0.00003324     0.00001038     0.00006867
N        -0.05322956    -0.05744605     1.28655548    -0.00013584    -0.00004382    -0.00005506
H         0.02828002    -0.91476565    -0.50746716    -0.00183876     0.00014439    -0.00041951
H         0.07561031     0.71571420     1.94788664    -0.00106739    -0.00026493     0.00045159
H         0.16898866    -0.95377658     1.75235926     0.00265932     0.00074862     0.00035396
H        -0.17727965     0.94921852    -0.53927718     0.00173840    -0.00014282    -0.00043907
