     6
  Step:     0            Position(A)                                  Velocity(au)
C        -0.03679405     0.00122612     0.05026671     0.00017184    -0.00009207     0.00006563
N        -0.04051359    -0.06206083     1.27252485     0.00017843     0.00005499     0.00008480
H         0.87407857     0.08088208    -0.52632430    -0.00017735     0.00016318    -0.00029208
H         0.83685161    -0.06354528     1.89303573    -0.00158322    -0.00013660    -0.00168482
H        -0.93237927     0.04426630     1.78627189    -0.00153864    -0.00018575     0.00054243
H        -0.99005767     0.11642830    -0.54337569    -0.00122791     0.00049208    -0.00052592
     6
  Step:     1            Position(A)                                  Velocity(au)
C        -0.03587066     0.00073658     0.05029825     0.00016462    -0.00008681    -0.00005397
N        -0.03952201    -0.06178015     1.27330472     0.00018125     0.00004781     0.00019915
H         0.87339246     0.08183932    -0.52823000    -0.00007381     0.00018669    -0.00040416
H         0.82781151    -0.06428023     1.88358403    -0.00169922    -0.00013206    -0.00175190
H        -0.94075391     0.04328795     1.78935399    -0.00150375    -0.00017398     0.00057302
H        -0.99673897     0.11911710    -0.54631320    -0.00120349     0.00048929    -0.00054124
     6
  Step:     2            Position(A)                                  Velocity(au)
C        -0.03499169     0.00027569     0.04967584     0.00015508    -0.00008130    -0.00017165
N        -0.03852905    -0.06153735     1.27470531     0.00017806     0.00004101     0.00030923
H         0.87327043     0.08292617    -0.53074944     0.00002783     0.00020954    -0.00051353
H         0.81824686    -0.06499121     1.87385423    -0.00176376    -0.00012740    -0.00177635
H        -0.94884375     0.04236141     1.79254581    -0.00143026    -0.00016586     0.00058117
H        -1.00323460     0.12178549    -0.54930175    -0.00115613     0.00048263    -0.00054298
     6
  Step:     3            Position(A)                                  Velocity(au)
C        -0.03416910    -0.00015547     0.04841491     0.00014347    -0.00007562    -0.00028448
N        -0.03756828    -0.06133022     1.27669759     0.00016859     0.00003465     0.00041183
H         0.87369785     0.08413842    -0.53386447     0.00012514     0.00023114    -0.00061760
H         0.80845932    -0.06567808     1.86409366    -0.00176827    -0.00012275    -0.00175212
H        -0.95644691     0.04146813     1.79573071    -0.00132170    -0.00016077     0.00056895
H        -1.00942412     0.12441262    -0.55227081    -0.00108742     0.00047195    -0.00053220
     6
  Step:     4            Position(A)                                  Velocity(au)
C        -0.03341359    -0.00055612     0.04654660     0.00013007    -0.00006983    -0.00038954
N        -0.03667463    -0.06115621     1.27923534     0.00015274     0.00002881     0.00050385
H         0.87464691     0.08546860    -0.53754285     0.00021561     0.00025086    -0.00071369
H         0.79879640    -0.06634140     1.85458137    -0.00170595    -0.00011824    -0.00167482
H        -0.96338209     0.04059295     1.79880412    -0.00118263    -0.00015808     0.00053892
H        -1.01519592     0.12697676    -0.55515583    -0.00099947     0.00045716    -0.00051022
     6
  Step:     5            Position(A)                                  Velocity(au)
C        -0.03273417    -0.00092579     0.04411758     0.00011527    -0.00006399    -0.00048411
N        -0.03588328    -0.06101242     1.28225593     0.00013071     0.00002354     0.00058255
H         0.87607644     0.08690588    -0.54173776     0.00029688     0.00026814    -0.00079926
H         0.78963970    -0.06698244     1.84561744    -0.00157324    -0.00011401    -0.00154284
H        -0.96949340     0.03972423     1.80167592    -0.00101861    -0.00015714     0.00049411
H        -1.02044999     0.12945585    -0.55789939    -0.00089499     0.00043837    -0.00047859
     6
  Step:     6            Position(A)                                  Velocity(au)
C        -0.03213780    -0.00126438     0.04118868     0.00009951    -0.00005821    -0.00056597
N        -0.03522795    -0.06089565     1.28568275     0.00010305     0.00001890     0.00064591
H         0.87793266     0.08843629    -0.54638867     0.00036689     0.00028250    -0.00087214
H         0.78138439    -0.06760324     1.83750588    -0.00137116    -0.00011021    -0.00135826
H        -0.97465564     0.03885376     1.80427275    -0.00083609    -0.00015736     0.00043798
H        -1.02510131     0.13182849    -0.56045264    -0.00077735     0.00041593    -0.00043915
     6
  Step:     7            Position(A)                                  Velocity(au)
C        -0.03162905    -0.00157221     0.03783204     0.00008327    -0.00005256    -0.00063366
N        -0.03473882    -0.06080248     1.28942925     0.00007069     0.00001492     0.00069290
H         0.88015100     0.09004330    -0.55142362     0.00042412     0.00029366    -0.00093093
H         0.77441184    -0.06820646     1.83053285    -0.00110611    -0.00010697    -0.00112732
H        -0.97877891     0.03797658     1.80654004    -0.00064213    -0.00015822     0.00037423
H        -1.02908308     0.13407511    -0.56277657    -0.00065038     0.00039041    -0.00039397
     6
  Step:     8            Position(A)                                  Velocity(au)
C        -0.03120979    -0.00185008     0.03412702     0.00006707    -0.00004714    -0.00068666
N        -0.03444021    -0.06072938     1.29340460     0.00003489     0.00001160     0.00072366
H         0.88265923     0.09170893    -0.55676329     0.00046783     0.00030156    -0.00097517
H         0.76905757    -0.06879530     1.82494263    -0.00078982    -0.00010437    -0.00086011
H        -0.98181168     0.03709053     1.80844328    -0.00044381    -0.00015930     0.00030662
H        -1.03234935     0.13617937    -0.56484319    -0.00051820     0.00036264    -0.00034523
     6
  Step:     9            Position(A)                                  Velocity(au)
C        -0.03087913    -0.00209927     0.03015496     0.00005139    -0.00004206    -0.00072551
N        -0.03434877    -0.06067280     1.29751999    -0.00000284     0.00000892     0.00073951
H         0.88538148     0.09341485    -0.56232636     0.00049807     0.00030644    -0.00100545
H         0.76558142    -0.06937330     1.82091657    -0.00043818    -0.00010247    -0.00056947
H        -0.98374085     0.03619559     1.80996811    -0.00024782    -0.00016030     0.00023873
H        -1.03487675     0.13812949    -0.56663631    -0.00038482     0.00033356    -0.00029509
     6
  Step:    10            Position(A)                                  Velocity(au)
C        -0.03063371    -0.00232159     0.02599360     0.00003660    -0.00003739    -0.00075162
N        -0.03447209    -0.06062941     1.30169502    -0.00004093     0.00000683     0.00074271
H         0.88824290     0.09514431    -0.56803512     0.00051566     0.00030878    -0.00102330
H         0.76414523    -0.06994403     1.81855849    -0.00006930    -0.00010127    -0.00026939
H        -0.98458992     0.03529345     1.81111955    -0.00005984    -0.00016104     0.00017373
H        -1.03666340     0.13991879    -0.56815134    -0.00025369     0.00030417    -0.00024553
     6
  Step:    11            Position(A)                                  Velocity(au)
C        -0.03046807    -0.00251924     0.02171227     0.00002299    -0.00003318    -0.00076703
N        -0.03480857    -0.06059613     1.30586253    -0.00007793     0.00000525     0.00073602
H         0.89117373     0.09688322    -0.57382068     0.00052197     0.00030918    -0.00103084
H         0.76480296    -0.07051088     1.81789059     0.00029877    -0.00010074     0.00002680
H        -0.98441305     0.03438672     1.81191954     0.00011581    -0.00016141     0.00011421
H        -1.03772634     0.14154607    -0.56939420    -0.00012750     0.00027537    -0.00019815
     6
  Step:    12            Position(A)                                  Velocity(au)
C        -0.03037525    -0.00269473     0.01736886     0.00001073    -0.00002948    -0.00077391
N        -0.03534831    -0.06057034     1.30997108    -0.00011257     0.00000412     0.00072225
H         0.89411208     0.09862083    -0.57962627     0.00051853     0.00030826    -0.00103035
H         0.76750467    -0.07107682     1.81885984     0.00064984    -0.00010077     0.00030775
H        -0.98328770     0.03347854     1.81240378     0.00027617    -0.00016133     0.00006215
H        -1.03809709     0.14301511    -0.57037939    -0.00000803     0.00024786    -0.00015413
     6
  Step:    13            Position(A)                                  Velocity(au)
C        -0.03034745    -0.00285072     0.01300898    -0.00000011    -0.00002626    -0.00077421
N        -0.03607449    -0.06054985     1.31398480    -0.00014384     0.00000332     0.00070378
H         0.89700505     0.10034984    -0.58540786     0.00050679     0.00030651    -0.00102376
H         0.77211100    -0.07164413     1.82135152     0.00097051    -0.00010120     0.00056462
H        -0.98130726     0.03257241     1.81261849     0.00041926    -0.00016070     0.00001902
H        -1.03781660     0.14433348    -0.57112756     0.00010376     0.00022209    -0.00011424
     6
  Step:    14            Position(A)                                  Velocity(au)
C        -0.03037653    -0.00298984     0.00866750    -0.00000952    -0.00002350    -0.00076933
N        -0.03696498    -0.06053300     1.31788083    -0.00017094     0.00000279     0.00068232
H         0.89980793     0.10206570    -0.59113225     0.00048787     0.00030424    -0.00101232
H         0.77841225    -0.07221421     1.82520561     0.00125019    -0.00010183     0.00079093
H        -0.97857563     0.03167238     1.81261754     0.00054357    -0.00015934    -0.00001406
H        -1.03693099     0.14551121    -0.57166328     0.00020731     0.00019826    -0.00007889
     6
  Step:    15            Position(A)                                  Velocity(au)
C        -0.03045436    -0.00311459     0.00437157    -0.00001751    -0.00002117    -0.00076007
N        -0.03799364    -0.06051858     1.32164534    -0.00019318     0.00000242     0.00065888
H         0.90248243     0.10376559    -0.59677339     0.00046251     0.00030154    -0.00099661
H         0.78614707    -0.07278734     1.83023144     0.00148081    -0.00010240     0.00098212
H        -0.97520451     0.03078345     1.81246068     0.00064762    -0.00015698    -0.00003613
H        -1.03548905     0.14655933    -0.57201328     0.00030224     0.00017636    -0.00004835
     6
  Step:    16            Position(A)                                  Velocity(au)
C        -0.03057292    -0.00322722     0.00014392    -0.00002410    -0.00001920    -0.00074676
N        -0.03913129    -0.06050581     1.32526965    -0.00021002     0.00000217     0.00063391
H         0.90499456     0.10544719    -0.60230848     0.00043121     0.00029834    -0.00097666
H         0.79501837    -0.07336260     1.83621931     0.00165671    -0.00010269     0.00113524
H        -0.97131307     0.02991201     1.81221242     0.00072979    -0.00015330    -0.00004636
H        -1.03354165     0.14748892    -0.57220550     0.00038800     0.00015632    -0.00002280
     6
  Step:    17            Position(A)                                  Velocity(au)
C        -0.03072431    -0.00332972    -0.00399450    -0.00002928    -0.00001756    -0.00072949
N        -0.04034653    -0.06049429     1.32874714    -0.00022110     0.00000195     0.00060754
H         0.90731328     0.10710790    -0.60771503     0.00039440     0.00029451    -0.00095227
H         0.80470735    -0.07393781     1.84294963     0.00177467    -0.00010247     0.00124885
H        -0.96702854     0.02906607     1.81194132     0.00078842    -0.00014798    -0.00004405
H        -1.03114227     0.14831064    -0.57226868     0.00046390     0.00013806    -0.00000240
     6
  Step:    18            Position(A)                                  Velocity(au)
C        -0.03090069    -0.00342387    -0.00802315    -0.00003306    -0.00001622    -0.00070832
N        -0.04160661    -0.06048393     1.33207139    -0.00022625     0.00000174     0.00057977
H         0.90941010     0.10874443    -0.61296966     0.00035261     0.00028994    -0.00092331
H         0.81488677    -0.07450981     1.85020081     0.00183417    -0.00010158     0.00132309
H        -0.96248634     0.02825528     1.81171925     0.00082209    -0.00014078    -0.00002872
H        -1.02834805     0.14903460    -0.57223236     0.00052914     0.00012152     0.00001267
     6
  Step:    19            Position(A)                                  Velocity(au)
C        -0.03109429    -0.00351121    -0.01192179    -0.00003546    -0.00001513    -0.00068344
N        -0.04287861    -0.06047487     1.33523574    -0.00022556     0.00000147     0.00055066
H         0.91125951     0.11035285    -0.61804835     0.00030649     0.00028458    -0.00088988
H         0.82523463    -0.07507471     1.85775713     0.00183739    -0.00009995     0.00135973
H        -0.95782801     0.02749056     1.81161987     0.00083010    -0.00013152    -0.00000024
H        -1.02522029     0.14967063    -0.57212691     0.00058301     0.00010668     0.00002226
     6
  Step:    20            Position(A)                                  Velocity(au)
C        -0.03129749    -0.00359318    -0.01567117    -0.00003851    -0.00001071    -0.00070709
N        -0.04413068    -0.06046744     1.33823348    -0.00021876    -0.00000173     0.00056022
H         0.91283987     0.11192901    -0.62292778     0.00023791     0.00031315    -0.00080134
H         0.83544792    -0.07562831     1.86541669     0.00176819    -0.00013486     0.00134960
H        -0.95319721     0.02678353     1.81171656     0.00083430    -0.00006742     0.00003012
H        -1.02182396     0.15022845    -0.57198331     0.00065847     0.00004076     0.00006237
     6
  Step:    21            Position(A)                                  Velocity(au)
C        -0.03152532    -0.00363106    -0.01983613    -0.00004191    -0.00000285    -0.00077921
N        -0.04532714    -0.06049425     1.34150619    -0.00020640    -0.00000789     0.00060864
H         0.91392242     0.11385788    -0.62701766     0.00014775     0.00035861    -0.00066052
H         0.84502574    -0.07658416     1.87286294     0.00163132    -0.00018838     0.00129389
H        -0.94848985     0.02673595     1.81195702     0.00083468     0.00003281     0.00005980
H        -1.01785013     0.15012686    -0.57142884     0.00075398    -0.00005939     0.00013407
     6
  Step:    22            Position(A)                                  Velocity(au)
C        -0.03176697    -0.00362515    -0.02439989    -0.00004349     0.00000471    -0.00084411
N        -0.04644283    -0.06055583     1.34505149    -0.00018950    -0.00001399     0.00065301
H         0.91449496     0.11594617    -0.63032693     0.00005768     0.00037910    -0.00052256
H         0.85372207    -0.07773854     1.87991085     0.00145447    -0.00021585     0.00120894
H        -0.94384712     0.02715112     1.81238645     0.00080770     0.00010829     0.00009875
H        -1.01337785     0.14956311    -0.57048143     0.00083176    -0.00013326     0.00019884
     6
  Step:    23            Position(A)                                  Velocity(au)
C        -0.03201321    -0.00357822    -0.02930555    -0.00004345     0.00001168    -0.00089731
N        -0.04745298    -0.06065120     1.34883185    -0.00016846    -0.00001984     0.00068940
H         0.91456944     0.11811072    -0.63287989    -0.00002855     0.00038721    -0.00039024
H         0.86134236    -0.07900564     1.88642512     0.00124741    -0.00023069     0.00110270
H        -0.93942879     0.02795075     1.81306484     0.00075251     0.00017223     0.00014796
H        -1.00851920     0.14863193    -0.56919819     0.00088748    -0.00019220     0.00025183
     6
  Step:    24            Position(A)                                  Velocity(au)
C        -0.03225535    -0.00349388    -0.03448478    -0.00004191     0.00001793    -0.00093770
N        -0.04833620    -0.06077885     1.35279969    -0.00014411    -0.00002537     0.00071678
H         0.91417408     0.12029800    -0.63471291    -0.00010819     0.00038721    -0.00026589
H         0.86774182    -0.08033131     1.89230412     0.00101980    -0.00023730     0.00098155
H        -0.93538960     0.02908687     1.81404940     0.00067147     0.00022862     0.00020635
H        -1.00340342     0.14740297    -0.56765113     0.00091901    -0.00023958     0.00029099
     6
  Step:    25            Position(A)                                  Velocity(au)
C        -0.03248521    -0.00337631    -0.03986551    -0.00003900     0.00002339    -0.00096538
N        -0.04907590    -0.06093694     1.35690396    -0.00011741    -0.00003054     0.00073517
H         0.91335100     0.12247132    -0.63587421    -0.00017905     0.00038179    -0.00015153
H         0.87282698    -0.08167806     1.89747895     0.00078104    -0.00023823     0.00085155
H        -0.93186701     0.03052537     1.81538865     0.00056874     0.00027941     0.00027205
H        -0.99816963     0.14593383    -0.56592114     0.00092557    -0.00027726     0.00031533
     6
  Step:    26            Position(A)                                  Velocity(au)
C        -0.03269536    -0.00323001    -0.04537733    -0.00003486     0.00002803    -0.00098128
N        -0.04966097    -0.06112344     1.36109471    -0.00008938    -0.00003533     0.00074525
H         0.91215381     0.12460584    -0.63642270    -0.00023946     0.00037295    -0.00004880
H         0.87655444    -0.08301931     1.90191232     0.00053971    -0.00023523     0.00071824
H        -0.92897235     0.03223950     1.81711896     0.00044970     0.00032576     0.00034278
H        -0.99296004     0.14427454    -0.56409316     0.00090743    -0.00030657     0.00032462
     6
  Step:    27            Position(A)                                  Velocity(au)
C        -0.03287916    -0.00305953    -0.05095562    -0.00002966     0.00003187    -0.00098684
N        -0.05008600    -0.06133620     1.36532646    -0.00006098    -0.00003974     0.00074813
H         0.91064476     0.12668623    -0.63642571    -0.00028828     0.00036226     0.00004125
H         0.87892665    -0.08433657     1.90559622     0.00030317    -0.00022963     0.00058641
H        -0.92678465     0.03420703     1.81926262     0.00032030     0.00036845     0.00041608
H        -0.98791417     0.14246906    -0.56225237     0.00086573    -0.00032866     0.00031924
     6
  Step:    28            Position(A)                                  Velocity(au)
C        -0.03303099    -0.00286936    -0.05654394    -0.00002359     0.00003495    -0.00098367
N        -0.05035103    -0.06157309     1.36956018    -0.00003311    -0.00004378     0.00074508
H         0.90889181     0.12870499    -0.63595595    -0.00032486     0.00035099     0.00011808
H         0.87998503    -0.08561771     1.90854792     0.00007730    -0.00022245     0.00045996
H        -0.92534797     0.03640868     1.82182718     0.00018657     0.00040800     0.00048950
H        -0.98316386     0.14055561    -0.56048073     0.00080222    -0.00034459     0.00030007
     6
  Step:    29            Position(A)                                  Velocity(au)
C        -0.03314630    -0.00266373    -0.06209517    -0.00001683     0.00003733    -0.00097337
N        -0.05046096    -0.06183202     1.37376409    -0.00000651    -0.00004748     0.00073734
H         0.90696593     0.13066098    -0.63508847    -0.00034889     0.00034011     0.00018162
H         0.87980205    -0.08685570     1.91080506    -0.00013335    -0.00021447     0.00034189
H        -0.92467181     0.03882735     1.82480592     0.00005421     0.00044474     0.00056067
H        -0.97882943     0.13856679    -0.55885421     0.00071908    -0.00035537     0.00026832
     6
  Step:    30            Position(A)                                  Velocity(au)
C        -0.03322168    -0.00244649    -0.06757105    -0.00000959     0.00003907    -0.00095730
N        -0.05042478    -0.06211100     1.37791328     0.00001819    -0.00005085     0.00072594
H         0.90493932     0.13255803    -0.63389839    -0.00036028     0.00033034     0.00023207
H         0.87847430    -0.08804740     1.91242107    -0.00032530    -0.00020626     0.00023443
H        -0.92473378     0.04144708     1.82817884    -0.00007165     0.00047885     0.00062740
H        -0.97501754     0.13652973    -0.55744099     0.00061871    -0.00036191     0.00022542
     6
  Step:    31            Position(A)                                  Velocity(au)
C        -0.03325492    -0.00222109    -0.07294094    -0.00000207     0.00004025    -0.00093657
N        -0.05025487    -0.06240809     1.38198866     0.00004047    -0.00005388     0.00071172
H         0.90288408     0.13440360    -0.63245917    -0.00035911     0.00032217     0.00026985
H         0.87611659    -0.08919259     1.91346110    -0.00049577    -0.00019826     0.00013931
H        -0.92548357     0.04425247     1.83191405    -0.00018659     0.00051032     0.00068773
H        -0.97181970     0.13446645    -0.55630035     0.00050379    -0.00036507     0.00017297
     6
  Step:    32            Position(A)                                  Velocity(au)
C        -0.03324508    -0.00199058    -0.07818050     0.00000550     0.00004092    -0.00091210
N        -0.04996639    -0.06272136     1.38597569     0.00005989    -0.00005658     0.00069533
H         0.90087128     0.13620762    -0.63084155    -0.00034564     0.00031593     0.00029552
H         0.87285820    -0.09029332     1.91399915    -0.00064256    -0.00019078     0.00005780
H        -0.92684749     0.04722802     1.83596943    -0.00028697     0.00053909     0.00074001
H        -0.96931061     0.13239418    -0.55548154     0.00037732    -0.00036562     0.00011278
     6
  Step:    33            Position(A)                                  Velocity(au)
C        -0.03319257    -0.00175762    -0.08327046     0.00001289     0.00004117    -0.00088464
N        -0.04957660    -0.06304889     1.38986325     0.00007614    -0.00005894     0.00067723
H         0.89896969     0.13798157    -0.62911239    -0.00032033     0.00031181     0.00030981
H         0.86883964    -0.09135315     1.91411565    -0.00076383    -0.00018404    -0.00000911
H        -0.92873355     0.05035768     1.84029465    -0.00037001     0.00056501     0.00078295
H        -0.96754660     0.13032583    -0.55502308     0.00024259    -0.00036427     0.00004676
     6
  Step:    34            Position(A)                                  Velocity(au)
C        -0.03309917    -0.00152450    -0.08819571     0.00001985     0.00004105    -0.00085484
N        -0.04910443    -0.06338868     1.39364275     0.00008896    -0.00006096     0.00065779
H         0.89724470     0.13973776    -0.62733414    -0.00028388     0.00030991     0.00031353
H         0.86421069    -0.09237685     1.91389600    -0.00085811    -0.00017822    -0.00006065
H        -0.93103647     0.05362468     1.84483338    -0.00043379     0.00058796     0.00081567
H        -0.96656423     0.12827021    -0.55495213     0.00010314    -0.00036172    -0.00002308
     6
  Step:    35            Position(A)                                  Velocity(au)
C        -0.03296798    -0.00129307    -0.09294481     0.00002614     0.00004064    -0.00082332
N        -0.04856987    -0.06373873     1.39730754     0.00009820    -0.00006262     0.00063732
H         0.89575700     0.14148884    -0.62556411    -0.00023719     0.00031022     0.00030764
H         0.85912830    -0.09337013     1.91342925    -0.00092431    -0.00017349    -0.00009629
H        -0.93364282     0.05701168     1.84952568    -0.00047731     0.00060786     0.00083774
H        -0.96637932     0.12623222    -0.55528427    -0.00003733    -0.00035864    -0.00009471
     6
  Step:    36            Position(A)                                  Velocity(au)
C        -0.03280342    -0.00106478    -0.09750968     0.00003157     0.00004001    -0.00079066
N        -0.04799351    -0.06409707     1.40085251     0.00010382    -0.00006394     0.00061607
H         0.89456142     0.14324717    -0.62385396    -0.00018142     0.00031271     0.00029318
H         0.85375426    -0.09433952     1.91280676    -0.00096187    -0.00016997    -0.00011576
H        -0.93643610     0.06050113     1.85431048    -0.00050041     0.00062473     0.00084919
H        -0.96698658     0.12421302    -0.55602360    -0.00017517    -0.00035567    -0.00016617
     6
  Step:    37            Position(A)                                  Velocity(au)
C        -0.03261102    -0.00084070    -0.10188538     0.00003594     0.00003922    -0.00075741
N        -0.04739591    -0.06446173     1.40427388     0.00010586    -0.00006493     0.00059428
H         0.89370554     0.14502491    -0.62224889    -0.00011794     0.00031732     0.00027135
H         0.84825179    -0.09529210     1.91212030    -0.00097081    -0.00016775    -0.00011914
H        -0.93930134     0.06407587     1.85912806    -0.00050371     0.00063869     0.00085042
H        -0.96836004     0.12221042    -0.55716324    -0.00030686    -0.00035337    -0.00023561
     6
  Step:    38            Position(A)                                  Velocity(au)
C        -0.03239724    -0.00062153    -0.10606998     0.00003912     0.00003834    -0.00072408
N        -0.04679707    -0.06483086     1.40756910     0.00010446    -0.00006560     0.00057215
H         0.89322849     0.14683355    -0.62078712    -0.00004830     0.00032390     0.00024341
H         0.84278205    -0.09623540     1.91146026    -0.00095183    -0.00016687    -0.00010683
H        -0.94212905     0.06771965     1.86392203    -0.00048843     0.00064995     0.00084218
H        -0.97045470     0.12021920    -0.55868645    -0.00042925    -0.00035222    -0.00030141
     6
  Step:    39            Position(A)                                  Velocity(au)
C        -0.03216915    -0.00040763    -0.11006433     0.00004102     0.00003743    -0.00069112
N        -0.04621592    -0.06520275     1.41073671     0.00009985    -0.00006600     0.00054987
H         0.89315991     0.14868359    -0.61949946     0.00002577     0.00033227     0.00021064
H         0.83750026    -0.09717701     1.91091354    -0.00090623    -0.00016739    -0.00007961
H        -0.94481848     0.07141753     1.86864109    -0.00045629     0.00065880     0.00082544
H        -0.97320875     0.11823190    -0.56056785    -0.00053968    -0.00035263    -0.00036223
     6
  Step:    40            Position(A)                                  Velocity(au)
C        -0.03193415    -0.00019898    -0.11387163     0.00004162     0.00003656    -0.00065893
N        -0.04566988    -0.06557585     1.41377627     0.00009233    -0.00006614     0.00052761
H         0.89351936     0.15058437    -0.61840933     0.00010248     0.00034222     0.00017435
H         0.83255215    -0.09812496     1.91056164    -0.00083604    -0.00016934    -0.00003859
H        -0.94727988     0.07515648     1.87323988    -0.00040936     0.00066560     0.00080130
H        -0.97654686     0.11623857    -0.56277549    -0.00063604    -0.00035498    -0.00041707
     6
  Step:    41            Position(A)                                  Velocity(au)
C        -0.03169967     0.00000474    -0.11749713     0.00004093     0.00003576    -0.00062781
N        -0.04517444    -0.06594884     1.41668822     0.00008225    -0.00006608     0.00050551
H         0.89431595     0.15254392    -0.61753275     0.00018001     0.00035351     0.00013582
H         0.82806957    -0.09908722     1.91047824    -0.00074399    -0.00017270     0.00001467
H        -0.94943615     0.07892561     1.87767988    -0.00034990     0.00067073     0.00077098
H        -0.98038337     0.11422771    -0.56527248    -0.00071679    -0.00035948    -0.00046519
     6
  Step:    42            Position(A)                                  Velocity(au)
C        -0.03147286     0.00020410    -0.12094774     0.00003901     0.00003509    -0.00059801
N        -0.04474282    -0.06632060     1.41947392     0.00007004    -0.00006584     0.00048371
H         0.89554827     0.15456879    -0.61687849     0.00025652     0.00036586     0.00009627
H         0.82416652    -0.10007148     1.91072704    -0.00063345    -0.00017740     0.00007829
H        -0.95122361     0.08271637     1.88192967    -0.00028026     0.00067461     0.00073570
H        -0.98462586     0.11218685    -0.56801870    -0.00078098    -0.00036626    -0.00050615
     6
  Step:    43            Position(A)                                  Velocity(au)
C        -0.03126032     0.00039988    -0.12423157     0.00003598     0.00003457    -0.00056970
N        -0.04438570    -0.06669027     1.42213548     0.00005615    -0.00006547     0.00046233
H         0.89720472     0.15666398    -0.61644861     0.00033025     0.00037899     0.00005684
H         0.82093597    -0.10108495     1.91135987    -0.00050835    -0.00018333     0.00015003
H        -0.95259229     0.08652266     1.88596493    -0.00020283     0.00067765     0.00069668
H        -0.98917830     0.11010309    -0.57097243    -0.00082818    -0.00037537    -0.00053976
     6
  Step:    44            Position(A)                                  Velocity(au)
C        -0.03106800     0.00059302    -0.12735751     0.00003197     0.00003422    -0.00054296
N        -0.04411103    -0.06705726     1.42467572     0.00004108    -0.00006502     0.00044148
H         0.89926399     0.15883290    -0.61623897     0.00039954     0.00039262     0.00001857
H         0.81844700    -0.10213413     1.91241511    -0.00037304    -0.00019035     0.00022744
H        -0.95350567     0.09034081     1.88976816    -0.00011991     0.00068028     0.00065506
H        -0.99394394     0.10796349    -0.57409169    -0.00085843    -0.00038677    -0.00056606
     6