 Fermi distribution function

Calculation with static geometry


********************************************************************************
 iSCC Total electronic   Diff electronic      SCC error    
   11   -0.54154675E+01   -0.12345680E-12    0.50202402E-08
********************************************************************************

 Total charge:     1.00000000

 Atomic gross charges (e)
 Atom           Charge
    1       0.26569309
    2      -0.15426233
    3       0.14456996
    4       0.31315742
    5       0.27267833
    6       0.15816352

Nr. of electrons (up):     12.00000000
Atom populations (up)
 Atom       Population
    1       3.73430691
    2       5.15426233
    3       0.85543004
    4       0.68684258
    5       0.72732167
    6       0.84183648

l-shell populations (up)
 Atom Sh.   l       Population
    1   1   0       1.28000977
    1   2   1       2.45429714
    2   1   0       1.40502828
    2   2   1       3.74923404
    3   1   0       0.85543004
    4   1   0       0.68684258
    5   1   0       0.72732167
    6   1   0       0.84183648

Orbital populations (up)
 Atom Sh.   l   m       Population  Label
    1   1   0   0       1.28000977  s
    1   2   1  -1       0.54354353  p_y
    1   2   1   0       0.91225964  p_z
    1   2   1   1       0.99849397  p_x
    2   1   0   0       1.40502828  s
    2   2   1  -1       1.28028312  p_y
    2   2   1   0       1.13127241  p_z
    2   2   1   1       1.33767851  p_x
    3   1   0   0       0.85543004  s
    4   1   0   0       0.68684258  s
    5   1   0   0       0.72732167  s
    6   1   0   0       0.84183648  s

Fermi level:                        -0.4836270488 H          -13.1602 eV
Band energy:                        -8.9368072620 H         -243.1829 eV
TS:                                  0.0000000000 H            0.0000 eV
Band free energy (E-TS):            -8.9368072620 H         -243.1829 eV
Extrapolated E(0K):                 -8.9368072620 H         -243.1829 eV
Input / Output electrons (q):     12.0000000000     12.0000000000

Energy H0:                          -5.5503821166 H         -151.0336 eV
Energy SCC:                          0.1349145686 H            3.6712 eV
Total Electronic energy:            -5.4154675480 H         -147.3624 eV
Repulsive energy:                    0.2254206755 H            6.1340 eV
Total energy:                       -5.1900468725 H         -141.2284 eV
Extrapolated to 0:                  -5.1900468725 H         -141.2284 eV
Total Mermin free energy:           -5.1900468725 H         -141.2284 eV
Force related energy:               -5.1900468725 H         -141.2284 eV

SCC converged

Excitation Energy:                   0.0939190876 H            2.5557 eV

Total Forces
    1     -0.019214459246     -0.005495572280     -0.055889863886
    2      0.005310388930     -0.010920125233      0.050365251408
    3      0.004551484685      0.016172226662      0.001443104647
    4     -0.008405739416     -0.006384128408      0.006813706769
    5      0.011320873848      0.013270571804      0.000768660427
    6      0.006437451200     -0.006642972545     -0.003500859365

Maximal derivative component:        0.558899E-01 au


