|===============================================================================
|
|  DFTB+ release 20.1
|
|  Copyright (C) 2006 - 2020  DFTB+ developers group
|
|===============================================================================
|
|  When publishing results obtained with DFTB+, please cite the following
|  reference:
|
|  * DFTB+, a software package for efficient approximate density functional
|    theory based atomistic simulations, J. Chem. Phys. 152, 124101 (2020).
|    [doi: 10.1063/1.5143190]
|
|  You should also cite additional publications crediting the parametrization
|  data you use. Please consult the documentation of the SK-files for the
|  references.
|
|===============================================================================

Reading input file 'dftb_in.hsd'
Parser version: 8

--------------------------------------------------------------------------------
Reading SK-files:
Done.


Processed input in HSD format written to 'dftb_pin.hsd'

Starting initialization...
--------------------------------------------------------------------------------
WARNING!
-> Excited state forces are not implemented yet for fractional occupations, kT=  0.3158E-02K
OpenMP threads:              1
Chosen random seed:          435695661
Mode:                        Static calculation
Self consistent charges:     Yes
SCC-tolerance:                 0.100000E-05
Max. scc iterations:                    100
Shell resolved Hubbard:      No
Spin polarisation:           No
Nr. of up electrons:             6.000000
Nr. of down electrons:           6.000000
Periodic boundaries:         No
Electronic solver:           Relatively robust
Mixer:                       Broyden mixer
Mixing parameter:                  0.200000
Maximal SCC-cycles:                     100
Nr. of chrg. vec. in memory:              0
Electronic temperature:        0.100000E-07 H      0.272114E-06 eV
Initial charges:             Set automatically (system chrg:   0.100E+01)
Included shells:             C:  s, p
                             N:  s, p
                             H:  s
Extra options:
                             Mulliken analysis
                             Force calculation
Force type                   original
                             Eigenvector printing

--------------------------------------------------------------------------------

***  Geometry step: 0

 iSCC Total electronic   Diff electronic      SCC error    
    1   -0.52685554E+01    0.00000000E+00    0.10827631E+01
    2   -0.52895627E+01   -0.21007305E-01    0.68018544E+00
    3   -0.52966451E+01   -0.70824473E-02    0.28645483E+00
    4   -0.49665182E+01    0.33012693E+00    0.18993169E+01
    5   -0.53006988E+01   -0.33418062E+00    0.67582667E-01
    6   -0.53010218E+01   -0.32301771E-03    0.37990078E-01
    7   -0.53010231E+01   -0.12802130E-05    0.36149104E-01
    8   -0.53011121E+01   -0.89009759E-04    0.94775502E-02
    9   -0.53011143E+01   -0.21981202E-05    0.78348103E-02
   10   -0.53011191E+01   -0.47348149E-05    0.82331216E-03
   11   -0.53011191E+01   -0.48048717E-07    0.25201632E-03
   12   -0.53011191E+01   -0.49707163E-08    0.16066461E-05
   13   -0.53011191E+01   -0.17763568E-12    0.20495877E-06
>> Charges saved for restart in charges.bin

Total Energy:                       -5.0579976901 H         -137.6351 eV
Extrapolated to 0:                  -5.1598885399 H         -140.4077 eV
Total Mermin free energy:           -5.0579976901 H         -137.6351 eV
Force related energy:               -5.1598885399 H         -140.4077 eV

--------------------------------------------------------------------------------
DFTB+ running times                          cpu [s]             wall clock [s]
--------------------------------------------------------------------------------
SCC                                    +     0.01  ( 54.4%)      0.05  ( 66.2%)
Post-SCC processing                    +     0.01  ( 40.1%)      0.02  ( 28.2%)
--------------------------------------------------------------------------------
Missing                                +     0.00  (  5.5%)      0.00  (  5.6%)
Total                                  =     0.02  (100.0%)      0.07  (100.0%)
--------------------------------------------------------------------------------
