     6
  Step:   120            Position(A)                                  Velocity(au)
C        -0.05510175     0.06742610     0.01111843    -0.00016937    -0.00001587    -0.00025543
N        -0.03181845    -0.03970206     1.31725838     0.00009502    -0.00009383     0.00014922
H         0.84664742     0.20364118    -0.65503257     0.00030317     0.00164624     0.00059720
H         0.61264036    -0.74473811     1.77293396    -0.00094605    -0.00085209     0.00009056
H        -0.84490583     0.29715960     1.88789402     0.00055297     0.00177210     0.00005465
H        -0.72855874    -0.67758852    -0.55132815     0.00078769    -0.00107331     0.00022767
