     6
  Step:     0            Position(A)                                  Velocity(au)
C        -0.04276078    -0.00121782     0.01147429     0.00006418    -0.00009814     0.00029223
N        -0.04638831    -0.03916636     1.29487511     0.00021674     0.00009902    -0.00022964
H         0.95128479     0.07101496    -0.48719796    -0.00044515     0.00007070    -0.00006937
H         0.84610341    -0.20548524     1.84986619    -0.00191868     0.00000229    -0.00074854
H        -0.91363831    -0.10129644     1.90881054    -0.00102359    -0.00069650     0.00061500
H        -0.94251919     0.12476960    -0.51020555    -0.00038918     0.00041687    -0.00008826
     6
  Step:     1            Position(A)                                  Velocity(au)
C        -0.04235724    -0.00174645     0.01271001     0.00008239    -0.00009497     0.00015825
N        -0.04519811    -0.03863455     1.29398782     0.00021609     0.00009579    -0.00009412
H         0.94872446     0.07138403    -0.48760132    -0.00048718     0.00006342    -0.00007942
H         0.83538854    -0.20546254     1.84560221    -0.00197833     0.00000143    -0.00079895
H        -0.91906074    -0.10511070     1.91192860    -0.00094712    -0.00069797     0.00051617
H        -0.94516926     0.12710077    -0.51105174    -0.00057189     0.00043362    -0.00021564
     6
  Step:     2            Position(A)                                  Velocity(au)
C        -0.04185943    -0.00225682     0.01320557     0.00009840    -0.00009143     0.00002233
N        -0.04402427    -0.03811842     1.29384538     0.00021060     0.00009327     0.00004171
H         0.94595495     0.07170879    -0.48806682    -0.00052069     0.00005455    -0.00009235
H         0.82446017    -0.20546958     1.84112554    -0.00199332    -0.00000886    -0.00082409
H        -0.92399999    -0.10893230     1.91445751    -0.00084846    -0.00069874     0.00040107
H        -0.94877573     0.12951349    -0.51256466    -0.00073661     0.00044636    -0.00033043
     6
  Step:     3            Position(A)                                  Velocity(au)
C        -0.04128044    -0.00274701     0.01295436     0.00011185    -0.00008759    -0.00011389
N        -0.04289341    -0.03761386     1.29444428     0.00020024     0.00009152     0.00017582
H         0.94302641     0.07198099    -0.48861197    -0.00054447     0.00004438    -0.00010873
H         0.81357503    -0.20555955     1.83658398    -0.00195939    -0.00002899    -0.00082064
H        -0.92834575    -0.11275724     1.91631767    -0.00073169    -0.00069862     0.00027324
H        -0.95323016     0.13198543    -0.51466778    -0.00087987     0.00045509    -0.00043013
     6
  Step:     4            Position(A)                                  Velocity(au)
C        -0.04063503    -0.00321558     0.01195886     0.00012245    -0.00008350    -0.00024871
N        -0.04183227    -0.03711662     1.29577003     0.00018499     0.00009052     0.00030620
H         0.93999477     0.07219464    -0.48925709    -0.00055751     0.00003338    -0.00012900
H         0.80301136    -0.20578697     1.83214232    -0.00187284    -0.00005909    -0.00078571
H        -0.93200955    -0.11657984     1.91744859    -0.00060060    -0.00069713     0.00013613
H        -0.95840731     0.13449517    -0.51727316    -0.00099889     0.00045995    -0.00051305
     6
  Step:     5            Position(A)                                  Velocity(au)
C        -0.03993942    -0.00366146     0.01023073     0.00012996    -0.00007924    -0.00038031
N        -0.04086750    -0.03662260     1.29779758     0.00016492     0.00009023     0.00043087
H         0.93692101     0.07234655    -0.49002471    -0.00055885     0.00002205    -0.00015347
H         0.79306519    -0.20620666     1.82797954    -0.00173103    -0.00009910    -0.00071720
H        -0.93492301    -0.12039164     1.91780843    -0.00045885    -0.00069368    -0.00000679
H        -0.96416921     0.13702248    -0.52028629    -0.00109167     0.00046109    -0.00057837
     6
  Step:     6            Position(A)                                  Velocity(au)
C        -0.03921090    -0.00408389     0.00779143     0.00013420    -0.00007483    -0.00050673
N        -0.04002504    -0.03612794     1.30049149     0.00014027     0.00009058     0.00054783
H         0.93387091     0.07243623    -0.49093886    -0.00054762     0.00001082    -0.00018230
H         0.78404271    -0.20687288     1.82428326    -0.00153330    -0.00014873    -0.00061440
H        -0.93703763    -0.12418120     1.91737416    -0.00031024    -0.00068773    -0.00015192
H        -0.97036980     0.13954782    -0.52361089    -0.00115706     0.00045853    -0.00062611
     6
  Step:     7            Position(A)                                  Velocity(au)
C        -0.03846755    -0.00448219     0.00467296     0.00013505    -0.00007028    -0.00062586
N        -0.03932910    -0.03562913     1.30380613     0.00011149     0.00009149     0.00065514
H         0.93091482     0.07246525    -0.49202420    -0.00052304     0.00000004    -0.00021547
H         0.77624819    -0.20783790     1.82124092    -0.00128178    -0.00020731    -0.00047855
H        -0.93832569    -0.12793459     1.91614222    -0.00015884    -0.00067884    -0.00029544
H        -0.97685968     0.14205152    -0.52715337    -0.00119474     0.00045214    -0.00065701
     6
  Step:     8            Position(A)                                  Velocity(au)
C        -0.03772787    -0.00485568     0.00091853     0.00013247    -0.00006558    -0.00073546
N        -0.03880076    -0.03512323     1.30768600     0.00007934     0.00009283     0.00075093
H         0.92812706     0.07243669    -0.49330506    -0.00048460    -0.00001006    -0.00025273
H         0.76996673    -0.20914946     1.81902804    -0.00098220    -0.00027356    -0.00031329
H        -0.93878190    -0.13163599     1.91412973    -0.00000909    -0.00066673    -0.00043330
H        -0.98348993     0.14451306    -0.53082588    -0.00120508     0.00044175    -0.00067224
     6
  Step:     9            Position(A)                                  Velocity(au)
C        -0.03701040    -0.00520354    -0.00341700     0.00012652    -0.00006070    -0.00083331
N        -0.03845639    -0.03460804     1.31206628     0.00004488     0.00009443     0.00083348
H         0.92558431     0.07235462    -0.49480418    -0.00043218    -0.00001932    -0.00029360
H         0.76544417    -0.21084704     1.81779477    -0.00064416    -0.00034546    -0.00012479
H        -0.93842572    -0.13526850     1.91137594     0.00013410    -0.00065126    -0.00056121
H        -0.99011532     0.14691073    -0.53454785    -0.00118902     0.00042715    -0.00067313
     6
  Step:    10            Position(A)                                  Velocity(au)
C        -0.03633321    -0.00552483    -0.00826716     0.00011737    -0.00005565    -0.00091728
N        -0.03830603    -0.03408236     1.31687360     0.00000945     0.00009608     0.00090129
H         0.92336313     0.07222377    -0.49654146    -0.00036626    -0.00002762    -0.00033735
H         0.76286608    -0.21295747     1.81765250    -0.00028107    -0.00042015     0.00007845
H        -0.93730373    -0.13881496     1.90794349     0.00026550    -0.00063252    -0.00067473
H        -0.99659661     0.14922164    -0.53824583    -0.00114793     0.00040820    -0.00066083
     6
  Step:    11            Position(A)                                  Velocity(au)
C        -0.03571330    -0.00581853    -0.01355444     0.00010530    -0.00005041    -0.00098554
N        -0.03835198    -0.03354623     1.32202706    -0.00002541     0.00009755     0.00095324
H         0.92153648     0.07204938    -0.49853251    -0.00028809    -0.00003489    -0.00038304
H         0.76233789    -0.21549042     1.81866180     0.00009054    -0.00049411     0.00028610
H        -0.93549146    -0.14225893     1.90391903     0.00037975    -0.00061082    -0.00076959
H        -1.00280189     0.15142200    -0.54185108    -0.00108373     0.00038487    -0.00063638
     6
  Step:    12            Position(A)                                  Velocity(au)
C        -0.03516594    -0.00608362    -0.01919204     0.00009075    -0.00004502    -0.00103686
N        -0.03858775    -0.03300103     1.32744042    -0.00005804     0.00009860     0.00098882
H         0.92016962     0.07183699    -0.50078749    -0.00019966    -0.00004110    -0.00042954
H         0.76386977    -0.21843483     1.82082399     0.00045242    -0.00056344     0.00048700
H        -0.93309409    -0.14558599     1.89941240     0.00047165    -0.00058676    -0.00084198
H        -1.00861001     0.15348803    -0.54530026    -0.00099925     0.00035743    -0.00060132
     6
  Step:    13            Position(A)                                  Velocity(au)
C        -0.03470387    -0.00631923    -0.02508719     0.00007430    -0.00003953    -0.00107096
N        -0.03899752    -0.03244949     1.33302549    -0.00008683     0.00009905     0.00100844
H         0.91931571     0.07159223    -0.50331019    -0.00010375    -0.00004627    -0.00047573
H         0.76737004    -0.22175740     1.82407854     0.00078663    -0.00062438     0.00067049
H        -0.93024538    -0.14878534     1.89455392     0.00053674    -0.00056134    -0.00088908
H        -1.01391624     0.15539765    -0.54853936    -0.00089833     0.00032647    -0.00055776
     6
  Step:    14            Position(A)                                  Velocity(au)
C        -0.03433661    -0.00652480    -0.03114615     0.00005661    -0.00003402    -0.00108870
N        -0.03955691    -0.03189541     1.33869664    -0.00011047     0.00009879     0.00101346
H         0.91901159     0.07132049    -0.50609766    -0.00000365    -0.00005051    -0.00052059
H         0.77265023    -0.22540418     1.82830804     0.00107797    -0.00067396     0.00082791
H        -0.92710294    -0.15185168     1.88948848     0.00057195    -0.00053587    -0.00090961
H        -1.01863725     0.15713206    -0.55152597    -0.00078564     0.00029285    -0.00050823
     6
  Step:    15            Position(A)                                  Velocity(au)
C        -0.03406986    -0.00670020    -0.03728037     0.00003839    -0.00002859    -0.00109226
N        -0.04023475    -0.03134311     1.34437603    -0.00012812     0.00009782     0.00100635
H         0.91927481     0.07102653    -0.50914066     0.00009716    -0.00005401    -0.00056336
H         0.77944299    -0.22930553     1.83335091     0.00131603    -0.00071049     0.00095378
H        -0.92383964    -0.15478693     1.88436652     0.00057612    -0.00051196    -0.00090419
H        -1.02271524     0.15867745    -0.55423138    -0.00066625     0.00025767    -0.00045550
     6
  Step:    16            Position(A)                                  Velocity(au)
C        -0.03390543    -0.00684585    -0.04341352     0.00002029    -0.00002332    -0.00108488
N        -0.04099590    -0.03079677     1.34999915    -0.00013949     0.00009628     0.00099034
H         0.92010281     0.07071395    -0.51242489     0.00019550    -0.00005704    -0.00060360
H         0.78743084    -0.23338385     1.83902014     0.00149631    -0.00073380     0.00104631
H        -0.92063248    -0.15760160     1.87933339     0.00054994    -0.00049132    -0.00087512
H        -1.02612003     0.16002604    -0.55664174    -0.00054504     0.00022209    -0.00040228
     6
  Step:    17            Position(A)                                  Velocity(au)
C        -0.03384155    -0.00696265    -0.04948736     0.00000282    -0.00001830    -0.00107032
N        -0.04180430    -0.03025977     1.35551923    -0.00014475     0.00009436     0.00096896
H         0.92147456     0.07038476    -0.51593234     0.00028891    -0.00005993    -0.00064129
H         0.79627937    -0.23756218     1.84512389     0.00161968    -0.00074493     0.00110691
H        -0.91765182    -0.16031520     1.87451974     0.00049548    -0.00047551    -0.00082577
H        -1.02884802     0.16117639    -0.55875775    -0.00042612     0.00018709    -0.00035091
     6
  Step:    18            Position(A)                                  Velocity(au)
C        -0.03387366    -0.00705190    -0.05546429    -0.00001367    -0.00001354    -0.00105202
N        -0.04262565    -0.02973432     1.36090867    -0.00014439     0.00009227     0.00094532
H         0.92335565     0.07003924    -0.51964522     0.00037580    -0.00006299    -0.00067680
H         0.80566681    -0.24177108     1.85148289     0.00169055    -0.00074559     0.00113897
H        -0.91505391    -0.16295539     1.87003598     0.00041545    -0.00046570    -0.00075969
H        -1.03091768     0.16213245    -0.56059263    -0.00031236     0.00015334    -0.00030312
     6
  Step:    19            Position(A)                                  Velocity(au)
C        -0.03399533    -0.00711504    -0.06132550    -0.00002895    -0.00000904    -0.00103244
N        -0.04342913    -0.02922144     1.36615669    -0.00013903     0.00009016     0.00092157
H         0.92570335     0.06967600    -0.52354818     0.00045511    -0.00006647    -0.00071039
H         0.81530275    -0.24595212     1.85794051     0.00171466    -0.00073743     0.00114642
H        -0.91297686    -0.16555562     1.86597115     0.00031275    -0.00046245    -0.00067997
H        -1.03236291     0.16290186    -0.56216868    -0.00020548     0.00012117    -0.00025995
     6
  Step:    20            Position(A)                                  Velocity(au)
C        -0.03419898    -0.00715347    -0.06706563    -0.00004288    -0.00000476    -0.00101287
N        -0.04418789    -0.02872125     1.37126415    -0.00012926     0.00008808     0.00089876
H         0.92846964     0.06929232    -0.52762768     0.00052590    -0.00007056    -0.00074191
H         0.82493405    -0.25005745     1.86436492     0.00169741    -0.00072173     0.00113272
H        -0.91153956    -0.16815180     1.86239534     0.00019038    -0.00046567    -0.00058913
H        -1.03322665     0.16349399    -0.56351363    -0.00010642     0.00009064    -0.00022191
     6
  Step:    21            Position(A)                                  Velocity(au)
C        -0.03447630    -0.00716842    -0.07268610    -0.00005531    -0.00000067    -0.00099355
N        -0.04487894    -0.02823350     1.37623747    -0.00011565     0.00008604     0.00087705
H         0.93160204     0.06888460    -0.53186965     0.00058710    -0.00007534    -0.00077074
H         0.83434135    -0.25404727     1.87064546     0.00164325    -0.00069929     0.00110061
H        -0.91084150    -0.17077873     1.85936325     0.00005172    -0.00047474    -0.00048938
H        -1.03355651     0.16391852    -0.56465773    -0.00001576     0.00006169    -0.00018922
     6
  Step:    22            Position(A)                                  Velocity(au)
C        -0.03481826    -0.00716096    -0.07818965    -0.00006608     0.00000326    -0.00097418
N        -0.04548279    -0.02775795     1.38108386    -0.00009880     0.00008398     0.00085612
H         0.93504297     0.06844877    -0.53625705     0.00063751    -0.00008084    -0.00079596
H         0.84333230    -0.25788690     1.87668763     0.00155606    -0.00067068     0.00105229
H        -0.91096053    -0.17346708     1.85691606    -0.00009908    -0.00048859    -0.00038302
H        -1.03340306     0.16418473    -0.56563216     0.00006589     0.00003425    -0.00016196
     6
  Step:    23            Position(A)                                  Velocity(au)
C        -0.03521504    -0.00713196    -0.08357717    -0.00007502     0.00000705    -0.00095424
N        -0.04598348    -0.02729466     1.38580869    -0.00007934     0.00008183     0.00083551
H         0.93872926     0.06798079    -0.54076829     0.00067599    -0.00008702    -0.00081662
H         0.85173779    -0.26154535     1.88240980     0.00143966    -0.00063647     0.00098981
H        -0.91194923    -0.17624105     1.85508114    -0.00025698    -0.00050591    -0.00027270
H        -1.03281990     0.16430139    -0.56646839     0.00013779     0.00000826    -0.00014022
     6
  Step:    24            Position(A)                                  Velocity(au)
C        -0.03565605    -0.00708228    -0.08884665    -0.00008197     0.00001068    -0.00093330
N        -0.04636883    -0.02684406     1.39041479    -0.00005799     0.00007954     0.00081484
H         0.94259248     0.06747691    -0.54537704     0.00070166    -0.00009380    -0.00083192
H         0.85941039    -0.26499505     1.88774186     0.00129809    -0.00059738     0.00091533
H        -0.91383052    -0.17911707     1.85387053    -0.00041619    -0.00052525    -0.00016143
H        -1.03186419     0.16427703    -0.56719815     0.00019916    -0.00001624    -0.00012411
     6
  Step:    25            Position(A)                                  Velocity(au)
C        -0.03612994    -0.00701272    -0.09399347    -0.00008683     0.00001417    -0.00091106
N        -0.04663070    -0.02640694     1.39490289    -0.00003553     0.00007705     0.00079390
H         0.94656034     0.06693392    -0.55005307     0.00071400    -0.00010106    -0.00084131
H         0.86622543    -0.26821257     1.89262555     0.00113591    -0.00055433     0.00083118
H        -0.91659422    -0.18210317     1.85327949    -0.00057058    -0.00054510    -0.00005239
H        -1.03059716     0.16412016    -0.56785353     0.00024920    -0.00003922    -0.00011371
     6
  Step:    26            Position(A)                                  Velocity(au)
C        -0.03662486    -0.00692414    -0.09901137    -0.00008952     0.00001750    -0.00088739
N        -0.04676527    -0.02598436     1.39927244    -0.00001275     0.00007434     0.00077263
H         0.95055859     0.06634936    -0.55476363     0.00071289    -0.00010867    -0.00084456
H         0.87208377    -0.27117971     1.89701545     0.00095797    -0.00050839     0.00073985
H        -0.92019650    -0.18519882     1.85328601    -0.00071413    -0.00056401     0.00005128
H        -1.02908383     0.16383945    -0.56846686     0.00028727    -0.00006064    -0.00010909
     6
  Step:    27            Position(A)                                  Velocity(au)
C        -0.03712867    -0.00681746    -0.10389333    -0.00009003     0.00002066    -0.00086235
N        -0.04677296    -0.02557754     1.40352240     0.00000960     0.00007140     0.00075107
H         0.95451342     0.06572162    -0.55947503     0.00069869    -0.00011645    -0.00084169
H         0.87691263    -0.27388422     1.90087937     0.00076922    -0.00046076     0.00064382
H        -0.92456112    -0.18839535     1.85385160    -0.00084135    -0.00058062     0.00014676
H        -1.02739230     0.16344365    -0.56907054     0.00031294    -0.00008049    -0.00011022
     6
  Step:    28            Position(A)                                  Velocity(au)
C        -0.03762931    -0.00669366    -0.10863246    -0.00008840     0.00002363    -0.00083607
N        -0.04665821    -0.02518781     1.40765195     0.00003083     0.00006821     0.00072935
H         0.95835376     0.06505010    -0.56415420     0.00067213    -0.00012423    -0.00083300
H         0.88066576    -0.27632031     1.90419839     0.00057444    -0.00041265     0.00054549
H        -0.92958325    -0.19167673     1.85492341    -0.00094761    -0.00059374     0.00023172
H        -1.02559241     0.16294144    -0.56969654     0.00032603    -0.00009881    -0.00011698
     6
  Step:    29            Position(A)                                  Velocity(au)
C        -0.03811506    -0.00655377    -0.11322256    -0.00008472     0.00002642    -0.00080876
N        -0.04642896    -0.02481648     1.41166086     0.00005037     0.00006479     0.00070765
H         0.96201336     0.06433536    -0.56877000     0.00063427    -0.00013180    -0.00081897
H         0.88332252    -0.27848875     1.90696624     0.00037817    -0.00036527     0.00044712
H        -0.93513502    -0.19502059     1.85643725    -0.00102946    -0.00060238     0.00030445
H        -1.02375431     0.16234112    -0.57037590     0.00032666    -0.00011569    -0.00012918
     6
  Step:    30            Position(A)                                  Velocity(au)
C        -0.03857485    -0.00639883    -0.11765856    -0.00007914     0.00002901    -0.00078069
N        -0.04609606    -0.02446475     1.41554962     0.00006776     0.00006117     0.00068613
H         0.96543242     0.06357917    -0.57329423     0.00058639    -0.00013892    -0.00080024
H         0.88488631    -0.28039686     1.90918836     0.00018459    -0.00031980     0.00035073
H        -0.94107238    -0.19839949     1.85832123    -0.00108467    -0.00060576     0.00036393
H        -1.02194675     0.16165025    -0.57113819     0.00031524    -0.00013133    -0.00014648
     6
  Step:    31            Position(A)                                  Velocity(au)
C        -0.03899847    -0.00622993    -0.12193671    -0.00007183     0.00003142    -0.00075212
N        -0.04567265    -0.02413367     1.41931955     0.00008264     0.00005740     0.00066494
H         0.96855866     0.06278475    -0.57770237     0.00052992    -0.00014532    -0.00077754
H         0.88538290    -0.28205840     1.91088109    -0.00000251    -0.00027739     0.00025818
H        -0.94724225    -0.20178218     1.86049949    -0.00111231    -0.00060335     0.00040979
H        -1.02023560     0.16087524    -0.57201095     0.00029242    -0.00014596    -0.00016850
     6
  Step:    32            Position(A)                                  Velocity(au)
C        -0.03937671    -0.00604810    -0.12605470    -0.00006298     0.00003364    -0.00072330
N        -0.04517349    -0.02382401     1.42297262     0.00009479     0.00005352     0.00064419
H         0.97134807     0.06195690    -0.58197412     0.00046638    -0.00015070    -0.00075165
H         0.88485835    -0.28349351     1.91207050    -0.00017970    -0.00023918     0.00017110
H        -0.95348947    -0.20513491     1.86289583    -0.00111256    -0.00059478     0.00044224
H        -1.01868239     0.16002083    -0.57301924     0.00025911    -0.00015995    -0.00019476
     6
  Step:    33            Position(A)                                  Velocity(au)
C        -0.03970159    -0.00585436    -0.13001153    -0.00005282     0.00003569    -0.00069443
N        -0.04461439    -0.02353620     1.42651121     0.00010407     0.00004960     0.00062391
H         0.97376528     0.06110237    -0.58609362     0.00039733    -0.00015466    -0.00072339
H         0.88337679    -0.28472855     1.91279119    -0.00034399    -0.00020628     0.00009088
H        -0.95966263    -0.20842223     1.86543661    -0.00108657    -0.00057982     0.00046201
H        -1.01734296     0.15908956    -0.57418524     0.00021641    -0.00017375    -0.00022472
     6
  Step:    34            Position(A)                                  Velocity(au)
C        -0.03996634    -0.00564970    -0.13380695    -0.00004155     0.00003756    -0.00066561
N        -0.04401169    -0.02327032     1.42993760     0.00011042     0.00004571     0.00060404
H         0.97578362     0.06023039    -0.59004967     0.00032429    -0.00015667    -0.00069362
H         0.88101819    -0.28579631     1.91308504    -0.00049279    -0.00017988     0.00001870
H        -0.96561927    -0.21160764     1.86805339    -0.00103630    -0.00055826     0.00047020
H        -1.01626652     0.15808114    -0.57552794     0.00016554    -0.00018796    -0.00025783
     6
  Step:    35            Position(A)                                  Velocity(au)
C        -0.04016543    -0.00543510    -0.13744112    -0.00002941     0.00003926    -0.00063686
N        -0.04338185    -0.02302602     1.43325356     0.00011385     0.00004192     0.00058446
H         0.97738505     0.05935365    -0.59383590     0.00024878    -0.00015595    -0.00066322
H         0.87787618    -0.28673635     1.91299994    -0.00062385    -0.00016129    -0.00004449
H        -0.97122992    -0.21465361     1.87068504    -0.00096431    -0.00052984     0.00046828
H        -1.01549524     0.15699157    -0.57706322     0.00010771    -0.00020333    -0.00029358
     6
  Step:    36            Position(A)                                  Velocity(au)
C        -0.04029454    -0.00521158    -0.14091428    -0.00001657     0.00004075    -0.00060816
N        -0.04274112    -0.02280247     1.43646012     0.00011442     0.00003833     0.00056502
H         0.97855996     0.05849006    -0.59745115     0.00017231    -0.00015125    -0.00063321
H         0.87405607    -0.28759628     1.91258856    -0.00073529    -0.00015218    -0.00009799
H        -0.97638085    -0.21752063     1.87327929    -0.00087357    -0.00049397     0.00045795
H        -1.01506445     0.15581205    -0.57880427     0.00004399    -0.00022089    -0.00033163
     6
  Step:    37            Position(A)                                  Velocity(au)
C        -0.04035026    -0.00498041    -0.14422620    -0.00000316     0.00004196    -0.00057911
N        -0.04210531    -0.02259838     1.43955734     0.00011221     0.00003502     0.00054532
H         0.97930745     0.05766621    -0.60090056     0.00009660    -0.00014032    -0.00060503
H         0.86967267    -0.28843422     1.91190672    -0.00082564    -0.00015493    -0.00014143
H        -0.98097617    -0.22016477     1.87579427    -0.00076743    -0.00044935     0.00044127
H        -1.01500444     0.15452712    -0.58076312    -0.00002519    -0.00024210    -0.00037216
     6
  Step:    38            Position(A)                                  Velocity(au)
C        -0.04032981    -0.00474357    -0.14737308     0.00001076     0.00004260    -0.00054817
N        -0.04148959    -0.02241189     1.44254210     0.00010739     0.00003213     0.00052420
H         0.97963731     0.05692507    -0.60419902     0.00002442    -0.00011862    -0.00058149
H         0.86484767    -0.28932423     1.91101123    -0.00089394    -0.00017344    -0.00017486
H        -0.98494004    -0.22253224     1.87820080    -0.00064982    -0.00039321     0.00042091
H        -1.01534541     0.15311191    -0.58295493    -0.00010111    -0.00026886    -0.00041698
     6
  Step:    39            Position(A)                                  Velocity(au)
C        -0.04023033    -0.00450543    -0.15033748     0.00002511     0.00004176    -0.00050977
N        -0.04090813    -0.02224024     1.44540133     0.00010020     0.00002992     0.00049770
H         0.97957973     0.05634383    -0.60738323    -0.00003653    -0.00007720    -0.00057043
H         0.85970668    -0.29036776     1.90995728    -0.00093948    -0.00021340    -0.00019830
H        -0.98822059    -0.22454841     1.88048672    -0.00052587    -0.00032146     0.00040038
H        -1.01613168     0.15152974    -0.58541181    -0.00018973    -0.00030131    -0.00047342
     6
  Step:    40            Position(A)                                  Velocity(au)
C        -0.04004998    -0.00427821    -0.15305352     0.00003867     0.00003764    -0.00045237
N        -0.04037306    -0.02207854     1.44808802     0.00009128     0.00002890     0.00045778
H         0.97923030     0.05606483    -0.61055537    -0.00006789    -0.00001203    -0.00058735
H         0.85437892    -0.29170215     1.90880157    -0.00096030    -0.00027145    -0.00020814
H        -0.99079983    -0.22611434     1.88266232    -0.00040155    -0.00024071     0.00038102
H        -1.01745964     0.14975442    -0.58823034    -0.00029944    -0.00032597    -0.00055660
     6
  Step:    41            Position(A)                                  Velocity(au)
C        -0.03979969    -0.00408628    -0.15537545     0.00004939     0.00003012    -0.00037438
N        -0.03989158    -0.02191833     1.45049958     0.00008122     0.00002925     0.00040323
H         0.97882363     0.05620981    -0.61392454    -0.00006200     0.00005983    -0.00063482
H         0.84901188    -0.29339090     1.90763929    -0.00095442    -0.00032894    -0.00019895
H        -0.99269256    -0.22722915     1.88473007    -0.00027854    -0.00017179     0.00035849
H        -1.01946657     0.14789940    -0.59161056    -0.00042220    -0.00032457    -0.00066707
     6
  Step:    42            Position(A)                                  Velocity(au)
C        -0.03950035    -0.00394297    -0.15722019     0.00005686     0.00002123    -0.00028785
N        -0.03946909    -0.02175297     1.45257579     0.00007009     0.00003054     0.00034221
H         0.97854029     0.05673072    -0.61762059    -0.00003417     0.00012102    -0.00069719
H         0.84375669    -0.29536305     1.90658739    -0.00092344    -0.00037562    -0.00017132
H        -0.99389986    -0.22802633     1.88665208    -0.00015499    -0.00012359     0.00032954
H        -1.02215856     0.14614210    -0.59565447    -0.00053898    -0.00029929    -0.00078658
     6
  Step:    43            Position(A)                                  Velocity(au)
C        -0.03916735    -0.00385014    -0.15857659     0.00006194     0.00001230    -0.00020109
N        -0.03911206    -0.02157866     1.45430534     0.00005782     0.00003243     0.00028036
H         0.97844367     0.05755568    -0.62167806     0.00000068     0.00017095    -0.00076312
H         0.83874231    -0.29756813     1.90573399    -0.00087102    -0.00041589    -0.00012981
H        -0.99441623    -0.22860364     1.88839493    -0.00003086    -0.00008959     0.00029563
H        -1.02546061     0.14457101    -0.60035811    -0.00064038    -0.00026265    -0.00090244
     6
  Step:    44            Position(A)                                  Velocity(au)
C        -0.03881209    -0.00380631    -0.15945473     0.00006514     0.00000370    -0.00011654
N        -0.03882657    -0.02139265     1.45569111     0.00004454     0.00003477     0.00021925
H         0.97854790     0.05863037    -0.62610042     0.00003610     0.00021217    -0.00082874
H         0.83407797    -0.29998443     1.90514498    -0.00080045    -0.00045329    -0.00007773
H        -0.99424275    -0.22902185     1.88993709     0.00009249    -0.00006501     0.00025851
H        -1.02927450     0.14322359    -0.60568238    -0.00072330    -0.00022107    -0.00101022
     6