 Fermi distribution function

Calculation with static geometry


********************************************************************************
 iSCC Total electronic   Diff electronic      SCC error    
   12   -0.53219489E+01   -0.21702053E-07    0.89832573E-07
********************************************************************************

 Total charge:     1.00000000

 Atomic gross charges (e)
 Atom           Charge
    1       0.34180103
    2      -0.23255196
    3       0.16919989
    4       0.29182939
    5       0.26559792
    6       0.16412373

Nr. of electrons (up):     12.00000000
Atom populations (up)
 Atom       Population
    1       3.65819897
    2       5.23255196
    3       0.83080011
    4       0.70817061
    5       0.73440208
    6       0.83587627

l-shell populations (up)
 Atom Sh.   l       Population
    1   1   0       1.35738411
    1   2   1       2.30081486
    2   1   0       1.47321615
    2   2   1       3.75933581
    3   1   0       0.83080011
    4   1   0       0.70817061
    5   1   0       0.73440208
    6   1   0       0.83587627

Orbital populations (up)
 Atom Sh.   l   m       Population  Label
    1   1   0   0       1.35738411  s
    1   2   1  -1       0.51857150  p_y
    1   2   1   0       0.88003038  p_z
    1   2   1   1       0.90221298  p_x
    2   1   0   0       1.47321615  s
    2   2   1  -1       1.38661257  p_y
    2   2   1   0       1.07017464  p_z
    2   2   1   1       1.30254859  p_x
    3   1   0   0       0.83080011  s
    4   1   0   0       0.70817061  s
    5   1   0   0       0.73440208  s
    6   1   0   0       0.83587627  s

Fermi level:                        -0.5014505747 H          -13.6452 eV
Band energy:                        -8.7344256907 H         -237.6758 eV
TS:                                  0.0000000000 H            0.0000 eV
Band free energy (E-TS):            -8.7344256907 H         -237.6758 eV
Extrapolated E(0K):                 -8.7344256907 H         -237.6758 eV
Input / Output electrons (q):     12.0000000000     12.0000000000

Energy H0:                          -5.4574614945 H         -148.5051 eV
Energy SCC:                          0.1355125456 H            3.6875 eV
Total Electronic energy:            -5.3219489490 H         -144.8176 eV
Repulsive energy:                    0.1554527280 H            4.2301 eV
Total energy:                       -5.1664962209 H         -140.5875 eV
Extrapolated to 0:                  -5.1664962209 H         -140.5875 eV
Total Mermin free energy:           -5.1664962209 H         -140.5875 eV
Force related energy:               -5.1664962209 H         -140.5875 eV

SCC converged

Excitation Energy:                   0.0877036038 H            2.3865 eV

Total Forces
    1     -0.005123023598     -0.001836370093      0.074453391198
    2      0.004109662081      0.010270221160     -0.075728120492
    3     -0.005798954385     -0.016967997944      0.000996764920
    4     -0.012067972299      0.012656038352      0.002147654382
    5      0.009711141011     -0.016214576363     -0.003937040284
    6      0.009169147190      0.012092684888      0.002067350276

Maximal derivative component:        0.757281E-01 au


