|===============================================================================
|
|  DFTB+ release 20.1
|
|  Copyright (C) 2006 - 2020  DFTB+ developers group
|
|===============================================================================
|
|  When publishing results obtained with DFTB+, please cite the following
|  reference:
|
|  * DFTB+, a software package for efficient approximate density functional
|    theory based atomistic simulations, J. Chem. Phys. 152, 124101 (2020).
|    [doi: 10.1063/1.5143190]
|
|  You should also cite additional publications crediting the parametrization
|  data you use. Please consult the documentation of the SK-files for the
|  references.
|
|===============================================================================

Reading input file 'dftb_in.hsd'
Parser version: 8

--------------------------------------------------------------------------------
Reading SK-files:
Done.


Processed input in HSD format written to 'dftb_pin.hsd'

Starting initialization...
--------------------------------------------------------------------------------
WARNING!
-> Excited state forces are not implemented yet for fractional occupations, kT=  0.3158E-02K
OpenMP threads:              1
Chosen random seed:          507141785
Mode:                        Static calculation
Self consistent charges:     Yes
SCC-tolerance:                 0.100000E-05
Max. scc iterations:                    100
Shell resolved Hubbard:      No
Spin polarisation:           No
Nr. of up electrons:             6.000000
Nr. of down electrons:           6.000000
Periodic boundaries:         No
Electronic solver:           Relatively robust
Mixer:                       Broyden mixer
Mixing parameter:                  0.200000
Maximal SCC-cycles:                     100
Nr. of chrg. vec. in memory:              0
Electronic temperature:        0.100000E-07 H      0.272114E-06 eV
Initial charges:             Set automatically (system chrg:   0.100E+01)
Included shells:             C:  s, p
                             N:  s, p
                             H:  s
Extra options:
                             Mulliken analysis
                             Force calculation
Force type                   original
                             Eigenvector printing

--------------------------------------------------------------------------------

***  Geometry step: 0

 iSCC Total electronic   Diff electronic      SCC error    
    1   -0.52959941E+01    0.00000000E+00    0.10472102E+01
    2   -0.53110084E+01   -0.15014390E-01    0.69552784E+00
    3   -0.53190017E+01   -0.79932592E-02    0.22904034E+00
    4   -0.52474294E+01    0.71572284E-01    0.91956800E+00
    5   -0.53217802E+01   -0.74350739E-01    0.45337138E-01
    6   -0.53219332E+01   -0.15307651E-03    0.17199111E-01
    7   -0.53219330E+01    0.21387594E-06    0.16120624E-01
    8   -0.53219463E+01   -0.13318110E-04    0.62262975E-02
    9   -0.53219473E+01   -0.97316281E-06    0.49370280E-02
   10   -0.53219489E+01   -0.15641955E-05    0.10098694E-02
   11   -0.53219489E+01   -0.48932194E-07    0.55809213E-03
   12   -0.53219489E+01   -0.21702053E-07    0.89832573E-07
>> Charges saved for restart in charges.bin

Total Energy:                       -5.0787926172 H         -138.2010 eV
Extrapolated to 0:                  -5.1664962209 H         -140.5875 eV
Total Mermin free energy:           -5.0787926172 H         -138.2010 eV
Force related energy:               -5.1664962209 H         -140.5875 eV

--------------------------------------------------------------------------------
DFTB+ running times                          cpu [s]             wall clock [s]
--------------------------------------------------------------------------------
SCC                                    +     0.03  ( 62.7%)      0.11  ( 75.9%)
Post-SCC processing                    +     0.02  ( 31.6%)      0.03  ( 19.3%)
--------------------------------------------------------------------------------
Missing                                +     0.00  (  5.7%)      0.01  (  4.8%)
Total                                  =     0.05  (100.0%)      0.14  (100.0%)
--------------------------------------------------------------------------------
