    14
  Step:     0            Position(A)                                  Velocity(au)
C        -6.03284885    -0.83347207     0.01744617     0.00001062    -0.00014815    -0.00014477
C        -4.67839433    -0.70295314     0.09728970     0.00026187    -0.00007220     0.00007937
H        -6.63806075     0.03841818    -0.32390189     0.00032562     0.00086775     0.00019069
H        -6.59822927    -1.62853535     0.48261807     0.00042662     0.00025279     0.00078419
H        -4.13963455    -1.53255951     0.55746068    -0.00081973     0.00019371     0.00042551
C        -3.91081379     0.48453343    -0.24949790    -0.00011863     0.00016468    -0.00013800
C        -2.56691982     0.50930022     0.11095444    -0.00029070     0.00006078     0.00009653
H        -4.41241589     1.35679707    -0.69060538     0.00024328    -0.00013430     0.00041212
H        -2.13777528    -0.46155327     0.55383803     0.00060026     0.00063648    -0.00011804
C        -1.81936090     1.73595140     0.02683360     0.00010833     0.00004823    -0.00008279
H        -2.29165412     2.68245513    -0.40048130    -0.00138777     0.00000256     0.00021172
N        -0.52633953     1.75540321     0.27790706    -0.00003228    -0.00013330    -0.00002509
H         0.05943401     2.65587366     0.26273791     0.00062365    -0.00157245     0.00084489
H         0.00360426     0.91614193     0.67415651     0.00077637     0.00097025    -0.00014250
    14
  Step:     1            Position(A)                                  Velocity(au)
C        -6.03293657    -0.83491792     0.01585698    -0.00002493    -0.00011451    -0.00014574
C        -4.67535823    -0.70368459     0.09816083     0.00028955    -0.00006044     0.00007877
H        -6.63414488     0.04704891    -0.32183814     0.00039356     0.00069504     0.00018934
H        -6.59346999    -1.62637545     0.49099128     0.00043807     0.00014086     0.00074543
H        -4.14819811    -1.53039760     0.56202209    -0.00072848     0.00018702     0.00041648
C        -3.91248944     0.48617087    -0.25104595    -0.00018558     0.00013263    -0.00014354
C        -2.56977993     0.51002748     0.11211860    -0.00023156     0.00007349     0.00011580
H        -4.40953715     1.35500622    -0.68601706     0.00026957    -0.00017457     0.00041576
H        -2.13149568    -0.45265902     0.55168726     0.00054401     0.00097672    -0.00027090
C        -1.81849982     1.73642226     0.02582216     0.00004728     0.00003779    -0.00010216
H        -2.30613608     2.68091131    -0.39733596    -0.00124473    -0.00028684     0.00036523
N        -0.52621239     1.75400619     0.27775856     0.00005417    -0.00012279    -0.00000248
H         0.06455295     2.63639315     0.27192327     0.00032608    -0.00194098     0.00082710
H         0.01058530     0.92868003     0.67163575     0.00050314     0.00128725    -0.00030815
    14
  Step:     2            Position(A)                                  Velocity(au)
C        -6.03339431    -0.83597719     0.01425781    -0.00005646    -0.00007827    -0.00014628
C        -4.67205981    -0.70427535     0.09901291     0.00030954    -0.00004664     0.00007592
H        -6.62945096     0.05362350    -0.31975964     0.00046374     0.00049793     0.00019130
H        -6.58864563    -1.62545369     0.49892581     0.00044012     0.00002934     0.00070272
H        -4.15557154    -1.52846813     0.56657204    -0.00060409     0.00015276     0.00042273
C        -3.91487363     0.48743504    -0.25263820    -0.00024781     0.00009640    -0.00014595
C        -2.57198561     0.51090800     0.11348782    -0.00017160     0.00008947     0.00013360
H        -4.40651847     1.35297803    -0.68150990     0.00026752    -0.00017610     0.00039643
H        -2.12587411    -0.44018574     0.54791148     0.00048439     0.00128154    -0.00041099
C        -1.81832665     1.73677821     0.02459874    -0.00001583     0.00002661    -0.00012102
H        -2.31888493     2.67617992    -0.39249110    -0.00107593    -0.00057139     0.00051841
N        -0.52515435     1.75271692     0.27785281     0.00013494    -0.00011390     0.00001851
H         0.06656771     2.61341111     0.28083234     0.00007132    -0.00219217     0.00079493
H         0.01461131     0.94430288     0.66741521     0.00024833     0.00151736    -0.00044512
    14
  Step:     3            Position(A)                                  Velocity(au)
C        -6.03417173    -0.83663017     0.01265676    -0.00008293    -0.00004106    -0.00014577
C        -4.66858635    -0.70470496     0.09982183     0.00032151    -0.00003125     0.00007101
H        -6.62399968     0.05794201    -0.31765317     0.00052798     0.00028894     0.00019237
H        -6.58384144    -1.62573367     0.50636474     0.00043604    -0.00007596     0.00065348
H        -4.16141378    -1.52705557     0.57127002    -0.00045167     0.00009578     0.00044178
C        -3.91791075     0.48827988    -0.25423896    -0.00030481     0.00005607    -0.00014507
C        -2.57353407     0.51198491     0.11504136    -0.00011190     0.00011011     0.00014909
H        -4.40368469     1.35115365    -0.67734443     0.00023566    -0.00013766     0.00035341
H        -2.12089876    -0.42462296     0.54269599     0.00043078     0.00153203    -0.00052991
C        -1.81884622     1.73700431     0.02317462    -0.00007782     0.00001343    -0.00013834
H        -2.32967404     2.66841108    -0.38599483    -0.00089184    -0.00083342     0.00066320
N        -0.52326023     1.75151440     0.27816346     0.00020410    -0.00010720     0.00003628
H         0.06611327     2.58843526     0.28931391    -0.00010997    -0.00228618     0.00075013
H         0.01601795     0.96187510     0.66189798     0.00003668     0.00162753    -0.00053721
    14
  Step:     4            Position(A)                                  Velocity(au)
C        -6.03520857    -0.83687545     0.01106879    -0.00010359    -0.00000456    -0.00014360
C        -4.66502621    -0.70495891     0.10056633     0.00032562    -0.00001484     0.00006435
H        -6.61790029     0.05994467    -0.31555112     0.00057839     0.00008102     0.00018845
H        -6.57910631    -1.62711549     0.51322188     0.00042899    -0.00016953     0.00059513
H        -4.16545278    -1.52637267     0.57623676    -0.00027851     0.00002414     0.00046911
C        -3.92154203     0.48866165    -0.25581188    -0.00035664     0.00001198    -0.00014096
C        -2.57443366     0.51331683     0.11674949    -0.00005332     0.00013684     0.00016151
H        -4.40136290     1.34996644    -0.67377842     0.00017527    -0.00006232     0.00028807
H        -2.11644994    -0.40666965     0.53631874     0.00039339     0.00170923    -0.00061933
C        -1.82002901     1.73707209     0.02157231    -0.00013569    -0.00000302    -0.00015310
H        -2.33839566     2.65794716    -0.37798227    -0.00070377    -0.00105532     0.00079170
N        -0.52068923     1.75037167     0.27864640     0.00025621    -0.00010309     0.00004927
H         0.06416191     2.56339665     0.29724279    -0.00018964    -0.00218948     0.00069565
H         0.01541375     0.97990818     0.65566274    -0.00010827     0.00158865    -0.00056967
    14
  Step:     5            Position(A)                                  Velocity(au)
C        -6.03643787    -0.83672992     0.00951521    -0.00011798     0.00002959    -0.00013924
C        -4.66146283    -0.70502967     0.10122965     0.00032262     0.00000196     0.00005641
H        -6.61134638     0.05971442    -0.31353037     0.00060753    -0.00011289     0.00017558
H        -6.57445638    -1.62944245     0.51938435     0.00042163    -0.00024672     0.00052556
H        -4.16750680    -1.52652746     0.58153279    -0.00009344    -0.00005166     0.00049857
C        -3.92571297     0.48854198    -0.25732268    -0.00040410    -0.00003527    -0.00013393
C        -2.57470048     0.51497847     0.11857460     0.00000369     0.00017111     0.00017021
H        -4.39985039     1.34979024    -0.67104244     0.00009052     0.00004201     0.00020401
H        -2.11229265    -0.38723017     0.52914691     0.00038270     0.00179539    -0.00067168
C        -1.82181461     1.73693834     0.01982516    -0.00018687    -0.00002416    -0.00016437
H        -2.34507026     2.64532391    -0.36867478    -0.00052381    -0.00121938     0.00089609
N        -0.51765522     1.74925912     0.27924137     0.00028731    -0.00010151     0.00005627
H         0.06196459     2.54053619     0.30453263    -0.00014943    -0.00188498     0.00063535
H         0.01364925     0.99662984     0.64943532    -0.00016862     0.00138192    -0.00053229
    14
  Step:     6            Position(A)                                  Velocity(au)
C        -6.03778969    -0.83622807     0.00802260    -0.00012606     0.00005985    -0.00013229
C        -4.65796834    -0.70491597     0.10180048     0.00031385     0.00001873     0.00004769
H        -6.60460940     0.05747500    -0.31171002     0.00060873    -0.00028026     0.00015008
H        -6.56988243    -1.63251302     0.52471961     0.00041580    -0.00030415     0.00044346
H        -4.16749697    -1.52750279     0.58714399     0.00009405    -0.00012001     0.00052315
C        -3.93038242     0.48789015    -0.25874185    -0.00044876    -0.00008492    -0.00012451
C        -2.57435293     0.51706022     0.12047317     0.00005918     0.00021419     0.00017482
H        -4.39938251     1.35088547    -0.66931537    -0.00001174     0.00016294     0.00010684
H        -2.10807755    -0.36739213     0.52162439     0.00040826     0.00177643    -0.00068130
C        -1.82411722     1.73654359     0.01797650    -0.00022938    -0.00005148    -0.00017128
H        -2.34985506     2.63127078    -0.35837857    -0.00036452    -0.00130849     0.00096894
N        -0.51440379     1.74815104     0.27987747     0.00029618    -0.00010169     0.00005676
H         0.06089294     2.52215907     0.31114238     0.00000968    -0.00138398     0.00057311
H         0.01172480     1.01014034     0.64401793    -0.00013818     0.00100731    -0.00042352
    14
  Step:     7            Position(A)                                  Velocity(au)
C        -6.03919577    -0.83542050     0.00662117    -0.00012823     0.00008485    -0.00012251
C        -4.65459684    -0.70461993     0.10227296     0.00030117     0.00003528     0.00003866
H        -6.59802930     0.05358329    -0.31024705     0.00057640    -0.00040965     0.00010881
H        -6.56536006    -1.63609638     0.52908580     0.00041243    -0.00033993     0.00034856
H        -4.16544923    -1.52915298     0.59297759     0.00027482    -0.00016990     0.00053599
C        -3.93553048     0.48668421    -0.26004666    -0.00049260    -0.00013611    -0.00011336
C        -2.57340583     0.51966420     0.12239919     0.00011355     0.00026666     0.00017530
H        -4.40010725     1.35335479    -0.66870519    -0.00012299     0.00028489     0.00000357
H        -2.10336125    -0.34836744     0.51424206     0.00047649     0.00164566    -0.00064607
C        -1.82683267     1.73581210     0.01607799    -0.00026185    -0.00008628    -0.00017322
H        -2.35304477     2.61669815    -0.34747732    -0.00023791    -0.00130754     0.00100389
N        -0.51117566     1.74703452     0.28048316     0.00028527    -0.00010214     0.00005130
H         0.06217638     2.51025892     0.31707052     0.00026069    -0.00073404     0.00051165
H         0.01062626     1.01866668     0.64016993    -0.00002800     0.00049093    -0.00025418
    14
  Step:     8            Position(A)                                  Velocity(au)
C        -6.04059488    -0.83437181     0.00534255    -0.00012529     0.00010348    -0.00010987
C        -4.65137960    -0.70414413     0.10264627     0.00028667     0.00005155     0.00002978
H        -6.59199965     0.04851306    -0.30932949     0.00050671    -0.00049187     0.00004948
H        -6.56085972    -1.63994971     0.53234501     0.00041152    -0.00035381     0.00024185
H        -4.16148466    -1.53121971     0.59886977     0.00044101    -0.00019244     0.00053143
C        -3.94115899     0.48491240    -0.26122173    -0.00053701    -0.00018774    -0.00010108
C        -2.57186883     0.52289394     0.12430811     0.00016688     0.00032775     0.00017193
H        -4.40207321     1.35711796    -0.66923720    -0.00023430     0.00039122    -0.00009810
H        -2.09765341    -0.33139022     0.50749045     0.00058808     0.00140792    -0.00056894
C        -1.82984578     1.73465603     0.01418689    -0.00028355    -0.00012906    -0.00016989
H        -2.35505972     2.60266581    -0.33641651    -0.00015375    -0.00120614     0.00099680
N        -0.50816287     1.74591654     0.28099970     0.00026071    -0.00010101     0.00004163
H         0.06659604     2.50610053     0.32233578     0.00055195    -0.00001573     0.00045163
H         0.01111234     1.02088033     0.63845725     0.00013213    -0.00011333    -0.00004822
    14
  Step:     9            Position(A)                                  Velocity(au)
C        -6.04193663    -0.83315671     0.00421747    -0.00011819     0.00011508    -0.00009456
C        -4.64832543    -0.70349209     0.10292442     0.00027198     0.00006720     0.00002150
H        -6.58694397     0.04282280    -0.30916454     0.00039837    -0.00052134    -0.00002890
H        -6.55635719    -1.64383656     0.53437670     0.00041212    -0.00034722     0.00012539
H        -4.15580122    -1.53336292     0.60460356     0.00058659    -0.00018195     0.00050574
C        -3.94727852     0.48257705    -0.26225789    -0.00058166    -0.00023816    -0.00008815
C        -2.56975511     0.52683443     0.12616051     0.00021805     0.00039459     0.00016531
H        -4.40523303     1.36191352    -0.67085125    -0.00033770     0.00046664    -0.00019069
H        -2.09049591    -0.31756640     0.50179532     0.00073570     0.00108249    -0.00045889
C        -1.83303591     1.73298860     0.01236133    -0.00029409    -0.00017877    -0.00016146
H        -2.35640843     2.59031160    -0.32567052    -0.00011721    -0.00100221     0.00094721
N        -0.50547212     1.74482468     0.28139391     0.00023093    -0.00009678     0.00003041
H         0.07425131     2.50991486     0.32695089     0.00081901     0.00067417     0.00039160
H         0.01351679     1.01618733     0.63911496     0.00029873    -0.00073150     0.00016102
    14
  Step:    10            Position(A)                                  Velocity(au)
C        -6.04318061    -0.83185421     0.00327397    -0.00010767     0.00011961    -0.00007687
C        -4.64542961    -0.70267393     0.10311663     0.00025770     0.00008131     0.00001432
H        -6.58328447     0.03710770    -0.30996170     0.00025329    -0.00049760    -0.00012565
H        -6.55184373    -1.64754583     0.53508805     0.00041250    -0.00032327     0.00000206
H        -4.14865186    -1.53520030     0.60993372     0.00070761    -0.00013640     0.00045744
C        -3.95388388     0.47970210    -0.26315023    -0.00062423    -0.00028513    -0.00007492
C        -2.56709850     0.53152635     0.12792455     0.00026476     0.00046217     0.00015624
H        -4.40946114     1.36732668    -0.67340894    -0.00042730     0.00049932    -0.00026789
H        -2.08155851    -0.30770870     0.49745143     0.00090359     0.00070256    -0.00033027
C        -1.83627955     1.73074512     0.01065466    -0.00029338    -0.00023243    -0.00014866
H        -2.35762384     2.58074044    -0.31569449    -0.00012634    -0.00070550     0.00085962
N        -0.50311091     1.74379924     0.28166488     0.00020433    -0.00008885     0.00002046
H         0.08451339     2.52084937     0.33090288     0.00100284     0.00124710     0.00032910
H         0.01764771     1.00487728     0.64197987     0.00042598    -0.00128569     0.00033881
    14
  Step:    11            Position(A)                                  Velocity(au)
C        -6.04429210    -0.83053994     0.00253574    -0.00009413     0.00011776    -0.00005731
C        -4.64268769    -0.70171332     0.10323779     0.00024341     0.00009257     0.00000872
H        -6.58140278     0.03193694    -0.31191329     0.00007722    -0.00042641    -0.00023810
H        -6.54733291    -1.65090868     0.53442172     0.00041043    -0.00028641    -0.00012466
H        -4.14032083    -1.53634696     0.61461096     0.00080221    -0.00005717     0.00038718
C        -3.96093471     0.47633922    -0.26389683    -0.00066147    -0.00032617    -0.00006163
C        -2.56396296     0.53694539     0.12957862     0.00030456     0.00052431     0.00014579
H        -4.41458102     1.37283707    -0.67671176    -0.00049974     0.00048218    -0.00032544
H        -2.07072825    -0.30219655     0.49456998     0.00106971     0.00031055    -0.00020081
C        -1.83945416     1.72790377     0.00910920    -0.00028184    -0.00028555    -0.00013270
H        -2.35917228     2.57487745    -0.30686469    -0.00017073    -0.00033920     0.00074367
N        -0.50100209     1.74288088     0.28184152     0.00018709    -0.00007768     0.00001407
H         0.09619032     2.53719758     0.33415059     0.00106534     0.00164317     0.00026215
H         0.02283592     0.98806035     0.64652709     0.00047818    -0.00171217     0.00045772
    14
  Step:    12            Position(A)                                  Velocity(au)
C        -6.04523990    -0.82927789     0.00202016    -0.00007799     0.00011092    -0.00003656
C        -4.64010464    -0.70064878     0.10330735     0.00022814     0.00009979     0.00000501
H        -6.58159504     0.02777918    -0.31517058    -0.00012010    -0.00032013    -0.00036142
H        -6.54286478    -1.65381164     0.53236084     0.00040343    -0.00024207    -0.00025093
H        -4.13110193    -1.53645094     0.61840392     0.00087035     0.00005144     0.00029739
C        -3.96835474     0.47256661    -0.26449843    -0.00069056    -0.00035914    -0.00004853
C        -2.56043557     0.54299673     0.13111407     0.00033593     0.00057492     0.00013518
H        -4.42039381     1.37787533    -0.68052866    -0.00055408     0.00041320    -0.00036161
H        -2.05815661    -0.30091484     0.49305841     0.00121048    -0.00005012    -0.00008808
C        -1.84244538     1.72449820     0.00775165    -0.00026055    -0.00033285    -0.00011512
H        -2.36135889     2.57331970    -0.29942534    -0.00023242     0.00006163     0.00061288
N        -0.49901787     1.74209990     0.28197273     0.00018214    -0.00006444     0.00001249
H         0.10781972     2.55679681     0.33663786     0.00099510     0.00183892     0.00019025
H         0.02810889     0.96742023     0.65199338     0.00043766    -0.00197332     0.00050307
    14
  Step:    13            Position(A)                                  Velocity(au)
C        -6.04599824    -0.82811344     0.00173594    -0.00005989     0.00010097    -0.00001548
C        -4.63769671    -0.69953018     0.10334746     0.00021093     0.00010213     0.00000338
H        -6.58403020     0.02493344    -0.31982010    -0.00032570    -0.00019643    -0.00048887
H        -6.53850720    -1.65620439     0.52893225     0.00038900    -0.00019614    -0.00037272
H        -4.12128016    -1.53522151     0.62111683     0.00091349     0.00018290     0.00019192
C        -3.97604213     0.46848245    -0.26495854    -0.00070963    -0.00038253    -0.00003588
C        -2.55661393     0.54952296     0.13253585     0.00035819     0.00060900     0.00012550
H        -4.42670266     1.38187665    -0.68462277    -0.00059139     0.00029492    -0.00037686
H        -2.04424659    -0.30329306     0.49264305     0.00130600    -0.00034350    -0.00000596
C        -1.84515427     1.72062211     0.00659073    -0.00023106    -0.00036896    -0.00009754
H        -2.36425691     2.57622565    -0.29345683    -0.00028939     0.00045550     0.00048215
N        -0.49701751     1.74147112     0.28211480     0.00018930    -0.00005053     0.00001589
H         0.11796005     2.57742747     0.33831274     0.00080336     0.00184239     0.00011451
H         0.03241051     0.94489019     0.65753281     0.00030536    -0.00205971     0.00047350
    14
  Step:    14            Position(A)                                  Velocity(au)
C        -6.04655016    -0.82706901     0.00168155    -0.00004075     0.00009006     0.00000495
C        -4.63549018    -0.69841457     0.10338122     0.00019093     0.00009907     0.00000385
H        -6.58872028     0.02348193    -0.32586566    -0.00052479    -0.00007564    -0.00061247
H        -6.53435463    -1.65810260     0.52420689     0.00036490    -0.00015455    -0.00048614
H        -4.11111751    -1.53244963     0.62260255     0.00093419     0.00032914     0.00007564
C        -3.98387924     0.46419794    -0.26528331    -0.00071756    -0.00039545    -0.00002390
C        -2.55259950     0.55631986     0.13385963     0.00037107     0.00062312     0.00011754
H        -4.43333161     1.38432718    -0.68877317    -0.00061417     0.00013363    -0.00037335
H        -2.02958535    -0.30842965     0.49292811     0.00134374    -0.00054675     0.00003771
C        -1.84750031     1.71642660     0.00561769    -0.00019491    -0.00038908    -0.00008141
H        -2.36768979     2.58328469    -0.28887749    -0.00032062     0.00080234     0.00036476
N        -0.49487648     1.74099450     0.28232040     0.00020633    -0.00003712     0.00002362
H         0.12539468     2.59710266     0.33914301     0.00051514     0.00168176     0.00003711
H         0.03478931     0.92236021     0.66235202     0.00009619    -0.00198438     0.00037778
    14
  Step:    15            Position(A)                                  Velocity(au)
C        -6.04688965    -0.82614322     0.00184425    -0.00002158     0.00008024     0.00002375
C        -4.63351974    -0.69736283     0.10343164     0.00016749     0.00009042     0.00000637
H        -6.59551098     0.02327864    -0.33321904    -0.00070280     0.00002255    -0.00072405
H        -6.53052428    -1.65958551     0.51829700     0.00032930    -0.00012277    -0.00058771
H        -4.10084296    -1.52802091     0.62277168     0.00093578     0.00048119    -0.00004595
C        -3.99174017     0.45983122    -0.26548141    -0.00071385    -0.00039750    -0.00001280
C        -2.54849606     0.56315499     0.13510722     0.00037432     0.00061555     0.00011162
H        -4.44013870     1.38480002    -0.69279042    -0.00062581    -0.00006157    -0.00035443
H        -2.01484969    -0.31525419     0.49346808     0.00131967    -0.00065144     0.00004135
C        -1.84941836     1.71211019     0.00480983    -0.00015327    -0.00038963    -0.00006775
H        -2.37127113     2.59377830    -0.28547710    -0.00031070     0.00107079     0.00027005
N        -0.49250368     1.74065900     0.28263157     0.00022990    -0.00002504     0.00003457
H         0.12922974     2.61421927     0.33912457     0.00016088     0.00139422    -0.00003932
H         0.03451495     0.90147803     0.66579744    -0.00016760    -0.00177398     0.00023040
    14
  Step:    16            Position(A)                                  Velocity(au)
C        -6.04702219    -0.82531359     0.00220113    -0.00000338     0.00007318     0.00004009
C        -4.63182599    -0.69643644     0.10352052     0.00014017     0.00007626     0.00001078
H        -6.60409545     0.02397527    -0.34170562    -0.00084730     0.00008227    -0.00081650
H        -6.52715049    -1.66078843     0.51134970     0.00028103    -0.00010533    -0.00067469
H        -4.09064546    -1.52192257     0.62159735     0.00092216     0.00062965    -0.00016703
C        -3.99949606     0.45550186    -0.26556333    -0.00069844    -0.00038878    -0.00000271
C        -2.54441053     0.56978621     0.13630162     0.00036770     0.00058613     0.00010771
H        -4.44702238     1.38298022    -0.69652709    -0.00063014    -0.00027978    -0.00032424
H        -2.00071510    -0.32268124     0.49383271     0.00123692    -0.00066134     0.00000834
C        -1.85085330     1.70790267     0.00413557    -0.00010679    -0.00036862    -0.00005714
H        -2.37448702     2.60671036    -0.28296965    -0.00025213     0.00124247     0.00020252
N        -0.48984703     1.74044660     0.28307665     0.00025646    -0.00001479     0.00004746
H         0.12891416     2.62760390     0.33828281    -0.00022899     0.00101869    -0.00011218
H         0.03112271     0.88355104     0.66739243    -0.00046177    -0.00146096     0.00004777
    14
  Step:    17            Position(A)                                  Velocity(au)
C        -6.04696363    -0.82454231     0.00272119     0.00001299     0.00006993     0.00005336
C        -4.63045321    -0.69569445     0.10366752     0.00010875     0.00005696     0.00001685
H        -6.61404738     0.02507836    -0.35108146    -0.00094945     0.00009358    -0.00088463
H        -6.52437629    -1.66188972     0.50353684     0.00021976    -0.00010532    -0.00074543
H        -4.08066884    -1.51424620     0.61911768     0.00089760     0.00076502    -0.00028167
C        -4.00701983     0.45132596    -0.26554080    -0.00067166    -0.00036982     0.00000629
C        -2.54045192     0.57597772     0.13746357     0.00035114     0.00053605     0.00010548
H        -4.45392422     1.37867937    -0.69988388    -0.00063112    -0.00050900    -0.00028737
H        -1.98778976    -0.32972231     0.49365058     0.00110342    -0.00058844    -0.00005488
C        -1.85175464     1.70404595     0.00355975    -0.00005576    -0.00032580    -0.00004970
H        -2.37678698     2.62095978    -0.28104650    -0.00014515     0.00131238     0.00016228
N        -0.48689313     1.74033534     0.28366990     0.00028260    -0.00000666     0.00006105
H         0.12422018     2.63650515     0.33667038    -0.00062611     0.00059287    -0.00017913
H         0.02441277     0.86951663     0.66684244    -0.00076300    -0.00107909    -0.00015387
    14
  Step:    18            Position(A)                                  Velocity(au)
C        -6.04673801    -0.82378384     0.00336847     0.00002689     0.00007083     0.00006328
C        -4.62944682    -0.69519025     0.10388922     0.00007325     0.00003319     0.00002426
H        -6.62486639     0.02602255    -0.36105856    -0.00100462     0.00005323    -0.00092569
H        -6.52234274    -1.66309242     0.49504208     0.00014626    -0.00012396    -0.00079950
H        -4.07100883    -1.50518622     0.61543535     0.00086651     0.00087819    -0.00038412
C        -4.01418989     0.44741124    -0.26542571    -0.00063417    -0.00034163     0.00001426
C        -2.53672858     0.58151335     0.13860923     0.00032494     0.00046760     0.00010447
H        -4.46082940     1.37184480    -0.70281378    -0.00063271    -0.00073664    -0.00024870
H        -1.97657575    -0.33555453     0.49263209     0.00092946    -0.00044914    -0.00014060
C        -1.85207318     1.70077516     0.00304823    -0.00000030    -0.00026254    -0.00004519
H        -2.37766251     2.63542117    -0.27941946     0.00000417     0.00128641     0.00014629
N        -0.48366465     1.74030092     0.28441213     0.00030512    -0.00000084     0.00007413
H         0.11521677     2.64057415     0.33436409    -0.00100419     0.00015326    -0.00023807
H         0.01443057     0.85994382     0.66402617    -0.00104986    -0.00066175    -0.00035916
    14
  Step:    19            Position(A)                                  Velocity(au)
C        -6.04637531    -0.82299275     0.00410554     0.00003787     0.00007558     0.00006985
C        -4.62885075    -0.69496844     0.10419825     0.00003391     0.00000586     0.00003261
H        -6.63602531     0.02624282    -0.37133259    -0.00101220    -0.00003616    -0.00093928
H        -6.52117665    -1.66460167     0.48604630     0.00006240    -0.00016036    -0.00083782
H        -4.06171234    -1.49503408     0.61071426     0.00083329     0.00096076    -0.00046908
C        -4.02089350     0.44385220    -0.26522892    -0.00058688    -0.00030559     0.00002134
C        -2.53334322     0.58620736     0.13974900     0.00028984     0.00038396     0.00010410
H        -4.46776605     1.36256394    -0.70532468    -0.00063876    -0.00094989    -0.00021332
H        -1.96745611    -0.33954805     0.49057476     0.00072600    -0.00026150    -0.00024094
C        -1.85176124     1.69830236     0.00257116     0.00005933    -0.00018154    -0.00004311
H        -2.37669573     2.64910247    -0.27784612     0.00018644     0.00117767     0.00014982
N        -0.48021803     1.74031692     0.28529156     0.00032099     0.00000244     0.00008557
H         0.10225163     2.63985805     0.33146212    -0.00133795    -0.00026320    -0.00028716
H         0.00144515     0.85503965     0.65898502    -0.00130260    -0.00024224    -0.00055349
    14
  Step:    20            Position(A)                                  Velocity(au)
C        -6.04590960    -0.82213038     0.00489668     0.00004561     0.00008331     0.00007337
C        -4.62870493    -0.69506210     0.10460267    -0.00000878    -0.00002388     0.00004148
H        -6.64701031     0.02523149    -0.38160709    -0.00097492    -0.00016741    -0.00092707
H        -6.52097766    -1.66660054     0.47671313    -0.00002876    -0.00021138    -0.00086257
H        -4.05277899    -1.48416785     0.60517339     0.00080200     0.00100558    -0.00053198
C        -4.02702903     0.44072583    -0.26495889    -0.00053089    -0.00026348     0.00002781
C        -2.53038785     0.58991332     0.14088667     0.00024704     0.00028907     0.00010376
H        -4.47480355     1.35106410    -0.70748061    -0.00065292    -0.00113621    -0.00018634
H        -1.96069307    -0.34127533     0.48736108     0.00050385    -0.00004386    -0.00034844
C        -1.85077520     1.69680358     0.00210508     0.00012257    -0.00008653    -0.00004283
H        -2.37358382     2.66118503    -0.27614184     0.00039093     0.00100320     0.00016752
N        -0.47664229     1.74035426     0.28628418     0.00032728     0.00000292     0.00009428