|===============================================================================
|
|  DFTB+ release 20.1
|
|  Copyright (C) 2006 - 2020  DFTB+ developers group
|
|===============================================================================
|
|  When publishing results obtained with DFTB+, please cite the following
|  reference:
|
|  * DFTB+, a software package for efficient approximate density functional
|    theory based atomistic simulations, J. Chem. Phys. 152, 124101 (2020).
|    [doi: 10.1063/1.5143190]
|
|  You should also cite additional publications crediting the parametrization
|  data you use. Please consult the documentation of the SK-files for the
|  references.
|
|===============================================================================

Reading input file 'dftb_in.hsd'
Parser version: 8

--------------------------------------------------------------------------------
Reading SK-files:
Done.


Processed input in HSD format written to 'dftb_pin.hsd'

Starting initialization...
--------------------------------------------------------------------------------
OpenMP threads:              1
Chosen random seed:          507639841
Mode:                        Static calculation
Self consistent charges:     Yes
SCC-tolerance:                 0.100000E-05
Max. scc iterations:                   1000
Shell resolved Hubbard:      No
Spin polarisation:           No
Nr. of up electrons:             6.000000
Nr. of down electrons:           6.000000
Periodic boundaries:         No
Electronic solver:           Relatively robust
Maximal SCC-cycles:                    1000
Initial charges:             Set automatically (system chrg:   0.100E+01)
Included shells:             C:  s, p
                             N:  s, p
                             H:  s
Spin coupling constants:     C   1(s)-1(s):  -0.455900E-01
                             C   1(s)-2(p):  -0.293000E-01
                             C   2(p)-1(s):  -0.293000E-01
                             C   2(p)-2(p):  -0.275500E-01
                             N   1(s)-1(s):  -0.468700E-01
                             N   1(s)-2(p):  -0.317000E-01
                             N   2(p)-1(s):  -0.317000E-01
                             N   2(p)-2(p):  -0.307200E-01
                             H   1(s)-1(s):  -0.792500E-01
Range separated hybrid:      Yes
  Screening parameter omega:   0.300000E+00
  Range separated algorithm:   MatrixBased
Extra options:
                             Mulliken analysis
                             Force calculation
Force type                   original
                             Eigenvector printing


REKS Calcuation:             Yes
SSR(2,2) Calcuation:         Yes
Energy Functional:           (PPS+OSS)/2
Number of Core Orbitals:                  5
Number of Active Orbitals:                2
Number of Basis:                         12
Number of States:                         2
State-Averaging Weight:          0.500000
                                 0.500000
State of Interest:                        1
Initial Guess:               Diagonalize H0 matrix
Newton-Raphson for FON opt:  Yes
NR max. Iterations:                      50
Level Shifting:              Yes
Shift Value:                     0.300000
W Scale Factor:              C  =    3.000000
                             N  =    3.000000
                             H  =    3.000000
Transition Dipole:           No
Gradient of Microstate:      No
CP-REKS Solver:              Preconditioned Conjugate-Gradient
CG max. Iterations:                     100
CG Tolerance:                  0.100000E-07
Memory for A and Hxc:        Direct Updating Without Saving
Non-Adiabatic Coupling:      Yes

--------------------------------------------------------------------------------

***  Geometry step: 0

  iSCC       reks energy        Diff energy         x_a       SCC error   
    1       -6.2616016789       0.0000000000     0.998875    1.17479213
    2       -6.2754011285      -0.0137994496     0.999578    0.11050194
    3       -6.2794460934      -0.0040449649     0.999776    0.05181869
    4       -6.2813081072      -0.0018620139     0.999855    0.02644513
    5       -6.2823576297      -0.0010495224     0.999892    0.01435277
    6       -6.2830407001      -0.0006830705     0.999911    0.00787880
    7       -6.2835238783      -0.0004831782     0.999923    0.00664726
    8       -6.2838782355      -0.0003543572     0.999930    0.00589005
    9       -6.2841407619      -0.0002625264     0.999935    0.00511395
   10       -6.2843348864      -0.0001941245     0.999939    0.00438301
   11       -6.2844774708      -0.0001425844     0.999941    0.00384321
   12       -6.2845813552      -0.0001038844     0.999943    0.00333501
   13       -6.2846564486      -0.0000750934     0.999944    0.00286896
   14       -6.2847103502      -0.0000539016     0.999945    0.00245053
   15       -6.2847488108      -0.0000384606     0.999945    0.00211235
   16       -6.2847761198      -0.0000273090     0.999946    0.00183623
   17       -6.2847954341      -0.0000193144     0.999946    0.00158707
   18       -6.2848090514      -0.0000136173     0.999946    0.00136513
   19       -6.2848186282      -0.0000095767     0.999947    0.00116943
   20       -6.2848253500      -0.0000067219     0.999947    0.00099829
   21       -6.2848300607      -0.0000047107     0.999947    0.00084965
   22       -6.2848333578      -0.0000032971     0.999947    0.00072127
   23       -6.2848356632      -0.0000023054     0.999947    0.00061091
   24       -6.2848372738      -0.0000016107     0.999947    0.00051642
   25       -6.2848383983      -0.0000011245     0.999947    0.00043581
   26       -6.2848391830      -0.0000007847     0.999947    0.00036723
   27       -6.2848397303      -0.0000005473     0.999947    0.00030905
   28       -6.2848401119      -0.0000003816     0.999947    0.00025978
   29       -6.2848403779      -0.0000002659     0.999947    0.00021816
   30       -6.2848405632      -0.0000001853     0.999947    0.00018304
   31       -6.2848406922      -0.0000001291     0.999947    0.00015346
   32       -6.2848407821      -0.0000000899     0.999947    0.00012858
   33       -6.2848408448      -0.0000000626     0.999947    0.00010767
   34       -6.2848408883      -0.0000000436     0.999947    0.00009011
   35       -6.2848409187      -0.0000000303     0.999947    0.00007538
   36       -6.2848409398      -0.0000000211     0.999947    0.00006304
   37       -6.2848409545      -0.0000000147     0.999947    0.00005270
   38       -6.2848409647      -0.0000000102     0.999947    0.00004404
   39       -6.2848409718      -0.0000000071     0.999947    0.00003680
   40       -6.2848409768      -0.0000000050     0.999947    0.00003074
   41       -6.2848409802      -0.0000000034     0.999947    0.00002567
   42       -6.2848409826      -0.0000000024     0.999947    0.00002143
   43       -6.2848409843      -0.0000000017     0.999947    0.00001789
   44       -6.2848409855      -0.0000000012     0.999947    0.00001494
   45       -6.2848409863      -0.0000000008     0.999947    0.00001247
   46       -6.2848409868      -0.0000000006     0.999947    0.00001041
   47       -6.2848409872      -0.0000000004     0.999947    0.00000868
   48       -6.2848409875      -0.0000000003     0.999947    0.00000725
   49       -6.2848409877      -0.0000000002     0.999947    0.00000605
   50       -6.2848409878      -0.0000000001     0.999947    0.00000504
   51       -6.2848409879      -0.0000000001     0.999947    0.00000421
   52       -6.2848409880      -0.0000000001     0.999947    0.00000351
   53       -6.2848409880      -0.0000000000     0.999947    0.00000293
   54       -6.2848409881      -0.0000000000     0.999947    0.00000244
   55       -6.2848409881      -0.0000000000     0.999947    0.00000204
   56       -6.2848409881      -0.0000000000     0.999947    0.00000170
   57       -6.2848409881      -0.0000000000     0.999947    0.00000142
   58       -6.2848409881      -0.0000000000     0.999947    0.00000118
   59       -6.2848409881      -0.0000000000     0.999947    0.00000099
  
--------------------------------------------------
 Final SA-REKS(2,2) energy:      -6.28484099
  
 State     Energy      FON(1)    FON(2)   Spin
  PPS   -6.41021805   1.999894  0.000106  0.00
  OSS   -6.15946392   1.000000  1.000000  0.00
 Trip   -6.24061523   1.000000  1.000000  1.00
--------------------------------------------------

 Lagrangian Wab:  -0.00637695 -0.00637667

--------------------------------------------------
 SSR: 2SI-2SA-REKS(2,2) Hamiltonian matrix
               PPS           OSS
   PPS    -6.41021805   -0.00895242
   OSS    -0.00895242   -6.15946392
--------------------------------------------------

----------------------------------------------------------------
 SSR: 2SI-2SA-REKS(2,2) states
                    E_n       C_{PPS}    C_{OSS}
 SSR state  1   -6.41053726  -0.999365  -0.035634
 SSR state  2   -6.15914471   0.035634  -0.999365
----------------------------------------------------------------

 unrelaxed SSR FONs for S0:  1.998624  0.001376

Total Energy:                       -6.4105372645 H         -174.4396 eV
Extrapolated to 0:                  -6.4105372645 H         -174.4396 eV

----------------------------------------------------------------------------------
 Solving CP-REKS equation for  1 state vector...
----------------------------------------------------------------------------------
  CG solver: Constructing Y initial guess
  CG solver: Iteration    1    eps =    0.000106449361
  CG solver: Iteration    2    eps =    0.000071189901
  CG solver: Iteration    3    eps =    0.000005637468
  CG solver: Iteration    4    eps =    0.000000878462
  CG solver: Iteration    5    eps =    0.000000010254
  CG solver: Iteration    6    eps =    0.000000004380
  Convergence reached in CG solver after    6 iterations
  CG solver: Calculating converged R, Z, Q2 matrix
----------------------------------------------------------------------------------

----------------------------------------------------------------------------------
 Solving CP-REKS equation for SI between  1 and  2 state vectors...
----------------------------------------------------------------------------------
  CG solver: Constructing Y initial guess
  CG solver: Iteration    1    eps =    0.002641946778
  CG solver: Iteration    2    eps =    0.003854511414
  CG solver: Iteration    3    eps =    0.000525662403
  CG solver: Iteration    4    eps =    0.000006229275
  CG solver: Iteration    5    eps =    0.000000882486
  CG solver: Iteration    6    eps =    0.000000018504
  CG solver: Iteration    7    eps =    0.000000001217
  Convergence reached in CG solver after    7 iterations
  CG solver: Calculating converged R, Z, Q2 matrix
----------------------------------------------------------------------------------

--------------------------------------------------
 Gradient Information
--------------------------------------------------
           1 st state (SSR)
     0.00517170     0.00590136    -0.00578418
    -0.00875633     0.00016124     0.00923929
     0.01302150     0.00322914     0.00212690
     0.01542662    -0.00882032    -0.00463734
    -0.01020648     0.00506870    -0.00655702
    -0.01465702    -0.00554012     0.00561235

           2 st state (SSR)
    -0.00504049    -0.00465308     0.09992167
     0.00899333     0.01093597    -0.11153749
    -0.01067973    -0.00397741     0.01693536
    -0.01183757    -0.00077734    -0.01145162
     0.00773937    -0.00425456    -0.01474971
     0.01082508     0.00272642     0.02088179
--------------------------------------------------
 Coupling Information
--------------------------------------------------
 between  1 and  2 states
--------------------------------------------------
 g vector - difference gradient
     0.00521962     0.00536309    -0.05437683
    -0.00910428    -0.00556446     0.06163054
     0.01273970     0.00332746    -0.00730903
     0.01473670    -0.00395088     0.00346346
    -0.00992534     0.00469536     0.00416836
    -0.01366641    -0.00387056    -0.00757651

 h vector - derivative coupling
    -0.00140788    -0.00101438     0.01945748
     0.00289687     0.00228815    -0.01524285
    -0.01202883     0.00399129    -0.00159722
    -0.01498378    -0.00113224    -0.00066734
     0.01301839    -0.00030619    -0.00086255
     0.01250523    -0.00382662    -0.00108752

 G vector - GDV
     0.00510609     0.00527722    -0.05285293
    -0.00887483    -0.00538737     0.06038839
     0.01185062     0.00360328    -0.00740423
     0.01363209    -0.00402149     0.00340714
    -0.00897293     0.00466163     0.00409634
    -0.01274105    -0.00413327    -0.00763472

 H vector - DCV - non-adiabatic coupling
    -0.00706488    -0.00554423     0.09260787
     0.01407339     0.01065526    -0.07794038
    -0.05133661     0.01489369    -0.00426662
    -0.06362685    -0.00337310    -0.00362906
     0.05446556    -0.00254515    -0.00460334
     0.05348939    -0.01408647    -0.00216847
--------------------------------------------------


--------------------------------------------------------------------------------
DFTB+ running times                          cpu [s]             wall clock [s]
--------------------------------------------------------------------------------
SCC                                    +     0.03  ( 70.9%)      0.03  ( 58.8%)
Post-SCC processing                    +     0.01  ( 25.0%)      0.01  ( 19.6%)
--------------------------------------------------------------------------------
Missing                                +     0.00  (  4.1%)      0.01  ( 21.6%)
Total                                  =     0.04  (100.0%)      0.05  (100.0%)
--------------------------------------------------------------------------------
