     6
  Step:   600            Position(A)                                  Velocity(au)
C         0.07568873    -0.00118789    -0.03654775     0.00013790    -0.00032457    -0.00009087
N        -0.11958397    -0.09139804     1.32485214     0.00098811     0.00048677    -0.00004663
H        -0.99298641     0.68392719    -0.29546133    -0.00434659    -0.00282347     0.00224749
H        -1.24465450    -0.20650977     1.68321193    -0.00566444     0.00317079    -0.00389727
H         0.71200785    -0.31799649     1.80246447    -0.00192293    -0.00474170    -0.00307768
H         1.07294679     0.45499228    -0.27271235    -0.00344053     0.00149767     0.00645831
