    14
  Step:   600            Position(A)                                  Velocity(au)
C        -5.93296038    -0.72380293    -0.09041174    -0.00034811    -0.00050134    -0.00021980
C        -4.62468668    -0.77601472     0.31477900    -0.00006901    -0.00003931    -0.00032421
H        -6.17292384     0.06008021    -0.89739069    -0.00009018     0.00046019     0.00230506
H        -6.79342699    -1.16481818     0.40196418    -0.00003907    -0.00017434    -0.00226787
H        -4.03430878    -1.48192686     1.00874558     0.00009577    -0.00271922    -0.00134295
C        -3.83573625     0.33737158    -0.29678017    -0.00008631     0.00058743     0.00026743
C        -2.56359936     0.62651798    -0.07412963    -0.00003999    -0.00010406     0.00096156
H        -4.34825076     1.27923559    -0.76491094    -0.00294296     0.00156985     0.00223225
H        -1.99349329    -0.31419629     0.23356261     0.00222480    -0.00054792     0.00276218
C        -1.94718763     1.78559938     0.21786811     0.00087478     0.00049565    -0.00075694
H        -2.39058076     2.73949089     0.51670303     0.00012015    -0.00268972    -0.00211221
N        -0.63582385     1.67797149     0.23728409    -0.00014002    -0.00003800     0.00001584
H         0.00749116     2.46260335     0.50578740    -0.00009883    -0.00064433    -0.00266751
H        -0.14789552     0.85277244    -0.13743116    -0.00127209     0.00005011     0.00172857
