    14
  Step:     0            Position(A)                                  Velocity(au)
C        -6.03173920    -0.86367915    -0.06533571     0.00010777    -0.00005515    -0.00009328
C        -4.64533640    -0.70310556     0.05596584    -0.00011907     0.00011090     0.00000333
H        -6.56935392     0.04645078    -0.28376948    -0.00026738    -0.00143850     0.00016854
H        -6.56003529    -1.76782061     0.19405933    -0.00023683     0.00013637     0.00048775
H        -4.09147286    -1.57715297     0.47537063     0.00026782     0.00058233    -0.00074044
C        -3.93758666     0.54261609    -0.08062089    -0.00014843    -0.00002819     0.00018643
C        -2.60048411     0.52497351     0.17295692     0.00004550     0.00020224    -0.00006238
H        -4.47632176     1.42687424    -0.40251293    -0.00081142     0.00040665    -0.00038366
H        -2.10815680    -0.37565128     0.58392814    -0.00053208    -0.00080261     0.00037929
C        -1.79035989     1.72113169    -0.00209197     0.00003122    -0.00015178    -0.00013752
H        -2.21615653     2.67091842    -0.37672956    -0.00003743    -0.00063256    -0.00005407
N        -0.54452498     1.73472141     0.22475155     0.00025016     0.00008024     0.00020350
H         0.05363120     2.59933311     0.16108875    -0.00062652     0.00005649    -0.00060157
H         0.03210721     0.95096593     0.57541274    -0.00024315    -0.00035273    -0.00085131
    14
  Step:     1            Position(A)                                  Velocity(au)
C        -6.03046288    -0.86417668    -0.06635015     0.00012540    -0.00003959    -0.00009100
C        -4.64667765    -0.70198288     0.05609100    -0.00012547     0.00009542     0.00001880
H        -6.57310366     0.03073650    -0.28222678    -0.00043513    -0.00139548     0.00010233
H        -6.56272128    -1.76668407     0.19932009    -0.00024599     0.00007516     0.00047232
H        -4.08859319    -1.57006304     0.46658282     0.00026410     0.00069769    -0.00085807
C        -3.93967568     0.54213829    -0.07865330    -0.00023470    -0.00005617     0.00017225
C        -2.59945374     0.52740513     0.17235084     0.00014220     0.00023941    -0.00004762
H        -4.48513824     1.43155371    -0.40678884    -0.00078220     0.00042252    -0.00038579
H        -2.11429564    -0.38396651     0.58772852    -0.00059443    -0.00069526     0.00030780
C        -1.79077137     1.71935501    -0.00373005    -0.00010116    -0.00017379    -0.00016102
H        -2.21670108     2.66324328    -0.37706401    -0.00006721    -0.00075402    -0.00001282
N        -0.54097094     1.73568995     0.22712527     0.00039287     0.00009619     0.00022915
H         0.04534441     2.59861043     0.15446821    -0.00086474    -0.00016887    -0.00060646
H         0.02835539     0.94746979     0.56573480    -0.00042522    -0.00029627    -0.00090956
    14
  Step:     2            Position(A)                                  Velocity(au)
C        -6.02899578    -0.86454523    -0.06732649     0.00014213    -0.00003140    -0.00008633
C        -4.64808132    -0.70101800     0.05637719    -0.00013051     0.00008267     0.00003252
H        -6.57887331     0.01592194    -0.28153080    -0.00063320    -0.00127933     0.00001495
H        -6.56541676    -1.76617643     0.20439224    -0.00023721     0.00002340     0.00045262
H        -4.08569520    -1.56188961     0.45659871     0.00027344     0.00077629    -0.00095726
C        -3.94272109     0.54138734    -0.07685267    -0.00032267    -0.00007855     0.00015610
C        -2.59737323     0.53021111     0.17191522     0.00023649     0.00027088    -0.00003150
H        -4.49343395     1.43611764    -0.41095291    -0.00071910     0.00038876    -0.00036407
H        -2.12116107    -0.39086134     0.59066188    -0.00066101    -0.00054796     0.00022357
C        -1.79257300     1.71732964    -0.00561465    -0.00021994    -0.00019739    -0.00018194
H        -2.21762698     2.65442288    -0.37701011    -0.00010932    -0.00083738     0.00001507
N        -0.53593018     1.73682583     0.22976457     0.00051846     0.00011026     0.00025151
H         0.03471335     2.59563865     0.14782122    -0.00104372    -0.00033926    -0.00060809
H         0.02280463     0.94448436     0.55551427    -0.00056496    -0.00026709    -0.00094745
    14
  Step:     3            Position(A)                                  Velocity(au)
C        -6.02735361    -0.86486372    -0.06823871     0.00015659    -0.00002981    -0.00007944
C        -4.64953290    -0.70017438     0.05680233    -0.00013404     0.00007392     0.00004399
H        -6.58695613     0.00274869    -0.28189969    -0.00085162    -0.00110536    -0.00008986
H        -6.56791077    -1.76617209     0.20922193    -0.00020854    -0.00001588     0.00042764
H        -4.08261124    -1.55308026     0.44564086     0.00029984     0.00081096    -0.00103468
C        -3.94673464     0.54041984    -0.07523823    -0.00041143    -0.00009644     0.00013840
C        -2.59428010     0.53333115     0.17166182     0.00032681     0.00029721    -0.00001454
H        -4.50087001     1.44005850    -0.41475366    -0.00062895     0.00031336    -0.00032080
H        -2.12875656    -0.39595423     0.59261958    -0.00072408    -0.00037136     0.00013244
C        -1.79558300     1.71503670    -0.00771023    -0.00031994    -0.00022288    -0.00019907
H        -2.21909270     2.64492393    -0.37673441    -0.00016742    -0.00087485     0.00002636
N        -0.52962873     1.73810214     0.23262754     0.00062073     0.00012127     0.00026971
H         0.02251099     2.59118848     0.14116506    -0.00114263    -0.00042527    -0.00061025
H         0.01599574     0.94162665     0.54500744    -0.00065020    -0.00027878    -0.00096013
    14
  Step:     4            Position(A)                                  Velocity(au)
C        -6.02557012    -0.86519736    -0.06906435     0.00016686    -0.00003321    -0.00007079
C        -4.65101375    -0.69940088     0.05733954    -0.00013541     0.00007050     0.00005287
H        -6.59750412    -0.00825986    -0.28349663    -0.00107502    -0.00089688    -0.00020601
H        -6.56997902    -1.76652382     0.21374768    -0.00015953    -0.00004169     0.00039700
H        -4.07913558    -1.54414823     0.43396302     0.00034586     0.00079741    -0.00108821
C        -3.95172201     0.53927764    -0.07382495    -0.00050074    -0.00011133     0.00011950
C        -2.59022357     0.53671309     0.17159714     0.00041249     0.00031928     0.00000279
H        -4.50719345     1.44297295    -0.41797106    -0.00052010     0.00020665    -0.00025921
H        -2.13700168    -0.39898562     0.59355922    -0.00077614    -0.00017696     0.00004051
C        -1.79957227     1.71245363    -0.00996958    -0.00039791    -0.00025055    -0.00021154
H        -2.22128954     2.63528378    -0.37643342    -0.00024354    -0.00086195     0.00001907
N        -0.52235055     1.73947886     0.23566491     0.00069566     0.00012809     0.00028332
H         0.00971605     2.58633502     0.13447073    -0.00114643    -0.00040319    -0.00061732
H         0.00858015     0.93838549     0.53450961    -0.00067377    -0.00033989    -0.00094568
    14
  Step:     5            Position(A)                                  Velocity(au)
C        -6.02370313    -0.86559019    -0.06978748     0.00017065    -0.00003953    -0.00006111
C        -4.65249525    -0.69863197     0.05795890    -0.00013361     0.00007347     0.00005901
H        -6.61047420    -0.01687216    -0.28640663    -0.00128428    -0.00068160    -0.00032569
H        -6.57140074    -1.76708406     0.21790713    -0.00009117    -0.00005485     0.00036093
H        -4.07504489    -1.53563537     0.42183427     0.00041186     0.00073509    -0.00111727
C        -3.95768919     0.53798420    -0.07262399    -0.00059029    -0.00012482     0.00009978
C        -2.58525600     0.54031599     0.17172296     0.00049301     0.00033803     0.00002006
H        -4.51224825     1.44457932    -0.42042434    -0.00040156     0.00007997    -0.00018324
H        -2.14573601    -0.39982555     0.59350586    -0.00081013     0.00002304    -0.00004629
C        -1.80428814     1.70955533    -0.01233818    -0.00045274    -0.00028031    -0.00021897
H        -2.22442069     2.62606702    -0.37631730    -0.00033756    -0.00079883    -0.00000708
N        -0.51440993     1.74090434     0.23882566     0.00074195     0.00012988     0.00029244
H        -0.00256945     2.58236791     0.12766009    -0.00104967    -0.00026112    -0.00063332
H         0.00125576     0.93419086     0.52431884    -0.00063489    -0.00045145    -0.00090568
    14
  Step:     6            Position(A)                                  Velocity(au)
C        -6.02183688    -0.86606205    -0.07040117     0.00016581    -0.00004662    -0.00005121
C        -4.65393683    -0.69779354     0.05863056    -0.00012789     0.00008293     0.00006263
H        -6.62560014    -0.02317116    -0.29062173    -0.00145953    -0.00048661    -0.00044047
H        -6.57197361    -1.76772369     0.22164374    -0.00000580    -0.00005776     0.00032013
H        -4.07012537    -1.52806665     0.40952052     0.00049550     0.00062784    -0.00112318
C        -3.96463582     0.53654706    -0.07164198    -0.00067837    -0.00013782     0.00007978
C        -2.57943801     0.54410816     0.17203602     0.00056648     0.00035384     0.00003671
H        -4.51597837     1.44472236    -0.42197979    -0.00028237    -0.00005517    -0.00009768
H        -2.15472493    -0.39848155     0.59254652    -0.00081959     0.00021583    -0.00012273
C        -1.80947675     1.70632131    -0.01475997    -0.00048496    -0.00031099    -0.00022152
H        -2.22867422     2.61780780    -0.37658835    -0.00044667    -0.00069131    -0.00005016
N        -0.50611907     1.74232034     0.24206259     0.00076125     0.00012646     0.00029760
H        -0.01324740     2.58062251     0.12061574    -0.00085989    -0.00000580    -0.00066060
H        -0.00530919     0.92850920     0.51469606    -0.00053983    -0.00060514    -0.00084523
    14
  Step:     7            Position(A)                                  Velocity(au)
C        -6.02007573    -0.86661015    -0.07090786     0.00015114    -0.00005264    -0.00004189
C        -4.65529315    -0.69681771     0.05932901    -0.00011839     0.00009748     0.00006425
H        -6.64240426    -0.02751769    -0.29604265    -0.00158366    -0.00033361    -0.00054274
H        -6.57152752    -1.76834760     0.22491069     0.00009316    -0.00005403     0.00027565
H        -4.06420492    -1.52190024     0.39726264     0.00059139     0.00048408    -0.00110922
C        -3.97252984     0.53496911    -0.07087866    -0.00076091    -0.00015016     0.00006021
C        -2.57286311     0.54805682     0.17252607     0.00062879     0.00036604     0.00005207
H        -4.51842554     1.44337230    -0.42256124    -0.00017125    -0.00018743    -0.00000813
H        -2.16366609    -0.39510379     0.59082081    -0.00079882     0.00038845    -0.00018439
C        -1.81489751     1.70275179    -0.01718432    -0.00049596    -0.00033994    -0.00021996
H        -2.23419253     2.61094338    -0.37741473    -0.00056543    -0.00055100    -0.00010591
N        -0.49775622     1.74367100     0.24533613     0.00075765     0.00011856     0.00029951
H        -0.02138117     2.58224102     0.11320825    -0.00059866     0.00033332    -0.00069827
H        -0.01055394     0.92095230     0.50582773    -0.00040127    -0.00078316    -0.00077237
    14
  Step:     8            Position(A)                                  Velocity(au)
C        -6.01853044    -0.86721364    -0.07131758     0.00012664    -0.00005622    -0.00003370
C        -4.65652690    -0.69566102     0.06003615    -0.00010611     0.00011450     0.00006459
H        -6.66024576    -0.03046955    -0.30249521    -0.00164507    -0.00023604    -0.00062696
H        -6.56993545    -1.76890579     0.22767413     0.00020138    -0.00004809     0.00022874
H        -4.05718760    -1.51747651     0.38525431     0.00069119     0.00031646    -0.00108045
C        -3.98128217     0.53326192    -0.07032470    -0.00083276    -0.00016091     0.00004188
C        -2.56568192     0.55211599     0.17317508     0.00067485     0.00037325     0.00006550
H        -4.51972485     1.44062189    -0.42215774    -0.00007653    -0.00030568     0.00007949
H        -2.17220064    -0.38998342     0.58851255    -0.00074344     0.00052858    -0.00022734
C        -1.82032675     1.69888454    -0.01957195    -0.00048731    -0.00036342    -0.00021546
H        -2.24104410     2.60575371    -0.37890540    -0.00068617    -0.00039405    -0.00016814
N        -0.48954393     1.74491411     0.24861494     0.00073669     0.00010787     0.00029882
H        -0.02634431     2.58791457     0.10533971    -0.00029848     0.00070634    -0.00074130
H        -0.01408769     0.91137601     0.49779904    -0.00023623    -0.00096052    -0.00069672
    14
  Step:     9            Position(A)                                  Velocity(au)
C        -6.01730520    -0.86783999    -0.07164506     0.00009325    -0.00005661    -0.00002696
C        -4.65761447    -0.69431291     0.06074193    -0.00009216     0.00013103     0.00006430
H        -6.67839328    -0.03268148    -0.30975867    -0.00163895    -0.00019840    -0.00069007
H        -6.56712188    -1.76939962     0.22991486     0.00031400    -0.00004465     0.00018087
H        -4.04908374    -1.51497704     0.37362577     0.00078448     0.00014046    -0.00104278
C        -3.99074797     0.53144895    -0.06996237    -0.00088969    -0.00016916     0.00002545
C        -2.55809956     0.55622240     0.17395909     0.00070068     0.00037407     0.00007664
H        -4.52009983     1.43668500    -0.42082218    -0.00000589    -0.00039903     0.00015969
H        -2.17993025    -0.38353998     0.58584722    -0.00065087     0.00062560    -0.00024808
C        -1.82555827     1.69480121    -0.02189801    -0.00046076    -0.00037768    -0.00020937
H        -2.24920388     2.60232281    -0.38109315    -0.00079997    -0.00023878    -0.00022970
N        -0.48163977     1.74603084     0.25187344     0.00070421     0.00009670     0.00029591
H        -0.02791100     2.59769366     0.09699088     0.00000406     0.00105268    -0.00078105
H        -0.01572188     0.89993904     0.49058573    -0.00006294    -0.00110951    -0.00062767
    14
  Step:    10            Position(A)                                  Velocity(au)
C        -6.01649049    -0.86845213    -0.07190728     0.00005237    -0.00005367    -0.00002179
C        -4.65854306    -0.69279452     0.06144290    -0.00007735     0.00014442     0.00006394
H        -6.69610099    -0.03480990    -0.31759174    -0.00156684    -0.00021771    -0.00073117
H        -6.56306612    -1.76988255     0.23163104     0.00042600    -0.00004835     0.00013365
H        -4.04002568    -1.51440365     0.36244149     0.00086020    -0.00002775    -0.00100185
C        -4.00074583     0.52956122    -0.06976792    -0.00092924    -0.00017446     0.00001136
C        -2.55035324     0.56029949     0.17485178     0.00070436     0.00036747     0.00008540
H        -4.51985376     1.43189244    -0.41866412     0.00003403    -0.00045733     0.00022773
H        -2.18643975    -0.37629733     0.58308528    -0.00052076     0.00067170    -0.00024405
C        -1.83040670     1.69062214    -0.02415226    -0.00041835    -0.00037957    -0.00020294
H        -2.25854506     2.60052996    -0.38393061    -0.00089783    -0.00010284    -0.00028365
N        -0.47413794     1.74702955     0.25508859     0.00066558     0.00008734     0.00029091
H        -0.02625555     2.61094402     0.08825271     0.00027627     0.00131524    -0.00080739
H        -0.01546451     0.88710344     0.48406762     0.00010230    -0.00120493    -0.00057265
    14
  Step:    11            Position(A)                                  Velocity(au)
C        -6.01615949    -0.86901408    -0.07212181     0.00000569    -0.00004768    -0.00001821
C        -4.65930655    -0.69115344     0.06214066    -0.00006219     0.00015252     0.00006386
H        -6.71267080    -0.03744436    -0.32575451    -0.00143525    -0.00028580    -0.00075121
H        -6.55780241    -1.77045733     0.23283872     0.00053251    -0.00006337     0.00008876
H        -4.03026527    -1.51558416     0.35170833     0.00090840    -0.00017365    -0.00096219
C        -4.01107695     0.52763236    -0.06971390    -0.00095045    -0.00017666    -0.00000015
C        -2.54269024     0.56426157     0.17582748     0.00068575     0.00035278     0.00009197
H        -4.51935533     1.42667995    -0.41584014     0.00003834    -0.00047220     0.00027995
H        -2.19132288    -0.36884527     0.58050809    -0.00035518     0.00066315    -0.00021429
C        -1.83471039     1.68649740    -0.02633775    -0.00036225    -0.00036690    -0.00019728
H        -2.26884570     2.60007306    -0.38729854    -0.00097191    -0.00000055    -0.00032427
N        -0.46707897     1.74794159     0.25823755     0.00062496     0.00008146     0.00028378
H        -0.02186700     2.62646716     0.07932776     0.00049546     0.00145306    -0.00081140
H        -0.01348385     0.87357895     0.47805794     0.00024728    -0.00122841    -0.00053612
    14
  Step:    12            Position(A)                                  Velocity(au)
C        -6.01636591    -0.86949521    -0.07230561    -0.00004496    -0.00003924    -0.00001610
C        -4.65990365    -0.68945786     0.06283999    -0.00004716     0.00015375     0.00006428
H        -6.72749988    -0.04106231    -0.33402600    -0.00125416    -0.00039150    -0.00075237
H        -6.55141647    -1.77126879     0.23357274     0.00062914    -0.00009310     0.00004775
H        -4.02015272    -1.51820259     0.34139177     0.00092167    -0.00028623    -0.00092666
C        -4.02153876     0.52569654    -0.06977111    -0.00095341    -0.00017572    -0.00000898
C        -2.53535119     0.56801724     0.17686370     0.00064598     0.00032956     0.00009670
H        -4.51901507     1.42156214    -0.41253971     0.00000457    -0.00043831     0.00031415
H        -2.19421001    -0.36178958     0.57839727    -0.00015873     0.00060131    -0.00015998
C        -1.83833169     1.68259545    -0.02846806    -0.00029462    -0.00033854    -0.00019317
H        -2.27980745     2.60051787    -0.39102470    -0.00101644     0.00005893    -0.00034782
N        -0.46046582     1.74881162     0.26129678     0.00058504     0.00007977     0.00027449
H        -0.01541640     2.64273251     0.07050184     0.00065107     0.00144768    -0.00078756
H        -0.01005480     0.86022955     0.47233890     0.00036483    -0.00117080    -0.00051938
    14
  Step:    13            Position(A)                                  Velocity(au)
C        -6.01714304    -0.86987253    -0.07247401    -0.00009772    -0.00002912    -0.00001528
C        -4.66033816    -0.68778988     0.06354696    -0.00003275     0.00014715     0.00006524
H        -6.74010786    -0.04600918    -0.34221411    -0.00103547    -0.00052242    -0.00073764
H        -6.54403887    -1.77249415     0.23388340     0.00071222    -0.00013989     0.00001186
H        -4.01010197    -1.52184591     0.33143576     0.00089601    -0.00035898    -0.00089641
C        -4.03193466     0.52378826    -0.06991037    -0.00093902    -0.00017155    -0.00001524
C        -2.52855815     0.57147128     0.17794294     0.00058720     0.00029757     0.00010012
H        -4.51925530     1.41709111    -0.40896748    -0.00006673    -0.00035468     0.00032998
H        -2.19479537    -0.35569042     0.57700813     0.00006159     0.00049339    -0.00008482
C        -1.84115583     1.67909121    -0.03056368    -0.00021748    -0.00029448    -0.00019107
H        -2.29108217     2.60136222    -0.39490783    -0.00102815     0.00007235    -0.00035277
N        -0.45428009     1.74968677     0.26424246     0.00054714     0.00008215     0.00026304
H        -0.00762350     2.65813802     0.06209848     0.00074328     0.00130228    -0.00073449
H        -0.00550243     0.84796541     0.46669544     0.00045265    -0.00103250    -0.00052100
    14
  Step:    14            Position(A)                                  Velocity(au)
C        -6.01850373    -0.87013228    -0.07263986    -0.00015075    -0.00001822    -0.00001548
C        -4.66062022    -0.68623872     0.06426721    -0.00001962     0.00013235     0.00006663
H        -6.75015271    -0.05249133    -0.35016332    -0.00079221    -0.00066586    -0.00071062
H        -6.53583530    -1.77432908     0.23383225     0.00077911    -0.00020459    -0.00001815
H        -4.00055079    -1.52605597     0.32178108     0.00083094    -0.00038996    -0.00087108
C        -4.04208159     0.52194357    -0.07010444    -0.00090877    -0.00016390    -0.00001918
C        -2.52250498     0.57452714     0.17905404     0.00051231     0.00025684     0.00010284
H        -4.52047498     1.41380278    -0.40532076    -0.00017167    -0.00022580     0.00032930
H        -2.19286256    -0.35099568     0.57654163     0.00029674     0.00035227     0.00000514
C        -1.84308941     1.67615315    -0.03264803    -0.00013274    -0.00023586    -0.00019107
H        -2.30230020     2.60210064    -0.39874212    -0.00100622     0.00004184    -0.00033960
N        -0.44849612     1.75060880     0.26705131     0.00051148     0.00008791     0.00024954
H         0.00084438     2.67122237     0.05443349     0.00077968     0.00103597    -0.00065452
H        -0.00015227     0.83764157     0.46094106     0.00051238    -0.00082221    -0.00053763
    14
  Step:    15            Position(A)                                  Velocity(au)
C        -6.02044103    -0.87027116    -0.07281261    -0.00020230    -0.00000756    -0.00001634
C        -4.66076744    -0.68489447     0.06500454    -0.00000847     0.00010955     0.00006823
H        -6.75743895    -0.06057619    -0.35776036    -0.00053797    -0.00080924    -0.00067540
H        -6.52699446    -1.77696987     0.23348631     0.00082830    -0.00028632    -0.00004211
H        -3.99192351    -1.53037697     0.31237926     0.00072916    -0.00038122    -0.00084926
C        -4.05181579     0.52020267    -0.07032987    -0.00086462    -0.00015227    -0.00002121
C        -2.51735046     0.57709014     0.18019269     0.00042470     0.00020776     0.00010544
H        -4.52301083     1.41215121    -0.40176352    -0.00030293    -0.00006211     0.00031625
H        -2.18830354    -0.34798390     0.57712055     0.00053635     0.00019505     0.00010208
C        -1.84405978     1.67393124    -0.03474375    -0.00004229    -0.00016488    -0.00019296
H        -2.31309507     2.60227755    -0.40233724    -0.00095188    -0.00002616    -0.00031045
N        -0.44309056     1.75160996     0.26970157     0.00047757     0.00009614     0.00023415
H         0.00943347     2.68080188     0.04777960     0.00077190     0.00067717    -0.00055261
H         0.00570683     0.82997800     0.45493379     0.00054845    -0.00055469    -0.00056488
    14
  Step:    16            Position(A)                                  Velocity(au)
C        -6.02292944    -0.87029766    -0.07299742    -0.00025073     0.00000172    -0.00001744
C        -4.66080553    -0.68384219     0.06575996    -0.00000003     0.00007943     0.00006978
H        -6.76192180    -0.07019506    -0.36493904    -0.00028665    -0.00094023    -0.00063650
H        -6.51771469    -1.78059291     0.23291107     0.00085952    -0.00038229    -0.00006049
H        -3.98459908    -1.53439583     0.30320191     0.00059586    -0.00033801    -0.00082891
C        -4.06099672     0.51861229    -0.07056854    -0.00080879    -0.00013602    -0.00002188
C        -2.51321393     0.57907220     0.18136082     0.00032809     0.00015120     0.00010844
H        -4.52710211     1.41244402    -0.39840225    -0.00045048     0.00012078     0.00029685
H        -2.18112893    -0.34672865     0.57877489     0.00076954     0.00004073     0.00019743
C        -1.84401467     1.67254613    -0.03686937     0.00005201    -0.00008459    -0.00019622
H        -2.32312440     2.60152833    -0.40553391    -0.00086806    -0.00012213    -0.00026863
N        -0.43804843     1.75271205     0.27217368     0.00044448     0.00010592     0.00021709
H         0.01773119     2.68603667     0.04234403     0.00073323     0.00025824    -0.00043533
H         0.01184609     0.82550664     0.44858317     0.00056698    -0.00024861    -0.00059801
    14
  Step:    17            Position(A)                                  Velocity(au)
C        -6.02592623    -0.87023360    -0.07319421    -0.00029453     0.00000833    -0.00001825
C        -4.66076806    -0.68315688     0.06653109     0.00000502     0.00004310     0.00007094
H        -6.76371002    -0.08114556    -0.37168501    -0.00005236    -0.00104672    -0.00059888
H        -6.50819084    -1.78533319     0.23216290     0.00087361    -0.00048778    -0.00007447
H        -3.97888785    -1.53777163     0.29424531     0.00043799    -0.00026778    -0.00080774
C        -4.06950972     0.51722694    -0.07080852    -0.00074369    -0.00011447    -0.00002173
C        -2.51017292     0.58039800     0.18256509     0.00022629     0.00008866     0.00011215
H        -4.53286601     1.41479348    -0.39526931    -0.00060275     0.00030403     0.00027812
H        -2.17146840    -0.34709282     0.58143976     0.00098584    -0.00009255     0.00028299
C        -1.84292191     1.67208058    -0.03903647     0.00014834     0.00000126    -0.00020014
H        -2.33208555     2.59960576    -0.40821401    -0.00075890    -0.00023470    -0.00021813
N        -0.43336673     1.75392719     0.27445075     0.00041103     0.00011642     0.00019863
H         0.02547425     2.68645144     0.03825590     0.00067731    -0.00018751    -0.00031013
H         0.01811069     0.82453909     0.44185118     0.00057507     0.00007516    -0.00063235
    14
  Step:    18            Position(A)                                  Velocity(au)
C        -6.02937290    -0.87011551    -0.07339673    -0.00033234     0.00001089    -0.00001818
C        -4.66069562    -0.68289935     0.06731195     0.00000611     0.00000202     0.00007139
H        -6.76306722    -0.09309402    -0.37804060     0.00015091    -0.00111697    -0.00056787
H        -6.49860285    -1.79126399     0.23128188     0.00087228    -0.00059643    -0.00008578
H        -3.97501717    -1.54025407     0.28553098     0.00026353    -0.00017935    -0.00078351
C        -4.07726637     0.51610810    -0.07104396    -0.00067167    -0.00008713    -0.00002128
C        -2.50826333     0.58101177     0.18381441     0.00012304     0.00002220     0.00011666
H        -4.54028848     1.41909535    -0.39231795    -0.00074809     0.00046842     0.00026691
H        -2.15956183    -0.34875326     0.58496574     0.00117592    -0.00019001     0.00035195
C        -1.84076946     1.67257365    -0.04124779     0.00024487     0.00008856    -0.00020385
H        -2.33972669     2.59639375    -0.41030600    -0.00062937    -0.00035170    -0.00016332
N        -0.42905626     1.75525893     0.27651906     0.00037592     0.00012687     0.00017909
H         0.03254872     2.68193455     0.03555932     0.00061786    -0.00062704    -0.00018504
H         0.02442681     0.82715087     0.43474932     0.00058021     0.00039486    -0.00066361
    14
  Step:    19            Position(A)                                  Velocity(au)
C        -6.03319684    -0.86999541    -0.07359192    -0.00036295     0.00000800    -0.00001659
C        -4.66063443    -0.68311279     0.06809295     0.00000278    -0.00004208     0.00007081
H        -6.76040854    -0.10558139    -0.38410822     0.00030981    -0.00114008    -0.00054901
H        -6.48910804    -1.79838122     0.23028631     0.00085774    -0.00070083    -0.00009653
H        -3.97312263    -1.54169526     0.27710444     0.00008109    -0.00008240    -0.00075414
C        -4.08420379     0.51532077    -0.07127398    -0.00059497    -0.00005395    -0.00002088
C        -2.50748109     0.58088371     0.18511726     0.00002183    -0.00004557     0.00012180
H        -4.54923187     1.42504105    -0.38943015    -0.00087619     0.00059718     0.00026890
H        -2.14574292    -0.35124968     0.58913927     0.00133218    -0.00024194     0.00039964
C        -1.83756487     1.67401800    -0.04349607     0.00033987     0.00017309    -0.00020643
H        -2.34585432     2.59191155    -0.41178699    -0.00048507    -0.00046087    -0.00010863
N        -0.42514279     1.75670277     0.27836875     0.00033774     0.00013654     0.00015887
H         0.03899101     2.67273379     0.03420771     0.00056873    -0.00102769    -0.00006860
H         0.03080397     0.83317750     0.42733338     0.00058997     0.00068886    -0.00068806
    14
  Step:    20            Position(A)                                  Velocity(au)
C        -6.03731320    -0.86994043    -0.07375972    -0.00038538    -0.00000159    -0.00001288
C        -4.66063473    -0.68381992     0.06886097    -0.00000525    -0.00008722     0.00006887
H        -6.75628956    -0.11803552    -0.39005120     0.00041273    -0.00110697    -0.00054759
H        -6.47983813    -1.80659588     0.22917010     0.00083224    -0.00079330    -0.00010892
H        -3.97324324    -1.54205662     0.26903276    -0.00010044     0.00001297    -0.00071778
C        -4.09028245     0.51492789    -0.07150079    -0.00051559    -0.00001541    -0.00002073
C        -2.50778585     0.58001475     0.18647909    -0.00007427    -0.00011176     0.00012721
H        -4.55945675     1.43215975    -0.38643519    -0.00097914     0.00067830     0.00028780
H        -2.13041788    -0.35404627     0.59370861     0.00144907    -0.00024430     0.00042378
C        -1.83333413     1.67636031    -0.04576376     0.00043173     0.00025080    -0.00020696
H        -2.35033847     2.58631144    -0.41268256    -0.00033191    -0.00055040    -0.00005840
N        -0.42166748     1.75824595     0.27999462     0.00029512     0.00014463     0.00013843