|===============================================================================
|
|  DFTB+ release 20.1
|
|  Copyright (C) 2006 - 2020  DFTB+ developers group
|
|===============================================================================
|
|  When publishing results obtained with DFTB+, please cite the following
|  reference:
|
|  * DFTB+, a software package for efficient approximate density functional
|    theory based atomistic simulations, J. Chem. Phys. 152, 124101 (2020).
|    [doi: 10.1063/1.5143190]
|
|  You should also cite additional publications crediting the parametrization
|  data you use. Please consult the documentation of the SK-files for the
|  references.
|
|===============================================================================

Reading input file 'dftb_in.hsd'
Parser version: 8

--------------------------------------------------------------------------------
Reading SK-files:
Done.


Processed input in HSD format written to 'dftb_pin.hsd'

Starting initialization...
--------------------------------------------------------------------------------
WARNING!
-> Excited state forces are not implemented yet for fractional occupations, kT=  0.3158E-02K
OpenMP threads:              1
Chosen random seed:          508199538
Mode:                        Static calculation
Self consistent charges:     Yes
SCC-tolerance:                 0.100000E-05
Max. scc iterations:                    100
Shell resolved Hubbard:      No
Spin polarisation:           No
Nr. of up electrons:             6.000000
Nr. of down electrons:           6.000000
Periodic boundaries:         No
Electronic solver:           Relatively robust
Mixer:                       Broyden mixer
Mixing parameter:                  0.200000
Maximal SCC-cycles:                     100
Nr. of chrg. vec. in memory:              0
Electronic temperature:        0.100000E-07 H      0.272114E-06 eV
Initial charges:             Set automatically (system chrg:   0.100E+01)
Included shells:             C:  s, p
                             N:  s, p
                             H:  s
Extra options:
                             Mulliken analysis
                             Force calculation
Force type                   original
                             Eigenvector printing

--------------------------------------------------------------------------------

***  Geometry step: 0

 iSCC Total electronic   Diff electronic      SCC error    
    1   -0.52692976E+01    0.00000000E+00    0.10409082E+01
    2   -0.52875887E+01   -0.18291104E-01    0.66552054E+00
    3   -0.52955070E+01   -0.79182870E-02    0.24847587E+00
    4   -0.50705339E+01    0.22497311E+00    0.15600054E+01
    5   -0.52984975E+01   -0.22796361E+00    0.54164696E-01
    6   -0.52987431E+01   -0.24555037E-03    0.11060281E-01
    7   -0.52987447E+01   -0.15722752E-05    0.75115910E-02
    8   -0.52987457E+01   -0.10816873E-05    0.43197958E-02
    9   -0.52987461E+01   -0.32225377E-06    0.36798362E-02
   10   -0.52987470E+01   -0.94291825E-06    0.12571240E-02
   11   -0.52987470E+01   -0.31740418E-07    0.10801186E-02
   12   -0.52987471E+01   -0.91039204E-07    0.11509823E-04
   13   -0.52987471E+01   -0.10492052E-10    0.23676236E-07
>> Charges saved for restart in charges.bin

Total Energy:                       -5.0585390530 H         -137.6499 eV
Extrapolated to 0:                  -5.1509381987 H         -140.1642 eV
Total Mermin free energy:           -5.0585390530 H         -137.6499 eV
Force related energy:               -5.1509381987 H         -140.1642 eV

--------------------------------------------------------------------------------
DFTB+ running times                          cpu [s]             wall clock [s]
--------------------------------------------------------------------------------
SCC                                    +     0.01  ( 69.9%)      0.07  ( 76.1%)
Post-SCC processing                    +     0.00  ( 22.7%)      0.02  ( 17.4%)
--------------------------------------------------------------------------------
Missing                                +     0.00  (  7.5%)      0.01  (  6.5%)
Total                                  =     0.02  (100.0%)      0.09  (100.0%)
--------------------------------------------------------------------------------
