 Fermi distribution function

Calculation with static geometry


********************************************************************************
 iSCC Total electronic   Diff electronic      SCC error    
    9   -0.54750845E+01   -0.72830630E-13    0.28107026E-06
********************************************************************************

 Total charge:     1.00000000

 Atomic gross charges (e)
 Atom           Charge
    1       0.17294089
    2      -0.03244949
    3       0.15735451
    4       0.26429447
    5       0.27755287
    6       0.16030675

Nr. of electrons (up):     12.00000000
Atom populations (up)
 Atom       Population
    1       3.82705911
    2       5.03244949
    3       0.84264549
    4       0.73570553
    5       0.72244713
    6       0.83969325

l-shell populations (up)
 Atom Sh.   l       Population
    1   1   0       1.27470148
    1   2   1       2.55235764
    2   1   0       1.41400835
    2   2   1       3.61844114
    3   1   0       0.84264549
    4   1   0       0.73570553
    5   1   0       0.72244713
    6   1   0       0.83969325

Orbital populations (up)
 Atom Sh.   l   m       Population  Label
    1   1   0   0       1.27470148  s
    1   2   1  -1       0.61197190  p_y
    1   2   1   0       0.88695133  p_z
    1   2   1   1       1.05343440  p_x
    2   1   0   0       1.41400835  s
    2   2   1  -1       1.34007378  p_y
    2   2   1   0       1.11620825  p_z
    2   2   1   1       1.16215911  p_x
    3   1   0   0       0.84264549  s
    4   1   0   0       0.73570553  s
    5   1   0   0       0.72244713  s
    6   1   0   0       0.83969325  s

Fermi level:                        -0.4843853429 H          -13.1808 eV
Band energy:                        -9.0368624654 H         -245.9055 eV
TS:                                  0.0000000000 H            0.0000 eV
Band free energy (E-TS):            -9.0368624654 H         -245.9055 eV
Extrapolated E(0K):                 -9.0368624654 H         -245.9055 eV
Input / Output electrons (q):     12.0000000000     12.0000000000

Energy H0:                          -5.6104187451 H         -152.6673 eV
Energy SCC:                          0.1353342290 H            3.6826 eV
Total Electronic energy:            -5.4750845161 H         -148.9846 eV
Repulsive energy:                    0.2208338055 H            6.0092 eV
Total energy:                       -5.2542507106 H         -142.9754 eV
Extrapolated to 0:                  -5.2542507106 H         -142.9754 eV
Total Mermin free energy:           -5.2542507106 H         -142.9754 eV
Force related energy:               -5.2542507106 H         -142.9754 eV

SCC converged

Excitation Energy:                   0.1872503154 H            5.0953 eV

Total Forces
    1      0.004714884781      0.005731319336     -0.050973760675
    2     -0.011179589450     -0.009964615596      0.046020291968
    3      0.004949234454     -0.007567440340     -0.000156436212
    4      0.002191683891      0.006356309518      0.007083265696
    5      0.008581550673     -0.001318649945      0.000286482425
    6     -0.009257764349      0.006763077026     -0.002259843202

Maximal derivative component:        0.509738E-01 au


