|===============================================================================
|
|  DFTB+ release 20.1
|
|  Copyright (C) 2006 - 2020  DFTB+ developers group
|
|===============================================================================
|
|  When publishing results obtained with DFTB+, please cite the following
|  reference:
|
|  * DFTB+, a software package for efficient approximate density functional
|    theory based atomistic simulations, J. Chem. Phys. 152, 124101 (2020).
|    [doi: 10.1063/1.5143190]
|
|  You should also cite additional publications crediting the parametrization
|  data you use. Please consult the documentation of the SK-files for the
|  references.
|
|===============================================================================

Reading input file 'dftb_in.hsd'
Parser version: 8

--------------------------------------------------------------------------------
Reading SK-files:
Done.


Processed input in HSD format written to 'dftb_pin.hsd'

Starting initialization...
--------------------------------------------------------------------------------
OpenMP threads:              1
Chosen random seed:          500221257
Mode:                        Static calculation
Self consistent charges:     Yes
SCC-tolerance:                 0.100000E-05
Max. scc iterations:                   1000
Shell resolved Hubbard:      No
Spin polarisation:           No
Nr. of up electrons:            16.000000
Nr. of down electrons:          16.000000
Periodic boundaries:         No
Electronic solver:           Relatively robust
Maximal SCC-cycles:                    1000
Initial charges:             Set automatically (system chrg:   0.100E+01)
Included shells:             C:  s, p
                             H:  s
                             N:  s, p
Spin coupling constants:     C   1(s)-1(s):  -0.455900E-01
                             C   1(s)-2(p):  -0.293000E-01
                             C   2(p)-1(s):  -0.293000E-01
                             C   2(p)-2(p):  -0.275500E-01
                             H   1(s)-1(s):  -0.792500E-01
                             N   1(s)-1(s):  -0.468700E-01
                             N   1(s)-2(p):  -0.317000E-01
                             N   2(p)-1(s):  -0.317000E-01
                             N   2(p)-2(p):  -0.307200E-01
Range separated hybrid:      Yes
  Screening parameter omega:   0.300000E+00
  Range separated algorithm:   MatrixBased
Extra options:
                             Mulliken analysis
                             Force calculation
Force type                   original
                             Eigenvector printing


REKS Calcuation:             Yes
SSR(2,2) Calcuation:         Yes
Energy Functional:           (PPS+OSS)/2
Number of Core Orbitals:                 15
Number of Active Orbitals:                2
Number of Basis:                         32
Number of States:                         2
State-Averaging Weight:          0.500000
                                 0.500000
State of Interest:                        1
Initial Guess:               Diagonalize H0 matrix
Newton-Raphson for FON opt:  Yes
NR max. Iterations:                      50
Level Shifting:              Yes
Shift Value:                     0.300000
W Scale Factor:              C  =    3.200000
                             H  =    3.200000
                             N  =    3.200000
Transition Dipole:           No
Gradient of Microstate:      No
CP-REKS Solver:              Preconditioned Conjugate-Gradient
CG max. Iterations:                     100
CG Tolerance:                  0.100000E-07
Memory for A and Hxc:        Direct Updating Without Saving
Non-Adiabatic Coupling:      Yes

--------------------------------------------------------------------------------

***  Geometry step: 0

  iSCC       reks energy        Diff energy         x_a       SCC error   
    1      -16.3732672127       0.0000000000     0.999670    1.19271415
    2      -16.3885203502      -0.0152531375     0.999934    0.04536469
    3      -16.3913207550      -0.0028004048     0.999967    0.01484161
    4      -16.3923352707      -0.0010145157     0.999977    0.00713910
    5      -16.3928070845      -0.0004718138     0.999983    0.00526837
    6      -16.3930542172      -0.0002471327     0.999985    0.00405447
    7      -16.3931922561      -0.0001380389     0.999987    0.00310467
    8      -16.3932724544      -0.0000801983     0.999988    0.00237750
    9      -16.3933204243      -0.0000479698     0.999989    0.00182609
   10      -16.3933498496      -0.0000294253     0.999990    0.00140947
   11      -16.3933683338      -0.0000184842     0.999990    0.00109469
   12      -16.3933802161      -0.0000118823     0.999990    0.00085625
   13      -16.3933880272      -0.0000078110     0.999991    0.00067487
   14      -16.3933932727      -0.0000052455     0.999991    0.00053613
   15      -16.3933968666      -0.0000035939     0.999991    0.00042931
   16      -16.3933993746      -0.0000025080     0.999991    0.00035405
   17      -16.3934011540      -0.0000017794     0.999991    0.00031136
   18      -16.3934024352      -0.0000012812     0.999991    0.00027333
   19      -16.3934033696      -0.0000009344     0.999991    0.00023966
   20      -16.3934040586      -0.0000006890     0.999991    0.00020998
   21      -16.3934045715      -0.0000005129     0.999991    0.00018389
   22      -16.3934049564      -0.0000003849     0.999991    0.00016102
   23      -16.3934052473      -0.0000002908     0.999991    0.00014100
   24      -16.3934054683      -0.0000002210     0.999991    0.00012348
   25      -16.3934056370      -0.0000001687     0.999991    0.00010817
   26      -16.3934057664      -0.0000001294     0.999991    0.00009479
   27      -16.3934058659      -0.0000000995     0.999991    0.00008310
   28      -16.3934059426      -0.0000000768     0.999991    0.00007288
   29      -16.3934060020      -0.0000000594     0.999991    0.00006395
   30      -16.3934060480      -0.0000000460     0.999991    0.00005614
   31      -16.3934060836      -0.0000000357     0.999991    0.00004930
   32      -16.3934061114      -0.0000000277     0.999992    0.00004332
   33      -16.3934061330      -0.0000000216     0.999992    0.00003808
   34      -16.3934061498      -0.0000000168     0.999992    0.00003349
   35      -16.3934061629      -0.0000000131     0.999992    0.00002946
   36      -16.3934061731      -0.0000000102     0.999992    0.00002593
   37      -16.3934061811      -0.0000000080     0.999992    0.00002283
   38      -16.3934061873      -0.0000000062     0.999992    0.00002011
   39      -16.3934061922      -0.0000000049     0.999992    0.00001772
   40      -16.3934061960      -0.0000000038     0.999992    0.00001561
   41      -16.3934061989      -0.0000000030     0.999992    0.00001377
   42      -16.3934062013      -0.0000000023     0.999992    0.00001214
   43      -16.3934062031      -0.0000000018     0.999992    0.00001071
   44      -16.3934062045      -0.0000000014     0.999992    0.00000945
   45      -16.3934062056      -0.0000000011     0.999992    0.00000834
   46      -16.3934062065      -0.0000000009     0.999992    0.00000736
   47      -16.3934062072      -0.0000000007     0.999992    0.00000650
   48      -16.3934062077      -0.0000000005     0.999992    0.00000574
   49      -16.3934062081      -0.0000000004     0.999992    0.00000507
   50      -16.3934062085      -0.0000000003     0.999992    0.00000448
   51      -16.3934062087      -0.0000000003     0.999992    0.00000396
   52      -16.3934062089      -0.0000000002     0.999992    0.00000350
   53      -16.3934062091      -0.0000000002     0.999992    0.00000309
   54      -16.3934062092      -0.0000000001     0.999992    0.00000273
   55      -16.3934062093      -0.0000000001     0.999992    0.00000241
   56      -16.3934062094      -0.0000000001     0.999992    0.00000213
   57      -16.3934062094      -0.0000000001     0.999992    0.00000189
   58      -16.3934062095      -0.0000000000     0.999992    0.00000167
   59      -16.3934062095      -0.0000000000     0.999992    0.00000148
   60      -16.3934062096      -0.0000000000     0.999992    0.00000130
   61      -16.3934062096      -0.0000000000     0.999992    0.00000115
   62      -16.3934062096      -0.0000000000     0.999992    0.00000102
   63      -16.3934062096      -0.0000000000     0.999992    0.00000090
  
--------------------------------------------------
 Final SA-REKS(2,2) energy:     -16.39340621
  
 State     Energy      FON(1)    FON(2)   Spin
  PPS  -16.46052579   1.999983  0.000017  0.00
  OSS  -16.32628663   1.000000  1.000000  0.00
 Trip  -16.36575345   1.000000  1.000000  1.00
--------------------------------------------------

 Lagrangian Wab:  -0.00930070 -0.00929998

--------------------------------------------------
 SSR: 2SI-2SA-REKS(2,2) Hamiltonian matrix
               PPS           OSS
   PPS   -16.46052579   -0.01311487
   OSS    -0.01311487  -16.32628663
--------------------------------------------------

----------------------------------------------------------------
 SSR: 2SI-2SA-REKS(2,2) states
                    E_n       C_{PPS}    C_{OSS}
 SSR state  1  -16.46179508  -0.995349  -0.096333
 SSR state  2  -16.32501734   0.096333  -0.995349
----------------------------------------------------------------

 unrelaxed SSR FONs for S0:  1.990703  0.009297

Total Energy:                      -16.4617950789 H         -447.9482 eV
Extrapolated to 0:                 -16.4617950789 H         -447.9482 eV

----------------------------------------------------------------------------------
 Solving CP-REKS equation for  1 state vector...
----------------------------------------------------------------------------------
  CG solver: Constructing Y initial guess
  CG solver: Iteration    1    eps =    0.000711668397
  CG solver: Iteration    2    eps =    0.000188224319
  CG solver: Iteration    3    eps =    0.000027946019
  CG solver: Iteration    4    eps =    0.000020344144
  CG solver: Iteration    5    eps =    0.000000869469
  CG solver: Iteration    6    eps =    0.000000245633
  CG solver: Iteration    7    eps =    0.000000046855
  CG solver: Iteration    8    eps =    0.000000014547
  CG solver: Iteration    9    eps =    0.000000004406
  Convergence reached in CG solver after    9 iterations
  CG solver: Calculating converged R, Z, Q2 matrix
----------------------------------------------------------------------------------

----------------------------------------------------------------------------------
 Solving CP-REKS equation for SI between  1 and  2 state vectors...
----------------------------------------------------------------------------------
  CG solver: Constructing Y initial guess
  CG solver: Iteration    1    eps =    0.042024024337
  CG solver: Iteration    2    eps =    0.002794734276
  CG solver: Iteration    3    eps =    0.001218120585
  CG solver: Iteration    4    eps =    0.000271927194
  CG solver: Iteration    5    eps =    0.000020733069
  CG solver: Iteration    6    eps =    0.000004511147
  CG solver: Iteration    7    eps =    0.000001956926
  CG solver: Iteration    8    eps =    0.000000274829
  CG solver: Iteration    9    eps =    0.000000142326
  CG solver: Iteration   10    eps =    0.000000021410
  CG solver: Iteration   11    eps =    0.000000002658
  Convergence reached in CG solver after   11 iterations
  CG solver: Calculating converged R, Z, Q2 matrix
----------------------------------------------------------------------------------

--------------------------------------------------
 Gradient Information
--------------------------------------------------
           1 st state (SSR)
     0.10443385     0.00584010     0.00823193
    -0.06930684    -0.04194737    -0.03908865
     0.01323470    -0.00657990    -0.02459597
    -0.02019769     0.00467037     0.01445891
     0.01674314     0.02219797     0.00589478
    -0.07185942     0.03761783     0.01062815
     0.07109880    -0.04796541    -0.01686774
    -0.03063744    -0.01731268    -0.01093988
    -0.02636280     0.00403784     0.02049720
     0.04088622     0.09854802     0.05529798
    -0.00151185    -0.02924780     0.01129281
    -0.07785793    -0.03605078    -0.05658614
     0.01663455     0.00507152     0.04689695
     0.03470273     0.00112029    -0.02512034

           2 st state (SSR)
     0.13142239     0.00405128     0.01213274
    -0.09885649    -0.04692426    -0.03509123
     0.01381073    -0.00544190    -0.02412759
    -0.02017429     0.00231539     0.01356127
     0.01565770     0.02374117     0.00603729
     0.00317041     0.07693308     0.01825777
     0.00621846    -0.07563347    -0.02397381
    -0.03017553    -0.01699074    -0.01087396
    -0.02542639     0.00297046     0.02015028
     0.08435165     0.13290287     0.02771295
    -0.00644663    -0.02407254     0.01322798
    -0.12133872    -0.08795136    -0.03625838
     0.01729788     0.00702766     0.04772525
     0.03048881     0.00707236    -0.02848055
--------------------------------------------------
 Coupling Information
--------------------------------------------------
 between  1 and  2 states
--------------------------------------------------
 g vector - difference gradient
    -0.01497714     0.00042456    -0.00070234
     0.01443022     0.00392636    -0.00306336
    -0.00016477    -0.00026506    -0.00009689
    -0.00019543     0.00044983     0.00030019
     0.00045204    -0.00051788    -0.00012345
    -0.04606787    -0.02443934    -0.00442160
     0.04493317     0.01910725     0.00776973
    -0.00007108     0.00004399     0.00010289
    -0.00053221     0.00078362     0.00042725
    -0.01708965    -0.01346742     0.00659398
     0.00184716    -0.00186063    -0.00060439
     0.01601372     0.01831997    -0.00705246
    -0.00014192    -0.00057172    -0.00012809
     0.00156375    -0.00193354     0.00099854

 h vector - derivative coupling
     0.00628307     0.00249117    -0.00657614
     0.00319356    -0.00711819     0.00525526
    -0.00065862    -0.00161054    -0.00072532
     0.00093913     0.00383799     0.00080407
     0.00051659    -0.00137316     0.00026023
     0.04014172     0.02256946     0.00273627
    -0.06079737    -0.02564853    -0.02123645
    -0.00084059    -0.00106455    -0.00069847
     0.00028228    -0.00122745    -0.00128206
    -0.02586575    -0.02064965     0.03817572
     0.00341299    -0.00397108    -0.00195242
     0.03141220     0.04156216    -0.01690736
    -0.00100321    -0.00217429    -0.00150409
     0.00298401    -0.00562334     0.00365075

 G vector - GDV
    -0.01349427     0.00089441    -0.00195041
     0.01477482     0.00248844    -0.00199871
    -0.00028802    -0.00056900    -0.00023419
    -0.00001170     0.00117749     0.00044882
     0.00054272    -0.00077160    -0.00007126
    -0.03751492    -0.01965762    -0.00381481
     0.03244017     0.01383403     0.00355304
    -0.00023096    -0.00016097    -0.00003296
    -0.00046820     0.00053369     0.00017346
    -0.02173271    -0.01717743     0.01379252
     0.00246739    -0.00258763    -0.00096758
     0.02174040     0.02595029    -0.01016388
    -0.00033167    -0.00097807    -0.00041415
     0.00210696    -0.00297604     0.00168010

 H vector - DCV - non-adiabatic coupling
     0.06608242     0.01727999    -0.04620194
     0.00268330    -0.05658105     0.04200374
    -0.00449487    -0.01118471    -0.00506860
     0.00701266     0.02690854     0.00534870
     0.00307300    -0.00912690     0.00204038
     0.35262377     0.19621089     0.02583320
    -0.49924621    -0.21082871    -0.16327433
    -0.00593194    -0.00770029    -0.00515607
     0.00277166    -0.00990618    -0.00979837
    -0.16163756    -0.12928829     0.26468238
     0.02189986    -0.02588554    -0.01316209
     0.20294428     0.27254118    -0.11142983
    -0.00699948    -0.01479988    -0.01061292
     0.01921911    -0.03763904     0.02479576
--------------------------------------------------


--------------------------------------------------------------------------------
DFTB+ running times                          cpu [s]             wall clock [s]
--------------------------------------------------------------------------------
SCC                                    +     0.10  ( 25.0%)      0.10  ( 25.0%)
      Dense to sparse                        0.02  (  4.8%)      0.02  (  4.0%)
      Range separated Hamiltonian            0.01  (  2.2%)      0.01  (  2.5%)
  Density matrix creation                    0.01  (  2.7%)      0.01  (  2.3%)
Post-SCC processing                    +     0.29  ( 74.4%)      0.29  ( 73.7%)
  Force calculation                          0.29  ( 74.4%)      0.29  ( 73.5%)
--------------------------------------------------------------------------------
Missing                                +     0.00  (  0.6%)      0.01  (  1.3%)
Total                                  =     0.39  (100.0%)      0.40  (100.0%)
--------------------------------------------------------------------------------
