     6
  Step:   600            Position(A)                                  Velocity(au)
C        -0.03995758    -0.19242454    -0.29014500     0.00035669     0.00084745    -0.00021749
N        -0.06242757     0.06280548     1.56822626    -0.00001460    -0.00020859     0.00010414
H         1.15569998     0.28119022    -0.68739396    -0.00509692    -0.00567910    -0.00010764
H         0.65740146    -0.10369496     2.25059713     0.00126140     0.00029557    -0.00109932
H        -0.67564558     0.68136706     1.95414330    -0.00236502     0.00161032     0.00394725
H        -1.00630760    -0.10794027    -0.96016111     0.00215310    -0.00342639    -0.00159582
