|===============================================================================
|
|  DFTB+ release 20.1
|
|  Copyright (C) 2006 - 2020  DFTB+ developers group
|
|===============================================================================
|
|  When publishing results obtained with DFTB+, please cite the following
|  reference:
|
|  * DFTB+, a software package for efficient approximate density functional
|    theory based atomistic simulations, J. Chem. Phys. 152, 124101 (2020).
|    [doi: 10.1063/1.5143190]
|
|  You should also cite additional publications crediting the parametrization
|  data you use. Please consult the documentation of the SK-files for the
|  references.
|
|===============================================================================

Reading input file 'dftb_in.hsd'
Parser version: 8

--------------------------------------------------------------------------------
Reading SK-files:
Done.


Processed input in HSD format written to 'dftb_pin.hsd'

Starting initialization...
--------------------------------------------------------------------------------
OpenMP threads:              1
Chosen random seed:          510737465
Mode:                        Static calculation
Self consistent charges:     Yes
SCC-tolerance:                 0.100000E-05
Max. scc iterations:                   1000
Shell resolved Hubbard:      No
Spin polarisation:           No
Nr. of up electrons:             6.000000
Nr. of down electrons:           6.000000
Periodic boundaries:         No
Electronic solver:           Relatively robust
Maximal SCC-cycles:                    1000
Initial charges:             Set automatically (system chrg:   0.100E+01)
Included shells:             C:  s, p
                             N:  s, p
                             H:  s
Spin coupling constants:     C   1(s)-1(s):  -0.455900E-01
                             C   1(s)-2(p):  -0.293000E-01
                             C   2(p)-1(s):  -0.293000E-01
                             C   2(p)-2(p):  -0.275500E-01
                             N   1(s)-1(s):  -0.468700E-01
                             N   1(s)-2(p):  -0.317000E-01
                             N   2(p)-1(s):  -0.317000E-01
                             N   2(p)-2(p):  -0.307200E-01
                             H   1(s)-1(s):  -0.792500E-01
Range separated hybrid:      Yes
  Screening parameter omega:   0.300000E+00
  Range separated algorithm:   MatrixBased
Extra options:
                             Mulliken analysis
                             Force calculation
Force type                   original
                             Eigenvector printing


REKS Calcuation:             Yes
SSR(2,2) Calcuation:         Yes
Energy Functional:           (PPS+OSS)/2
Number of Core Orbitals:                  5
Number of Active Orbitals:                2
Number of Basis:                         12
Number of States:                         2
State-Averaging Weight:          0.500000
                                 0.500000
State of Interest:                        2
Initial Guess:               Diagonalize H0 matrix
Newton-Raphson for FON opt:  Yes
NR max. Iterations:                      50
Level Shifting:              Yes
Shift Value:                     0.300000
W Scale Factor:              C  =    3.000000
                             N  =    3.000000
                             H  =    3.000000
Transition Dipole:           No
Gradient of Microstate:      No
CP-REKS Solver:              Preconditioned Conjugate-Gradient
CG max. Iterations:                     100
CG Tolerance:                  0.100000E-07
Memory for A and Hxc:        Direct Updating Without Saving
Non-Adiabatic Coupling:      Yes

--------------------------------------------------------------------------------

***  Geometry step: 0

  iSCC       reks energy        Diff energy         x_a       SCC error   
    1       -6.2349194021       0.0000000000     0.997607    1.15824121
    2       -6.2534560988      -0.0185366967     0.999596    0.10854399
    3       -6.2605398047      -0.0070837059     0.999929    0.07471697
    4       -6.2632223650      -0.0026825603     0.999984    0.04566471
    5       -6.2639566488      -0.0007342838     0.999994    0.02327130
    6       -6.2641065265      -0.0001498777     0.999996    0.01070142
    7       -6.2641327123      -0.0000261858     0.999997    0.00436910
    8       -6.2641371442      -0.0000044319     0.999997    0.00169831
    9       -6.2641379428      -0.0000007985     0.999997    0.00065463
   10       -6.2641381154      -0.0000001726     0.999997    0.00025346
   11       -6.2641381673      -0.0000000519     0.999997    0.00009870
   12       -6.2641381896      -0.0000000224     0.999997    0.00005111
   13       -6.2641382019      -0.0000000122     0.999997    0.00004015
   14       -6.2641382094      -0.0000000075     0.999997    0.00003157
   15       -6.2641382142      -0.0000000049     0.999997    0.00002601
   16       -6.2641382175      -0.0000000033     0.999997    0.00002147
   17       -6.2641382198      -0.0000000023     0.999997    0.00001761
   18       -6.2641382215      -0.0000000017     0.999997    0.00001438
   19       -6.2641382227      -0.0000000012     0.999997    0.00001169
   20       -6.2641382237      -0.0000000010     0.999997    0.00000955
   21       -6.2641382245      -0.0000000008     0.999997    0.00000857
   22       -6.2641382252      -0.0000000007     0.999997    0.00000779
   23       -6.2641382258      -0.0000000006     0.999997    0.00000718
   24       -6.2641382264      -0.0000000006     0.999997    0.00000670
   25       -6.2641382269      -0.0000000005     0.999997    0.00000646
   26       -6.2641382275      -0.0000000005     0.999997    0.00000653
   27       -6.2641382280      -0.0000000005     0.999997    0.00000660
   28       -6.2641382285      -0.0000000005     0.999997    0.00000665
   29       -6.2641382290      -0.0000000005     0.999997    0.00000670
   30       -6.2641382295      -0.0000000005     0.999997    0.00000674
   31       -6.2641382300      -0.0000000005     0.999997    0.00000677
   32       -6.2641382305      -0.0000000005     0.999997    0.00000680
   33       -6.2641382310      -0.0000000005     0.999997    0.00000683
   34       -6.2641382315      -0.0000000005     0.999997    0.00000685
   35       -6.2641382320      -0.0000000005     0.999997    0.00000687
   36       -6.2641382325      -0.0000000005     0.999997    0.00000689
   37       -6.2641382330      -0.0000000005     0.999997    0.00000691
   38       -6.2641382335      -0.0000000005     0.999997    0.00000693
   39       -6.2641382340      -0.0000000005     0.999997    0.00000695
   40       -6.2641382345      -0.0000000005     0.999997    0.00000696
   41       -6.2641382350      -0.0000000005     0.999997    0.00000698
   42       -6.2641382355      -0.0000000005     0.999997    0.00000700
   43       -6.2641382361      -0.0000000005     0.999997    0.00000701
   44       -6.2641382366      -0.0000000005     0.999997    0.00000703
   45       -6.2641382371      -0.0000000005     0.999997    0.00000704
   46       -6.2641382376      -0.0000000005     0.999997    0.00000706
   47       -6.2641382381      -0.0000000005     0.999997    0.00000707
   48       -6.2641382387      -0.0000000005     0.999997    0.00000709
   49       -6.2641382392      -0.0000000005     0.999997    0.00000710
   50       -6.2641382397      -0.0000000005     0.999997    0.00000712
   51       -6.2641382403      -0.0000000005     0.999997    0.00000713
   52       -6.2641382408      -0.0000000005     0.999997    0.00000715
   53       -6.2641382413      -0.0000000005     0.999997    0.00000716
   54       -6.2641382419      -0.0000000005     0.999997    0.00000718
   55       -6.2641382424      -0.0000000005     0.999997    0.00000719
   56       -6.2641382430      -0.0000000005     0.999997    0.00000721
   57       -6.2641382435      -0.0000000005     0.999997    0.00000722
   58       -6.2641382441      -0.0000000006     0.999997    0.00000723
   59       -6.2641382446      -0.0000000006     0.999997    0.00000725
   60       -6.2641382452      -0.0000000006     0.999997    0.00000726
   61       -6.2641382457      -0.0000000006     0.999997    0.00000728
   62       -6.2641382463      -0.0000000006     0.999997    0.00000729
   63       -6.2641382469      -0.0000000006     0.999997    0.00000731
   64       -6.2641382474      -0.0000000006     0.999997    0.00000732
   65       -6.2641382480      -0.0000000006     0.999997    0.00000734
   66       -6.2641382486      -0.0000000006     0.999997    0.00000735
   67       -6.2641382491      -0.0000000006     0.999997    0.00000737
   68       -6.2641382497      -0.0000000006     0.999997    0.00000738
   69       -6.2641382503      -0.0000000006     0.999997    0.00000740
   70       -6.2641382509      -0.0000000006     0.999997    0.00000741
   71       -6.2641382514      -0.0000000006     0.999997    0.00000743
   72       -6.2641382520      -0.0000000006     0.999997    0.00000744
   73       -6.2641382526      -0.0000000006     0.999997    0.00000746
   74       -6.2641382532      -0.0000000006     0.999997    0.00000747
   75       -6.2641382538      -0.0000000006     0.999997    0.00000749
   76       -6.2641382544      -0.0000000006     0.999997    0.00000750
   77       -6.2641382550      -0.0000000006     0.999997    0.00000752
   78       -6.2641382556      -0.0000000006     0.999997    0.00000753
   79       -6.2641382562      -0.0000000006     0.999997    0.00000755
   80       -6.2641382568      -0.0000000006     0.999997    0.00000756
   81       -6.2641382574      -0.0000000006     0.999997    0.00000758
   82       -6.2641382580      -0.0000000006     0.999997    0.00000760
   83       -6.2641382586      -0.0000000006     0.999997    0.00000761
   84       -6.2641382592      -0.0000000006     0.999997    0.00000763
   85       -6.2641382598      -0.0000000006     0.999997    0.00000764
   86       -6.2641382604      -0.0000000006     0.999997    0.00000766
   87       -6.2641382610      -0.0000000006     0.999997    0.00000767
   88       -6.2641382617      -0.0000000006     0.999997    0.00000769
   89       -6.2641382623      -0.0000000006     0.999997    0.00000770
   90       -6.2641382629      -0.0000000006     0.999997    0.00000772
   91       -6.2641382635      -0.0000000006     0.999997    0.00000774
   92       -6.2641382642      -0.0000000006     0.999997    0.00000775
   93       -6.2641382648      -0.0000000006     0.999997    0.00000777
   94       -6.2641382654      -0.0000000006     0.999997    0.00000778
   95       -6.2641382661      -0.0000000006     0.999997    0.00000780
   96       -6.2641382667      -0.0000000006     0.999997    0.00000781
   97       -6.2641382674      -0.0000000006     0.999997    0.00000783
   98       -6.2641382680      -0.0000000006     0.999997    0.00000785
   99       -6.2641382687      -0.0000000006     0.999997    0.00000786
  100       -6.2641382693      -0.0000000007     0.999997    0.00000788
  101       -6.2641382700      -0.0000000007     0.999997    0.00000789
  102       -6.2641382706      -0.0000000007     0.999997    0.00000791
  103       -6.2641382713      -0.0000000007     0.999997    0.00000793
  104       -6.2641382719      -0.0000000007     0.999997    0.00000794
  105       -6.2641382726      -0.0000000007     0.999997    0.00000796
  106       -6.2641382733      -0.0000000007     0.999997    0.00000797
  107       -6.2641382740      -0.0000000007     0.999997    0.00000799
  108       -6.2641382746      -0.0000000007     0.999997    0.00000801
  109       -6.2641382753      -0.0000000007     0.999997    0.00000802
  110       -6.2641382760      -0.0000000007     0.999997    0.00000804
  111       -6.2641382767      -0.0000000007     0.999997    0.00000805
  112       -6.2641382773      -0.0000000007     0.999997    0.00000807
  113       -6.2641382780      -0.0000000007     0.999997    0.00000809
  114       -6.2641382787      -0.0000000007     0.999997    0.00000810
  115       -6.2641382794      -0.0000000007     0.999997    0.00000812
  116       -6.2641382801      -0.0000000007     0.999997    0.00000814
  117       -6.2641382808      -0.0000000007     0.999997    0.00000815
  118       -6.2641382815      -0.0000000007     0.999997    0.00000817
  119       -6.2641382822      -0.0000000007     0.999997    0.00000819
  120       -6.2641382829      -0.0000000007     0.999997    0.00000820
  121       -6.2641382836      -0.0000000007     0.999997    0.00000822
  122       -6.2641382843      -0.0000000007     0.999997    0.00000824
  123       -6.2641382851      -0.0000000007     0.999997    0.00000825
  124       -6.2641382858      -0.0000000007     0.999997    0.00000827
  125       -6.2641382865      -0.0000000007     0.999997    0.00000829
  126       -6.2641382872      -0.0000000007     0.999997    0.00000830
  127       -6.2641382879      -0.0000000007     0.999997    0.00000832
  128       -6.2641382887      -0.0000000007     0.999997    0.00000834
  129       -6.2641382894      -0.0000000007     0.999997    0.00000835
  130       -6.2641382901      -0.0000000007     0.999997    0.00000837
  131       -6.2641382909      -0.0000000007     0.999997    0.00000839
  132       -6.2641382916      -0.0000000007     0.999997    0.00000840
  133       -6.2641382924      -0.0000000007     0.999997    0.00000842
  134       -6.2641382931      -0.0000000007     0.999997    0.00000844
  135       -6.2641382939      -0.0000000008     0.999997    0.00000846
  136       -6.2641382946      -0.0000000008     0.999997    0.00000847
  137       -6.2641382954      -0.0000000008     0.999997    0.00000849
  138       -6.2641382961      -0.0000000008     0.999997    0.00000851
  139       -6.2641382969      -0.0000000008     0.999997    0.00000852
  140       -6.2641382977      -0.0000000008     0.999997    0.00000854
  141       -6.2641382984      -0.0000000008     0.999997    0.00000856
  142       -6.2641382992      -0.0000000008     0.999997    0.00000858
  143       -6.2641383000      -0.0000000008     0.999997    0.00000859
  144       -6.2641383008      -0.0000000008     0.999997    0.00000861
  145       -6.2641383015      -0.0000000008     0.999997    0.00000863
  146       -6.2641383023      -0.0000000008     0.999997    0.00000865
  147       -6.2641383031      -0.0000000008     0.999997    0.00000866
  148       -6.2641383039      -0.0000000008     0.999997    0.00000868
  149       -6.2641383047      -0.0000000008     0.999997    0.00000870
  150       -6.2641383055      -0.0000000008     0.999997    0.00000872
  151       -6.2641383063      -0.0000000008     0.999997    0.00000873
  152       -6.2641383071      -0.0000000008     0.999997    0.00000875
  153       -6.2641383079      -0.0000000008     0.999997    0.00000877
  154       -6.2641383087      -0.0000000008     0.999997    0.00000879
  155       -6.2641383095      -0.0000000008     0.999997    0.00000880
  156       -6.2641383104      -0.0000000008     0.999997    0.00000882
  157       -6.2641383112      -0.0000000008     0.999997    0.00000884
  158       -6.2641383120      -0.0000000008     0.999997    0.00000886
  159       -6.2641383128      -0.0000000008     0.999997    0.00000887
  160       -6.2641383137      -0.0000000008     0.999997    0.00000889
  161       -6.2641383145      -0.0000000008     0.999997    0.00000891
  162       -6.2641383153      -0.0000000008     0.999997    0.00000893
  163       -6.2641383162      -0.0000000008     0.999997    0.00000895
  164       -6.2641383170      -0.0000000008     0.999997    0.00000896
  165       -6.2641383179      -0.0000000008     0.999997    0.00000898
  166       -6.2641383187      -0.0000000009     0.999997    0.00000900
  167       -6.2641383196      -0.0000000009     0.999997    0.00000902
  168       -6.2641383204      -0.0000000009     0.999997    0.00000904
  169       -6.2641383213      -0.0000000009     0.999997    0.00000906
  170       -6.2641383222      -0.0000000009     0.999997    0.00000907
  171       -6.2641383230      -0.0000000009     0.999997    0.00000909
  172       -6.2641383239      -0.0000000009     0.999997    0.00000911
  173       -6.2641383248      -0.0000000009     0.999997    0.00000913
  174       -6.2641383256      -0.0000000009     0.999997    0.00000915
  175       -6.2641383265      -0.0000000009     0.999997    0.00000917
  176       -6.2641383274      -0.0000000009     0.999997    0.00000918
  177       -6.2641383283      -0.0000000009     0.999997    0.00000920
  178       -6.2641383292      -0.0000000009     0.999997    0.00000922
  179       -6.2641383301      -0.0000000009     0.999997    0.00000924
  180       -6.2641383310      -0.0000000009     0.999997    0.00000926
  181       -6.2641383319      -0.0000000009     0.999997    0.00000928
  182       -6.2641383328      -0.0000000009     0.999997    0.00000930
  183       -6.2641383337      -0.0000000009     0.999997    0.00000931
  184       -6.2641383346      -0.0000000009     0.999997    0.00000933
  185       -6.2641383355      -0.0000000009     0.999997    0.00000935
  186       -6.2641383365      -0.0000000009     0.999997    0.00000937
  187       -6.2641383374      -0.0000000009     0.999997    0.00000939
  188       -6.2641383383      -0.0000000009     0.999997    0.00000941
  189       -6.2641383393      -0.0000000009     0.999997    0.00000943
  190       -6.2641383402      -0.0000000009     0.999997    0.00000945
  191       -6.2641383411      -0.0000000009     0.999997    0.00000947
  192       -6.2641383421      -0.0000000009     0.999997    0.00000949
  193       -6.2641383430      -0.0000000009     0.999997    0.00000950
  194       -6.2641383440      -0.0000000010     0.999997    0.00000952
  195       -6.2641383449      -0.0000000010     0.999997    0.00000954
  196       -6.2641383459      -0.0000000010     0.999997    0.00000956
  197       -6.2641383469      -0.0000000010     0.999997    0.00000958
  198       -6.2641383478      -0.0000000010     0.999997    0.00000960
  199       -6.2641383488      -0.0000000010     0.999997    0.00000962
  200       -6.2641383498      -0.0000000010     0.999997    0.00000964
  201       -6.2641383507      -0.0000000010     0.999997    0.00000966
  202       -6.2641383517      -0.0000000010     0.999997    0.00000968
  203       -6.2641383527      -0.0000000010     0.999997    0.00000970
  204       -6.2641383537      -0.0000000010     0.999997    0.00000972
  205       -6.2641383547      -0.0000000010     0.999997    0.00000974
  206       -6.2641383557      -0.0000000010     0.999997    0.00000976
  207       -6.2641383567      -0.0000000010     0.999997    0.00000978
  208       -6.2641383577      -0.0000000010     0.999997    0.00000980
  209       -6.2641383587      -0.0000000010     0.999997    0.00000982
  210       -6.2641383597      -0.0000000010     0.999997    0.00000984
  211       -6.2641383608      -0.0000000010     0.999997    0.00000986
  212       -6.2641383618      -0.0000000010     0.999997    0.00000988
  213       -6.2641383628      -0.0000000010     0.999997    0.00000990
  214       -6.2641383638      -0.0000000010     0.999997    0.00000992
  215       -6.2641383649      -0.0000000010     0.999997    0.00000994
  216       -6.2641383659      -0.0000000010     0.999997    0.00000996
  217       -6.2641383670      -0.0000000010     0.999997    0.00000998
  218       -6.2641383680      -0.0000000010     0.999997    0.00001000
  219       -6.2641383691      -0.0000000011     0.999997    0.00001002
  220       -6.2641383701      -0.0000000011     0.999997    0.00001004
  221       -6.2641383712      -0.0000000011     0.999997    0.00001006
  222       -6.2641383722      -0.0000000011     0.999997    0.00001008
  223       -6.2641383733      -0.0000000011     0.999997    0.00001010
  224       -6.2641383744      -0.0000000011     0.999997    0.00001012
  225       -6.2641383755      -0.0000000011     0.999997    0.00001014
  226       -6.2641383766      -0.0000000011     0.999997    0.00001016
  227       -6.2641383776      -0.0000000011     0.999997    0.00001018
  228       -6.2641383787      -0.0000000011     0.999997    0.00001020
  229       -6.2641383798      -0.0000000011     0.999997    0.00001022
  230       -6.2641383809      -0.0000000011     0.999997    0.00001024
  231       -6.2641383820      -0.0000000011     0.999997    0.00001026
  232       -6.2641383831      -0.0000000011     0.999997    0.00001028
  233       -6.2641383843      -0.0000000011     0.999997    0.00001030
  234       -6.2641383854      -0.0000000011     0.999997    0.00001032
  235       -6.2641383865      -0.0000000011     0.999997    0.00001034
  236       -6.2641383876      -0.0000000011     0.999997    0.00001036
  237       -6.2641383888      -0.0000000011     0.999997    0.00001039
  238       -6.2641383899      -0.0000000011     0.999997    0.00001041
  239       -6.2641383910      -0.0000000011     0.999997    0.00001043
  240       -6.2641383922      -0.0000000011     0.999997    0.00001045
  241       -6.2641383933      -0.0000000012     0.999997    0.00001047
  242       -6.2641383945      -0.0000000012     0.999997    0.00001049
  243       -6.2641383956      -0.0000000012     0.999997    0.00001051
  244       -6.2641383968      -0.0000000012     0.999997    0.00001053
  245       -6.2641383980      -0.0000000012     0.999997    0.00001055
  246       -6.2641383991      -0.0000000012     0.999997    0.00001058
  247       -6.2641384003      -0.0000000012     0.999997    0.00001060
  248       -6.2641384015      -0.0000000012     0.999997    0.00001062
  249       -6.2641384027      -0.0000000012     0.999997    0.00001064
  250       -6.2641384039      -0.0000000012     0.999997    0.00001066
  251       -6.2641384051      -0.0000000012     0.999997    0.00001068
  252       -6.2641384063      -0.0000000012     0.999997    0.00001070
  253       -6.2641384075      -0.0000000012     0.999997    0.00001073
  254       -6.2641384087      -0.0000000012     0.999997    0.00001075
  255       -6.2641384099      -0.0000000012     0.999997    0.00001077
  256       -6.2641384111      -0.0000000012     0.999997    0.00001079
  257       -6.2641384124      -0.0000000012     0.999997    0.00001081
  258       -6.2641384136      -0.0000000012     0.999997    0.00001083
  259       -6.2641384148      -0.0000000012     0.999997    0.00001086
  260       -6.2641384161      -0.0000000012     0.999997    0.00001088
  261       -6.2641384173      -0.0000000012     0.999997    0.00001090
  262       -6.2641384186      -0.0000000013     0.999997    0.00001092
  263       -6.2641384198      -0.0000000013     0.999997    0.00001094
  264       -6.2641384211      -0.0000000013     0.999997    0.00001097
  265       -6.2641384224      -0.0000000013     0.999997    0.00001099
  266       -6.2641384236      -0.0000000013     0.999997    0.00001101
  267       -6.2641384249      -0.0000000013     0.999997    0.00001103
  268       -6.2641384262      -0.0000000013     0.999997    0.00001106
  269       -6.2641384275      -0.0000000013     0.999997    0.00001108
  270       -6.2641384288      -0.0000000013     0.999997    0.00001110
  271       -6.2641384301      -0.0000000013     0.999997    0.00001112
  272       -6.2641384314      -0.0000000013     0.999997    0.00001114
  273       -6.2641384327      -0.0000000013     0.999997    0.00001117
  274       -6.2641384340      -0.0000000013     0.999997    0.00001119
  275       -6.2641384353      -0.0000000013     0.999997    0.00001121
  276       -6.2641384366      -0.0000000013     0.999997    0.00001124
  277       -6.2641384380      -0.0000000013     0.999997    0.00001126
  278       -6.2641384393      -0.0000000013     0.999997    0.00001128
  279       -6.2641384406      -0.0000000013     0.999997    0.00001130
  280       -6.2641384420      -0.0000000013     0.999997    0.00001133
  281       -6.2641384433      -0.0000000014     0.999997    0.00001135
  282       -6.2641384447      -0.0000000014     0.999997    0.00001137
  283       -6.2641384461      -0.0000000014     0.999997    0.00001140
  284       -6.2641384474      -0.0000000014     0.999997    0.00001142
  285       -6.2641384488      -0.0000000014     0.999997    0.00001144
  286       -6.2641384502      -0.0000000014     0.999997    0.00001146
  287       -6.2641384516      -0.0000000014     0.999997    0.00001149
  288       -6.2641384529      -0.0000000014     0.999997    0.00001151
  289       -6.2641384543      -0.0000000014     0.999997    0.00001153
  290       -6.2641384557      -0.0000000014     0.999997    0.00001156
  291       -6.2641384572      -0.0000000014     0.999997    0.00001158
  292       -6.2641384586      -0.0000000014     0.999997    0.00001160
  293       -6.2641384600      -0.0000000014     0.999997    0.00001163
  294       -6.2641384614      -0.0000000014     0.999997    0.00001165
  295       -6.2641384628      -0.0000000014     0.999997    0.00001167
  296       -6.2641384643      -0.0000000014     0.999997    0.00001170
  297       -6.2641384657      -0.0000000014     0.999997    0.00001172
  298       -6.2641384672      -0.0000000014     0.999997    0.00001175
  299       -6.2641384686      -0.0000000015     0.999997    0.00001177
  300       -6.2641384701      -0.0000000015     0.999997    0.00001179
  301       -6.2641384715      -0.0000000015     0.999997    0.00001182
  302       -6.2641384730      -0.0000000015     0.999997    0.00001184
  303       -6.2641384745      -0.0000000015     0.999997    0.00001187
  304       -6.2641384760      -0.0000000015     0.999997    0.00001189
  305       -6.2641384775      -0.0000000015     0.999997    0.00001191
  306       -6.2641384789      -0.0000000015     0.999997    0.00001194
  307       -6.2641384804      -0.0000000015     0.999997    0.00001196
  308       -6.2641384820      -0.0000000015     0.999997    0.00001199
  309       -6.2641384835      -0.0000000015     0.999997    0.00001201
  310       -6.2641384850      -0.0000000015     0.999997    0.00001203
  311       -6.2641384865      -0.0000000015     0.999997    0.00001206
  312       -6.2641384880      -0.0000000015     0.999997    0.00001208
  313       -6.2641384896      -0.0000000015     0.999997    0.00001211
  314       -6.2641384911      -0.0000000015     0.999997    0.00001213
  315       -6.2641384927      -0.0000000015     0.999997    0.00001216
  316       -6.2641384942      -0.0000000016     0.999997    0.00001218
  317       -6.2641384958      -0.0000000016     0.999997    0.00001221
  318       -6.2641384974      -0.0000000016     0.999997    0.00001223
  319       -6.2641384989      -0.0000000016     0.999997    0.00001226
  320       -6.2641385005      -0.0000000016     0.999997    0.00001228
  321       -6.2641385021      -0.0000000016     0.999997    0.00001231
  322       -6.2641385037      -0.0000000016     0.999997    0.00001233
  323       -6.2641385053      -0.0000000016     0.999997    0.00001236
  324       -6.2641385069      -0.0000000016     0.999997    0.00001238
  325       -6.2641385085      -0.0000000016     0.999997    0.00001241
  326       -6.2641385101      -0.0000000016     0.999997    0.00001243
  327       -6.2641385118      -0.0000000016     0.999997    0.00001246
  328       -6.2641385134      -0.0000000016     0.999997    0.00001248
  329       -6.2641385150      -0.0000000016     0.999997    0.00001251
  330       -6.2641385167      -0.0000000016     0.999997    0.00001253
  331       -6.2641385183      -0.0000000017     0.999997    0.00001256
  332       -6.2641385200      -0.0000000017     0.999997    0.00001258
  333       -6.2641385217      -0.0000000017     0.999997    0.00001261
  334       -6.2641385233      -0.0000000017     0.999997    0.00001263
  335       -6.2641385250      -0.0000000017     0.999997    0.00001266
  336       -6.2641385267      -0.0000000017     0.999997    0.00001269
  337       -6.2641385284      -0.0000000017     0.999997    0.00001271
  338       -6.2641385301      -0.0000000017     0.999997    0.00001274
  339       -6.2641385318      -0.0000000017     0.999997    0.00001276
  340       -6.2641385335      -0.0000000017     0.999997    0.00001279
  341       -6.2641385352      -0.0000000017     0.999997    0.00001282
  342       -6.2641385370      -0.0000000017     0.999997    0.00001284
  343       -6.2641385387      -0.0000000017     0.999997    0.00001287
  344       -6.2641385405      -0.0000000017     0.999997    0.00001289
  345       -6.2641385422      -0.0000000018     0.999997    0.00001292
  346       -6.2641385440      -0.0000000018     0.999997    0.00001295
  347       -6.2641385457      -0.0000000018     0.999997    0.00001297
  348       -6.2641385475      -0.0000000018     0.999997    0.00001300
  349       -6.2641385493      -0.0000000018     0.999997    0.00001303
  350       -6.2641385511      -0.0000000018     0.999997    0.00001305
  351       -6.2641385529      -0.0000000018     0.999997    0.00001308
  352       -6.2641385547      -0.0000000018     0.999997    0.00001311
  353       -6.2641385565      -0.0000000018     0.999997    0.00001313
  354       -6.2641385583      -0.0000000018     0.999997    0.00001316
  355       -6.2641385601      -0.0000000018     0.999997    0.00001319
  356       -6.2641385619      -0.0000000018     0.999997    0.00001321
  357       -6.2641385638      -0.0000000018     0.999997    0.00001324
  358       -6.2641385656      -0.0000000018     0.999997    0.00001327
  359       -6.2641385675      -0.0000000019     0.999997    0.00001329
  360       -6.2641385693      -0.0000000019     0.999997    0.00001332
  361       -6.2641385712      -0.0000000019     0.999997    0.00001335
  362       -6.2641385731      -0.0000000019     0.999997    0.00001338
  363       -6.2641385750      -0.0000000019     0.999997    0.00001340
  364       -6.2641385769      -0.0000000019     0.999997    0.00001343
  365       -6.2641385787      -0.0000000019     0.999997    0.00001346
  366       -6.2641385807      -0.0000000019     0.999997    0.00001349
  367       -6.2641385826      -0.0000000019     0.999997    0.00001351
  368       -6.2641385845      -0.0000000019     0.999997    0.00001354
  369       -6.2641385864      -0.0000000019     0.999997    0.00001357
  370       -6.2641385884      -0.0000000019     0.999997    0.00001360
  371       -6.2641385903      -0.0000000019     0.999997    0.00001362
  372       -6.2641385923      -0.0000000020     0.999997    0.00001365
  373       -6.2641385942      -0.0000000020     0.999997    0.00001368
  374       -6.2641385962      -0.0000000020     0.999997    0.00001371
  375       -6.2641385982      -0.0000000020     0.999997    0.00001374
  376       -6.2641386002      -0.0000000020     0.999997    0.00001376
  377       -6.2641386022      -0.0000000020     0.999997    0.00001379
  378       -6.2641386042      -0.0000000020     0.999997    0.00001382
  379       -6.2641386062      -0.0000000020     0.999997    0.00001385
  380       -6.2641386082      -0.0000000020     0.999997    0.00001388
  381       -6.2641386102      -0.0000000020     0.999997    0.00001391
  382       -6.2641386122      -0.0000000020     0.999997    0.00001394
  383       -6.2641386143      -0.0000000020     0.999997    0.00001396
  384       -6.2641386163      -0.0000000021     0.999997    0.00001399
  385       -6.2641386184      -0.0000000021     0.999997    0.00001402
  386       -6.2641386205      -0.0000000021     0.999997    0.00001405
  387       -6.2641386225      -0.0000000021     0.999997    0.00001408
  388       -6.2641386246      -0.0000000021     0.999997    0.00001411
  389       -6.2641386267      -0.0000000021     0.999997    0.00001414
  390       -6.2641386288      -0.0000000021     0.999997    0.00001417
  391       -6.2641386309      -0.0000000021     0.999997    0.00001420
  392       -6.2641386331      -0.0000000021     0.999997    0.00001422
  393       -6.2641386352      -0.0000000021     0.999997    0.00001425
  394       -6.2641386373      -0.0000000021     0.999997    0.00001428
  395       -6.2641386395      -0.0000000021     0.999997    0.00001431
  396       -6.2641386416      -0.0000000022     0.999997    0.00001434
  397       -6.2641386438      -0.0000000022     0.999997    0.00001437
  398       -6.2641386460      -0.0000000022     0.999997    0.00001440
  399       -6.2641386482      -0.0000000022     0.999997    0.00001443
  400       -6.2641386504      -0.0000000022     0.999997    0.00001446
  401       -6.2641386526      -0.0000000022     0.999997    0.00001449
  402       -6.2641386548      -0.0000000022     0.999997    0.00001452
  403       -6.2641386570      -0.0000000022     0.999997    0.00001455
  404       -6.2641386592      -0.0000000022     0.999997    0.00001458
  405       -6.2641386614      -0.0000000022     0.999997    0.00001461
  406       -6.2641386637      -0.0000000022     0.999997    0.00001464
  407       -6.2641386660      -0.0000000023     0.999997    0.00001467
  408       -6.2641386682      -0.0000000023     0.999997    0.00001470
  409       -6.2641386705      -0.0000000023     0.999997    0.00001473
  410       -6.2641386728      -0.0000000023     0.999997    0.00001476
  411       -6.2641386751      -0.0000000023     0.999997    0.00001479
  412       -6.2641386774      -0.0000000023     0.999997    0.00001482
  413       -6.2641386797      -0.0000000023     0.999997    0.00001485
  414       -6.2641386820      -0.0000000023     0.999997    0.00001489
  415       -6.2641386843      -0.0000000023     0.999997    0.00001492
  416       -6.2641386867      -0.0000000023     0.999997    0.00001495
  417       -6.2641386890      -0.0000000024     0.999997    0.00001498
  418       -6.2641386914      -0.0000000024     0.999997    0.00001501
  419       -6.2641386938      -0.0000000024     0.999997    0.00001504
  420       -6.2641386961      -0.0000000024     0.999997    0.00001507
  421       -6.2641386985      -0.0000000024     0.999997    0.00001510
  422       -6.2641387009      -0.0000000024     0.999997    0.00001513
  423       -6.2641387033      -0.0000000024     0.999997    0.00001517
  424       -6.2641387058      -0.0000000024     0.999997    0.00001520
  425       -6.2641387082      -0.0000000024     0.999997    0.00001523
  426       -6.2641387106      -0.0000000024     0.999997    0.00001526
  427       -6.2641387131      -0.0000000025     0.999997    0.00001529
  428       -6.2641387156      -0.0000000025     0.999997    0.00001532
  429       -6.2641387180      -0.0000000025     0.999997    0.00001536
  430       -6.2641387205      -0.0000000025     0.999997    0.00001539
  431       -6.2641387230      -0.0000000025     0.999997    0.00001542
  432       -6.2641387255      -0.0000000025     0.999997    0.00001545
  433       -6.2641387280      -0.0000000025     0.999997    0.00001548
  434       -6.2641387305      -0.0000000025     0.999997    0.00001552
  435       -6.2641387331      -0.0000000025     0.999997    0.00001555
  436       -6.2641387356      -0.0000000025     0.999997    0.00001558
  437       -6.2641387382      -0.0000000026     0.999997    0.00001561
  438       -6.2641387407      -0.0000000026     0.999997    0.00001565
  439       -6.2641387433      -0.0000000026     0.999997    0.00001568
  440       -6.2641387459      -0.0000000026     0.999997    0.00001571
  441       -6.2641387485      -0.0000000026     0.999997    0.00001575
  442       -6.2641387511      -0.0000000026     0.999997    0.00001578
  443       -6.2641387537      -0.0000000026     0.999997    0.00001581
  444       -6.2641387564      -0.0000000026     0.999997    0.00001584
  445       -6.2641387590      -0.0000000026     0.999997    0.00001588
  446       -6.2641387617      -0.0000000027     0.999997    0.00001591
  447       -6.2641387643      -0.0000000027     0.999997    0.00001594
  448       -6.2641387670      -0.0000000027     0.999997    0.00001598
  449       -6.2641387697      -0.0000000027     0.999997    0.00001601
  450       -6.2641387724      -0.0000000027     0.999997    0.00001604
  451       -6.2641387751      -0.0000000027     0.999997    0.00001608
  452       -6.2641387778      -0.0000000027     0.999997    0.00001611
  453       -6.2641387805      -0.0000000027     0.999997    0.00001615
  454       -6.2641387833      -0.0000000027     0.999997    0.00001618
  455       -6.2641387860      -0.0000000028     0.999997    0.00001621
  456       -6.2641387888      -0.0000000028     0.999997    0.00001625
  457       -6.2641387916      -0.0000000028     0.999997    0.00001628
  458       -6.2641387944      -0.0000000028     0.999997    0.00001632
  459       -6.2641387972      -0.0000000028     0.999997    0.00001635
  460       -6.2641388000      -0.0000000028     0.999997    0.00001639
  461       -6.2641388028      -0.0000000028     0.999997    0.00001642
  462       -6.2641388057      -0.0000000028     0.999997    0.00001646
  463       -6.2641388085      -0.0000000029     0.999997    0.00001649
  464       -6.2641388114      -0.0000000029     0.999997    0.00001652
  465       -6.2641388142      -0.0000000029     0.999997    0.00001656
  466       -6.2641388171      -0.0000000029     0.999997    0.00001659
  467       -6.2641388200      -0.0000000029     0.999997    0.00001663
  468       -6.2641388229      -0.0000000029     0.999997    0.00001667
  469       -6.2641388259      -0.0000000029     0.999997    0.00001670
  470       -6.2641388288      -0.0000000029     0.999997    0.00001674
  471       -6.2641388318      -0.0000000029     0.999997    0.00001677
  472       -6.2641388347      -0.0000000030     0.999997    0.00001681
  473       -6.2641388377      -0.0000000030     0.999997    0.00001684
  474       -6.2641388407      -0.0000000030     0.999997    0.00001688
  475       -6.2641388437      -0.0000000030     0.999997    0.00001691
  476       -6.2641388467      -0.0000000030     0.999997    0.00001695
  477       -6.2641388497      -0.0000000030     0.999997    0.00001699
  478       -6.2641388527      -0.0000000030     0.999997    0.00001702
  479       -6.2641388558      -0.0000000031     0.999997    0.00001706
  480       -6.2641388589      -0.0000000031     0.999997    0.00001709
  481       -6.2641388619      -0.0000000031     0.999997    0.00001713
  482       -6.2641388650      -0.0000000031     0.999997    0.00001717
  483       -6.2641388681      -0.0000000031     0.999997    0.00001720
  484       -6.2641388712      -0.0000000031     0.999997    0.00001724
  485       -6.2641388744      -0.0000000031     0.999997    0.00001728
  486       -6.2641388775      -0.0000000031     0.999997    0.00001732
  487       -6.2641388807      -0.0000000032     0.999997    0.00001735
  488       -6.2641388838      -0.0000000032     0.999997    0.00001739
  489       -6.2641388870      -0.0000000032     0.999997    0.00001743
  490       -6.2641388902      -0.0000000032     0.999997    0.00001746
  491       -6.2641388934      -0.0000000032     0.999997    0.00001750
  492       -6.2641388967      -0.0000000032     0.999997    0.00001754
  493       -6.2641388999      -0.0000000032     0.999997    0.00001758
  494       -6.2641389032      -0.0000000033     0.999997    0.00001761
  495       -6.2641389064      -0.0000000033     0.999997    0.00001765
  496       -6.2641389097      -0.0000000033     0.999997    0.00001769
  497       -6.2641389130      -0.0000000033     0.999997    0.00001773
  498       -6.2641389163      -0.0000000033     0.999997    0.00001777
  499       -6.2641389196      -0.0000000033     0.999997    0.00001780
  500       -6.2641389230      -0.0000000033     0.999997    0.00001784
  501       -6.2641389263      -0.0000000034     0.999997    0.00001788
  502       -6.2641389297      -0.0000000034     0.999997    0.00001792
  503       -6.2641389331      -0.0000000034     0.999997    0.00001796
  504       -6.2641389365      -0.0000000034     0.999997    0.00001800
  505       -6.2641389399      -0.0000000034     0.999997    0.00001804
  506       -6.2641389433      -0.0000000034     0.999997    0.00001808
  507       -6.2641389467      -0.0000000034     0.999997    0.00001811
  508       -6.2641389502      -0.0000000035     0.999997    0.00001815
  509       -6.2641389537      -0.0000000035     0.999997    0.00001819
  510       -6.2641389572      -0.0000000035     0.999997    0.00001823
  511       -6.2641389607      -0.0000000035     0.999997    0.00001827
  512       -6.2641389642      -0.0000000035     0.999997    0.00001831
  513       -6.2641389677      -0.0000000035     0.999997    0.00001835
  514       -6.2641389712      -0.0000000035     0.999997    0.00001839
  515       -6.2641389748      -0.0000000036     0.999997    0.00001843
  516       -6.2641389784      -0.0000000036     0.999997    0.00001847
  517       -6.2641389820      -0.0000000036     0.999997    0.00001851
  518       -6.2641389856      -0.0000000036     0.999997    0.00001855
  519       -6.2641389892      -0.0000000036     0.999997    0.00001859
  520       -6.2641389929      -0.0000000036     0.999997    0.00001863
  521       -6.2641389965      -0.0000000037     0.999997    0.00001867
  522       -6.2641390002      -0.0000000037     0.999997    0.00001871
  523       -6.2641390039      -0.0000000037     0.999997    0.00001876
  524       -6.2641390076      -0.0000000037     0.999997    0.00001880
  525       -6.2641390113      -0.0000000037     0.999997    0.00001884
  526       -6.2641390150      -0.0000000037     0.999997    0.00001888
  527       -6.2641390188      -0.0000000038     0.999997    0.00001892
  528       -6.2641390226      -0.0000000038     0.999997    0.00001896
  529       -6.2641390263      -0.0000000038     0.999997    0.00001900
  530       -6.2641390302      -0.0000000038     0.999997    0.00001904
  531       -6.2641390340      -0.0000000038     0.999997    0.00001909
  532       -6.2641390378      -0.0000000038     0.999997    0.00001913
  533       -6.2641390417      -0.0000000039     0.999997    0.00001917
  534       -6.2641390455      -0.0000000039     0.999997    0.00001921
  535       -6.2641390494      -0.0000000039     0.999997    0.00001926
  536       -6.2641390533      -0.0000000039     0.999997    0.00001930
  537       -6.2641390573      -0.0000000039     0.999997    0.00001934
  538       -6.2641390612      -0.0000000039     0.999997    0.00001938
  539       -6.2641390652      -0.0000000040     0.999997    0.00001943
  540       -6.2641390691      -0.0000000040     0.999997    0.00001947
  541       -6.2641390731      -0.0000000040     0.999997    0.00001951
  542       -6.2641390771      -0.0000000040     0.999997    0.00001956
  543       -6.2641390812      -0.0000000040     0.999997    0.00001960
  544       -6.2641390852      -0.0000000040     0.999997    0.00001964
  545       -6.2641390893      -0.0000000041     0.999997    0.00001969
  546       -6.2641390934      -0.0000000041     0.999997    0.00001973
  547       -6.2641390975      -0.0000000041     0.999997    0.00001977
  548       -6.2641391016      -0.0000000041     0.999997    0.00001982
  549       -6.2641391057      -0.0000000041     0.999997    0.00001986
  550       -6.2641391099      -0.0000000042     0.999997    0.00001991
  551       -6.2641391141      -0.0000000042     0.999997    0.00001995
  552       -6.2641391182      -0.0000000042     0.999997    0.00002000
  553       -6.2641391225      -0.0000000042     0.999997    0.00002004
  554       -6.2641391267      -0.0000000042     0.999997    0.00002008
  555       -6.2641391309      -0.0000000043     0.999997    0.00002013
  556       -6.2641391352      -0.0000000043     0.999997    0.00002017
  557       -6.2641391395      -0.0000000043     0.999997    0.00002022
  558       -6.2641391438      -0.0000000043     0.999997    0.00002027
  559       -6.2641391481      -0.0000000043     0.999997    0.00002031
  560       -6.2641391525      -0.0000000043     0.999997    0.00002036
  561       -6.2641391569      -0.0000000044     0.999997    0.00002040
  562       -6.2641391612      -0.0000000044     0.999997    0.00002045
  563       -6.2641391656      -0.0000000044     0.999997    0.00002049
  564       -6.2641391701      -0.0000000044     0.999997    0.00002054
  565       -6.2641391745      -0.0000000044     0.999997    0.00002059
  566       -6.2641391790      -0.0000000045     0.999997    0.00002063
  567       -6.2641391835      -0.0000000045     0.999997    0.00002068
  568       -6.2641391880      -0.0000000045     0.999997    0.00002073
  569       -6.2641391925      -0.0000000045     0.999997    0.00002077
  570       -6.2641391971      -0.0000000045     0.999997    0.00002082
  571       -6.2641392016      -0.0000000046     0.999997    0.00002087
  572       -6.2641392062      -0.0000000046     0.999997    0.00002092
  573       -6.2641392108      -0.0000000046     0.999997    0.00002096
  574       -6.2641392155      -0.0000000046     0.999997    0.00002101
  575       -6.2641392201      -0.0000000047     0.999997    0.00002106
  576       -6.2641392248      -0.0000000047     0.999997    0.00002111
  577       -6.2641392295      -0.0000000047     0.999997    0.00002116
  578       -6.2641392342      -0.0000000047     0.999997    0.00002120
  579       -6.2641392390      -0.0000000047     0.999997    0.00002125
  580       -6.2641392437      -0.0000000048     0.999997    0.00002130
  581       -6.2641392485      -0.0000000048     0.999997    0.00002135
  582       -6.2641392533      -0.0000000048     0.999997    0.00002140
  583       -6.2641392581      -0.0000000048     0.999997    0.00002145
  584       -6.2641392630      -0.0000000049     0.999997    0.00002150
  585       -6.2641392679      -0.0000000049     0.999997    0.00002155
  586       -6.2641392728      -0.0000000049     0.999997    0.00002160
  587       -6.2641392777      -0.0000000049     0.999997    0.00002165
  588       -6.2641392826      -0.0000000049     0.999997    0.00002170
  589       -6.2641392876      -0.0000000050     0.999997    0.00002175
  590       -6.2641392926      -0.0000000050     0.999997    0.00002180
  591       -6.2641392976      -0.0000000050     0.999997    0.00002185
  592       -6.2641393026      -0.0000000050     0.999997    0.00002190
  593       -6.2641393077      -0.0000000051     0.999997    0.00002195
  594       -6.2641393128      -0.0000000051     0.999997    0.00002200
  595       -6.2641393179      -0.0000000051     0.999997    0.00002205
  596       -6.2641393230      -0.0000000051     0.999997    0.00002210
  597       -6.2641393282      -0.0000000052     0.999997    0.00002215
  598       -6.2641393333      -0.0000000052     0.999997    0.00002220
  599       -6.2641393385      -0.0000000052     0.999997    0.00002226
  600       -6.2641393438      -0.0000000052     0.999997    0.00002231
  601       -6.2641393490      -0.0000000053     0.999997    0.00002236
  602       -6.2641393543      -0.0000000053     0.999997    0.00002241
  603       -6.2641393596      -0.0000000053     0.999997    0.00002246
  604       -6.2641393649      -0.0000000053     0.999997    0.00002252
  605       -6.2641393703      -0.0000000054     0.999997    0.00002257
  606       -6.2641393756      -0.0000000054     0.999997    0.00002262
  607       -6.2641393810      -0.0000000054     0.999997    0.00002268
  608       -6.2641393865      -0.0000000054     0.999997    0.00002273
  609       -6.2641393919      -0.0000000055     0.999997    0.00002278
  610       -6.2641393974      -0.0000000055     0.999997    0.00002284
  611       -6.2641394029      -0.0000000055     0.999997    0.00002289
  612       -6.2641394084      -0.0000000055     0.999997    0.00002295
  613       -6.2641394140      -0.0000000056     0.999997    0.00002300
  614       -6.2641394196      -0.0000000056     0.999997    0.00002305
  615       -6.2641394252      -0.0000000056     0.999997    0.00002311
  616       -6.2641394308      -0.0000000056     0.999997    0.00002316
  617       -6.2641394365      -0.0000000057     0.999997    0.00002322
  618       -6.2641394422      -0.0000000057     0.999997    0.00002327
  619       -6.2641394479      -0.0000000057     0.999997    0.00002333
  620       -6.2641394536      -0.0000000057     0.999997    0.00002339
  621       -6.2641394594      -0.0000000058     0.999997    0.00002344
  622       -6.2641394652      -0.0000000058     0.999997    0.00002350
  623       -6.2641394710      -0.0000000058     0.999997    0.00002355
  624       -6.2641394769      -0.0000000059     0.999997    0.00002361
  625       -6.2641394828      -0.0000000059     0.999997    0.00002367
  626       -6.2641394887      -0.0000000059     0.999997    0.00002372
  627       -6.2641394946      -0.0000000059     0.999997    0.00002378
  628       -6.2641395006      -0.0000000060     0.999997    0.00002384
  629       -6.2641395066      -0.0000000060     0.999997    0.00002390
  630       -6.2641395127      -0.0000000060     0.999997    0.00002395
  631       -6.2641395187      -0.0000000061     0.999997    0.00002401
  632       -6.2641395248      -0.0000000061     0.999997    0.00002407
  633       -6.2641395309      -0.0000000061     0.999997    0.00002413
  634       -6.2641395371      -0.0000000061     0.999997    0.00002419
  635       -6.2641395433      -0.0000000062     0.999997    0.00002424
  636       -6.2641395495      -0.0000000062     0.999997    0.00002430
  637       -6.2641395557      -0.0000000062     0.999997    0.00002436
  638       -6.2641395620      -0.0000000063     0.999997    0.00002442
  639       -6.2641395683      -0.0000000063     0.999997    0.00002448
  640       -6.2641395746      -0.0000000063     0.999997    0.00002454
  641       -6.2641395810      -0.0000000064     0.999997    0.00002460
  642       -6.2641395874      -0.0000000064     0.999997    0.00002466
  643       -6.2641395938      -0.0000000064     0.999997    0.00002472
  644       -6.2641396003      -0.0000000065     0.999997    0.00002478
  645       -6.2641396068      -0.0000000065     0.999997    0.00002484
  646       -6.2641396133      -0.0000000065     0.999997    0.00002491
  647       -6.2641396198      -0.0000000066     0.999997    0.00002497
  648       -6.2641396264      -0.0000000066     0.999997    0.00002503
  649       -6.2641396330      -0.0000000066     0.999997    0.00002509
  650       -6.2641396397      -0.0000000067     0.999997    0.00002515
  651       -6.2641396464      -0.0000000067     0.999997    0.00002522
  652       -6.2641396531      -0.0000000067     0.999997    0.00002528
  653       -6.2641396599      -0.0000000068     0.999997    0.00002534
  654       -6.2641396667      -0.0000000068     0.999997    0.00002540
  655       -6.2641396735      -0.0000000068     0.999997    0.00002547
  656       -6.2641396803      -0.0000000069     0.999997    0.00002553
  657       -6.2641396872      -0.0000000069     0.999997    0.00002559
  658       -6.2641396942      -0.0000000069     0.999997    0.00002566
  659       -6.2641397011      -0.0000000070     0.999997    0.00002572
  660       -6.2641397081      -0.0000000070     0.999997    0.00002579
  661       -6.2641397152      -0.0000000070     0.999997    0.00002585
  662       -6.2641397222      -0.0000000071     0.999997    0.00002592
  663       -6.2641397293      -0.0000000071     0.999997    0.00002598
  664       -6.2641397365      -0.0000000071     0.999997    0.00002605
  665       -6.2641397437      -0.0000000072     0.999997    0.00002611
  666       -6.2641397509      -0.0000000072     0.999997    0.00002618
  667       -6.2641397581      -0.0000000073     0.999997    0.00002625
  668       -6.2641397654      -0.0000000073     0.999997    0.00002631
  669       -6.2641397727      -0.0000000073     0.999997    0.00002638
  670       -6.2641397801      -0.0000000074     0.999997    0.00002645
  671       -6.2641397875      -0.0000000074     0.999997    0.00002651
  672       -6.2641397949      -0.0000000074     0.999997    0.00002658
  673       -6.2641398024      -0.0000000075     0.999997    0.00002665
  674       -6.2641398099      -0.0000000075     0.999997    0.00002672
  675       -6.2641398175      -0.0000000076     0.999997    0.00002679
  676       -6.2641398251      -0.0000000076     0.999997    0.00002686
  677       -6.2641398327      -0.0000000076     0.999997    0.00002693
  678       -6.2641398404      -0.0000000077     0.999997    0.00002699
  679       -6.2641398481      -0.0000000077     0.999997    0.00002706
  680       -6.2641398559      -0.0000000078     0.999997    0.00002713
  681       -6.2641398637      -0.0000000078     0.999997    0.00002720
  682       -6.2641398715      -0.0000000078     0.999997    0.00002728
  683       -6.2641398794      -0.0000000079     0.999997    0.00002735
  684       -6.2641398873      -0.0000000079     0.999997    0.00002742
  685       -6.2641398953      -0.0000000080     0.999997    0.00002749
  686       -6.2641399033      -0.0000000080     0.999997    0.00002756
  687       -6.2641399113      -0.0000000080     0.999997    0.00002763
  688       -6.2641399194      -0.0000000081     0.999997    0.00002770
  689       -6.2641399275      -0.0000000081     0.999997    0.00002778
  690       -6.2641399357      -0.0000000082     0.999997    0.00002785
  691       -6.2641399439      -0.0000000082     0.999997    0.00002792
  692       -6.2641399522      -0.0000000083     0.999997    0.00002800
  693       -6.2641399605      -0.0000000083     0.999997    0.00002807
  694       -6.2641399689      -0.0000000084     0.999997    0.00002814
  695       -6.2641399772      -0.0000000084     0.999997    0.00002822
  696       -6.2641399857      -0.0000000084     0.999997    0.00002829
  697       -6.2641399942      -0.0000000085     0.999997    0.00002837
  698       -6.2641400027      -0.0000000085     0.999997    0.00002844
  699       -6.2641400113      -0.0000000086     0.999997    0.00002852
  700       -6.2641400199      -0.0000000086     0.999997    0.00002860
  701       -6.2641400286      -0.0000000087     0.999997    0.00002867
  702       -6.2641400373      -0.0000000087     0.999997    0.00002875
  703       -6.2641400461      -0.0000000088     0.999997    0.00002883
  704       -6.2641400549      -0.0000000088     0.999997    0.00002890
  705       -6.2641400637      -0.0000000089     0.999997    0.00002898
  706       -6.2641400726      -0.0000000089     0.999997    0.00002906
  707       -6.2641400816      -0.0000000090     0.999997    0.00002914
  708       -6.2641400906      -0.0000000090     0.999997    0.00002922
  709       -6.2641400997      -0.0000000091     0.999997    0.00002930
  710       -6.2641401088      -0.0000000091     0.999997    0.00002938
  711       -6.2641401179      -0.0000000092     0.999997    0.00002946
  712       -6.2641401271      -0.0000000092     0.999997    0.00002954
  713       -6.2641401364      -0.0000000093     0.999997    0.00002962
  714       -6.2641401457      -0.0000000093     0.999997    0.00002970
  715       -6.2641401551      -0.0000000094     0.999997    0.00002978
  716       -6.2641401645      -0.0000000094     0.999997    0.00002986
  717       -6.2641401740      -0.0000000095     0.999997    0.00002994
  718       -6.2641401835      -0.0000000095     0.999997    0.00003003
  719       -6.2641401930      -0.0000000096     0.999997    0.00003011
  720       -6.2641402027      -0.0000000096     0.999997    0.00003019
  721       -6.2641402124      -0.0000000097     0.999997    0.00003028
  722       -6.2641402221      -0.0000000097     0.999997    0.00003036
  723       -6.2641402319      -0.0000000098     0.999997    0.00003044
  724       -6.2641402417      -0.0000000098     0.999997    0.00003053
  725       -6.2641402516      -0.0000000099     0.999997    0.00003061
  726       -6.2641402616      -0.0000000100     0.999997    0.00003070
  727       -6.2641402716      -0.0000000100     0.999997    0.00003078
  728       -6.2641402817      -0.0000000101     0.999997    0.00003087
  729       -6.2641402918      -0.0000000101     0.999997    0.00003096
  730       -6.2641403020      -0.0000000102     0.999997    0.00003105
  731       -6.2641403122      -0.0000000102     0.999997    0.00003113
  732       -6.2641403225      -0.0000000103     0.999997    0.00003122
  733       -6.2641403329      -0.0000000104     0.999997    0.00003131
  734       -6.2641403433      -0.0000000104     0.999997    0.00003140
  735       -6.2641403538      -0.0000000105     0.999997    0.00003149
  736       -6.2641403643      -0.0000000105     0.999997    0.00003158
  737       -6.2641403749      -0.0000000106     0.999997    0.00003167
  738       -6.2641403856      -0.0000000107     0.999997    0.00003176
  739       -6.2641403963      -0.0000000107     0.999997    0.00003185
  740       -6.2641404071      -0.0000000108     0.999997    0.00003194
  741       -6.2641404180      -0.0000000109     0.999997    0.00003203
  742       -6.2641404289      -0.0000000109     0.999997    0.00003212
  743       -6.2641404399      -0.0000000110     0.999997    0.00003222
  744       -6.2641404509      -0.0000000110     0.999997    0.00003231
  745       -6.2641404620      -0.0000000111     0.999997    0.00003240
  746       -6.2641404732      -0.0000000112     0.999997    0.00003250
  747       -6.2641404844      -0.0000000112     0.999997    0.00003259
  748       -6.2641404957      -0.0000000113     0.999997    0.00003269
  749       -6.2641405071      -0.0000000114     0.999997    0.00003278
  750       -6.2641405186      -0.0000000114     0.999997    0.00003288
  751       -6.2641405301      -0.0000000115     0.999997    0.00003298
  752       -6.2641405417      -0.0000000116     0.999997    0.00003307
  753       -6.2641405533      -0.0000000117     0.999997    0.00003317
  754       -6.2641405650      -0.0000000117     0.999997    0.00003327
  755       -6.2641405768      -0.0000000118     0.999997    0.00003337
  756       -6.2641405887      -0.0000000119     0.999997    0.00003347
  757       -6.2641406006      -0.0000000119     0.999997    0.00003357
  758       -6.2641406126      -0.0000000120     0.999997    0.00003367
  759       -6.2641406247      -0.0000000121     0.999997    0.00003377
  760       -6.2641406368      -0.0000000122     0.999997    0.00003387
  761       -6.2641406491      -0.0000000122     0.999997    0.00003397
  762       -6.2641406614      -0.0000000123     0.999997    0.00003407
  763       -6.2641406738      -0.0000000124     0.999997    0.00003417
  764       -6.2641406862      -0.0000000125     0.999997    0.00003428
  765       -6.2641406987      -0.0000000125     0.999997    0.00003438
  766       -6.2641407113      -0.0000000126     0.999997    0.00003448
  767       -6.2641407240      -0.0000000127     0.999997    0.00003459
  768       -6.2641407368      -0.0000000128     0.999997    0.00003469
  769       -6.2641407496      -0.0000000128     0.999997    0.00003480
  770       -6.2641407626      -0.0000000129     0.999997    0.00003491
  771       -6.2641407756      -0.0000000130     0.999997    0.00003501
  772       -6.2641407886      -0.0000000131     0.999997    0.00003512
  773       -6.2641408018      -0.0000000132     0.999997    0.00003523
  774       -6.2641408151      -0.0000000133     0.999997    0.00003534
  775       -6.2641408284      -0.0000000133     0.999997    0.00003545
  776       -6.2641408418      -0.0000000134     0.999997    0.00003556
  777       -6.2641408553      -0.0000000135     0.999997    0.00003567
  778       -6.2641408689      -0.0000000136     0.999997    0.00003578
  779       -6.2641408826      -0.0000000137     0.999997    0.00003589
  780       -6.2641408963      -0.0000000138     0.999997    0.00003600
  781       -6.2641409102      -0.0000000139     0.999997    0.00003612
  782       -6.2641409241      -0.0000000139     0.999997    0.00003623
  783       -6.2641409382      -0.0000000140     0.999997    0.00003634
  784       -6.2641409523      -0.0000000141     0.999997    0.00003646
  785       -6.2641409665      -0.0000000142     0.999997    0.00003657
  786       -6.2641409808      -0.0000000143     0.999997    0.00003669
  787       -6.2641409952      -0.0000000144     0.999997    0.00003681
  788       -6.2641410097      -0.0000000145     0.999997    0.00003692
  789       -6.2641410243      -0.0000000146     0.999997    0.00003704
  790       -6.2641410389      -0.0000000147     0.999997    0.00003716
  791       -6.2641410537      -0.0000000148     0.999997    0.00003728
  792       -6.2641410686      -0.0000000149     0.999997    0.00003740
  793       -6.2641410836      -0.0000000150     0.999997    0.00003752
  794       -6.2641410986      -0.0000000151     0.999997    0.00003764
  795       -6.2641411138      -0.0000000152     0.999997    0.00003776
  796       -6.2641411291      -0.0000000153     0.999997    0.00003789
  797       -6.2641411444      -0.0000000154     0.999997    0.00003801
  798       -6.2641411599      -0.0000000155     0.999997    0.00003814
  799       -6.2641411755      -0.0000000156     0.999997    0.00003826
  800       -6.2641411912      -0.0000000157     0.999997    0.00003839
  801       -6.2641412070      -0.0000000158     0.999997    0.00003851
  802       -6.2641412229      -0.0000000159     0.999997    0.00003864
  803       -6.2641412389      -0.0000000160     0.999997    0.00003877
  804       -6.2641412550      -0.0000000161     0.999997    0.00003890
  805       -6.2641412712      -0.0000000162     0.999997    0.00003903
  806       -6.2641412875      -0.0000000163     0.999997    0.00003916
  807       -6.2641413040      -0.0000000164     0.999997    0.00003929
  808       -6.2641413205      -0.0000000166     0.999997    0.00003942
  809       -6.2641413372      -0.0000000167     0.999997    0.00003955
  810       -6.2641413540      -0.0000000168     0.999997    0.00003969
  811       -6.2641413709      -0.0000000169     0.999997    0.00003982
  812       -6.2641413879      -0.0000000170     0.999997    0.00003995
  813       -6.2641414050      -0.0000000171     0.999997    0.00004009
  814       -6.2641414223      -0.0000000173     0.999997    0.00004023
  815       -6.2641414397      -0.0000000174     0.999997    0.00004036
  816       -6.2641414572      -0.0000000175     0.999997    0.00004050
  817       -6.2641414748      -0.0000000176     0.999997    0.00004064
  818       -6.2641414925      -0.0000000177     0.999997    0.00004078
  819       -6.2641415104      -0.0000000179     0.999997    0.00004092
  820       -6.2641415284      -0.0000000180     0.999997    0.00004106
  821       -6.2641415465      -0.0000000181     0.999997    0.00004121
  822       -6.2641415648      -0.0000000183     0.999997    0.00004135
  823       -6.2641415832      -0.0000000184     0.999997    0.00004150
  824       -6.2641416017      -0.0000000185     0.999997    0.00004164
  825       -6.2641416204      -0.0000000187     0.999997    0.00004179
  826       -6.2641416391      -0.0000000188     0.999997    0.00004193
  827       -6.2641416581      -0.0000000189     0.999997    0.00004208
  828       -6.2641416771      -0.0000000191     0.999997    0.00004223
  829       -6.2641416963      -0.0000000192     0.999997    0.00004238
  830       -6.2641417157      -0.0000000193     0.999997    0.00004253
  831       -6.2641417351      -0.0000000195     0.999997    0.00004268
  832       -6.2641417548      -0.0000000196     0.999997    0.00004284
  833       -6.2641417745      -0.0000000198     0.999997    0.00004299
  834       -6.2641417944      -0.0000000199     0.999997    0.00004315
  835       -6.2641418145      -0.0000000201     0.999997    0.00004330
  836       -6.2641418347      -0.0000000202     0.999997    0.00004346
  837       -6.2641418551      -0.0000000204     0.999997    0.00004362
  838       -6.2641418756      -0.0000000205     0.999997    0.00004378
  839       -6.2641418963      -0.0000000207     0.999997    0.00004394
  840       -6.2641419171      -0.0000000208     0.999997    0.00004410
  841       -6.2641419381      -0.0000000210     0.999997    0.00004426
  842       -6.2641419592      -0.0000000211     0.999997    0.00004442
  843       -6.2641419805      -0.0000000213     0.999997    0.00004459
  844       -6.2641420020      -0.0000000215     0.999997    0.00004475
  845       -6.2641420236      -0.0000000216     0.999997    0.00004492
  846       -6.2641420454      -0.0000000218     0.999997    0.00004509
  847       -6.2641420674      -0.0000000220     0.999997    0.00004526
  848       -6.2641420895      -0.0000000221     0.999997    0.00004543
  849       -6.2641421118      -0.0000000223     0.999997    0.00004560
  850       -6.2641421343      -0.0000000225     0.999997    0.00004577
  851       -6.2641421569      -0.0000000227     0.999997    0.00004595
  852       -6.2641421798      -0.0000000228     0.999997    0.00004612
  853       -6.2641422028      -0.0000000230     0.999997    0.00004630
  854       -6.2641422260      -0.0000000232     0.999997    0.00004647
  855       -6.2641422493      -0.0000000234     0.999997    0.00004665
  856       -6.2641422729      -0.0000000236     0.999997    0.00004683
  857       -6.2641422966      -0.0000000237     0.999997    0.00004701
  858       -6.2641423206      -0.0000000239     0.999997    0.00004720
  859       -6.2641423447      -0.0000000241     0.999997    0.00004738
  860       -6.2641423690      -0.0000000243     0.999997    0.00004756
  861       -6.2641423935      -0.0000000245     0.999997    0.00004775
  862       -6.2641424183      -0.0000000247     0.999997    0.00004794
  863       -6.2641424432      -0.0000000249     0.999997    0.00004813
  864       -6.2641424683      -0.0000000251     0.999997    0.00004832
  865       -6.2641424936      -0.0000000253     0.999997    0.00004851
  866       -6.2641425191      -0.0000000255     0.999997    0.00004870
  867       -6.2641425449      -0.0000000257     0.999997    0.00004890
  868       -6.2641425708      -0.0000000260     0.999997    0.00004909
  869       -6.2641425970      -0.0000000262     0.999997    0.00004929
  870       -6.2641426234      -0.0000000264     0.999997    0.00004949
  871       -6.2641426500      -0.0000000266     0.999997    0.00004969
  872       -6.2641426768      -0.0000000268     0.999997    0.00004989
  873       -6.2641427039      -0.0000000271     0.999997    0.00005010
  874       -6.2641427312      -0.0000000273     0.999997    0.00005030
  875       -6.2641427587      -0.0000000275     0.999997    0.00005051
  876       -6.2641427864      -0.0000000277     0.999997    0.00005071
  877       -6.2641428144      -0.0000000280     0.999997    0.00005092
  878       -6.2641428426      -0.0000000282     0.999997    0.00005114
  879       -6.2641428711      -0.0000000285     0.999997    0.00005135
  880       -6.2641428998      -0.0000000287     0.999997    0.00005156
  881       -6.2641429288      -0.0000000290     0.999997    0.00005178
  882       -6.2641429580      -0.0000000292     0.999997    0.00005200
  883       -6.2641429875      -0.0000000295     0.999997    0.00005222
  884       -6.2641430172      -0.0000000297     0.999997    0.00005244
  885       -6.2641430472      -0.0000000300     0.999997    0.00005266
  886       -6.2641430774      -0.0000000303     0.999997    0.00005288
  887       -6.2641431079      -0.0000000305     0.999997    0.00005311
  888       -6.2641431387      -0.0000000308     0.999997    0.00005334
  889       -6.2641431698      -0.0000000311     0.999997    0.00005357
  890       -6.2641432011      -0.0000000313     0.999997    0.00005380
  891       -6.2641432328      -0.0000000316     0.999997    0.00005404
  892       -6.2641432647      -0.0000000319     0.999997    0.00005427
  893       -6.2641432969      -0.0000000322     0.999997    0.00005451
  894       -6.2641433294      -0.0000000325     0.999997    0.00005475
  895       -6.2641433621      -0.0000000328     0.999997    0.00005499
  896       -6.2641433952      -0.0000000331     0.999997    0.00005523
  897       -6.2641434286      -0.0000000334     0.999997    0.00005548
  898       -6.2641434623      -0.0000000337     0.999997    0.00005573
  899       -6.2641434963      -0.0000000340     0.999997    0.00005598
  900       -6.2641435306      -0.0000000343     0.999997    0.00005623
  901       -6.2641435653      -0.0000000346     0.999997    0.00005648
  902       -6.2641436003      -0.0000000350     0.999997    0.00005674
  903       -6.2641436356      -0.0000000353     0.999997    0.00005699
  904       -6.2641436712      -0.0000000356     0.999997    0.00005725
  905       -6.2641437072      -0.0000000360     0.999997    0.00005752
  906       -6.2641437435      -0.0000000363     0.999997    0.00005778
  907       -6.2641437802      -0.0000000367     0.999997    0.00005805
  908       -6.2641438172      -0.0000000370     0.999997    0.00005832
  909       -6.2641438545      -0.0000000374     0.999997    0.00005859
  910       -6.2641438923      -0.0000000377     0.999997    0.00005886
  911       -6.2641439304      -0.0000000381     0.999997    0.00005914
  912       -6.2641439689      -0.0000000385     0.999997    0.00005942
  913       -6.2641440077      -0.0000000389     0.999997    0.00005970
  914       -6.2641440469      -0.0000000392     0.999997    0.00005998
  915       -6.2641440866      -0.0000000396     0.999997    0.00006027
  916       -6.2641441266      -0.0000000400     0.999997    0.00006056
  917       -6.2641441670      -0.0000000404     0.999997    0.00006085
  918       -6.2641442078      -0.0000000408     0.999997    0.00006114
  919       -6.2641442491      -0.0000000412     0.999997    0.00006144
  920       -6.2641442907      -0.0000000416     0.999997    0.00006173
  921       -6.2641443328      -0.0000000421     0.999997    0.00006204
  922       -6.2641443753      -0.0000000425     0.999997    0.00006234
  923       -6.2641444182      -0.0000000429     0.999997    0.00006265
  924       -6.2641444616      -0.0000000434     0.999997    0.00006296
  925       -6.2641445054      -0.0000000438     0.999997    0.00006327
  926       -6.2641445497      -0.0000000443     0.999997    0.00006359
  927       -6.2641445944      -0.0000000447     0.999997    0.00006390
  928       -6.2641446397      -0.0000000452     0.999997    0.00006423
  929       -6.2641446853      -0.0000000457     0.999997    0.00006455
  930       -6.2641447315      -0.0000000462     0.999997    0.00006488
  931       -6.2641447782      -0.0000000467     0.999997    0.00006521
  932       -6.2641448253      -0.0000000472     0.999997    0.00006554
  933       -6.2641448730      -0.0000000477     0.999997    0.00006588
  934       -6.2641449212      -0.0000000482     0.999997    0.00006622
  935       -6.2641449699      -0.0000000487     0.999997    0.00006656
  936       -6.2641450191      -0.0000000492     0.999997    0.00006691
  937       -6.2641450689      -0.0000000498     0.999997    0.00006726
  938       -6.2641451192      -0.0000000503     0.999997    0.00006761
  939       -6.2641451700      -0.0000000509     0.999997    0.00006797
  940       -6.2641452214      -0.0000000514     0.999997    0.00006833
  941       -6.2641452734      -0.0000000520     0.999997    0.00006870
  942       -6.2641453260      -0.0000000526     0.999997    0.00006906
  943       -6.2641453792      -0.0000000532     0.999997    0.00006944
  944       -6.2641454330      -0.0000000538     0.999997    0.00006981
  945       -6.2641454873      -0.0000000544     0.999997    0.00007019
  946       -6.2641455423      -0.0000000550     0.999997    0.00007057
  947       -6.2641455980      -0.0000000556     0.999997    0.00007096
  948       -6.2641456542      -0.0000000563     0.999997    0.00007135
  949       -6.2641457111      -0.0000000569     0.999997    0.00007174
  950       -6.2641457687      -0.0000000576     0.999997    0.00007214
  951       -6.2641458270      -0.0000000583     0.999997    0.00007255
  952       -6.2641458859      -0.0000000589     0.999997    0.00007295
  953       -6.2641459455      -0.0000000596     0.999997    0.00007336
  954       -6.2641460059      -0.0000000603     0.999997    0.00007378
  955       -6.2641460669      -0.0000000611     0.999997    0.00007420
  956       -6.2641461287      -0.0000000618     0.999997    0.00007462
  957       -6.2641461912      -0.0000000625     0.999997    0.00007505
  958       -6.2641462545      -0.0000000633     0.999997    0.00007549
  959       -6.2641463186      -0.0000000641     0.999997    0.00007592
  960       -6.2641463834      -0.0000000648     0.999997    0.00007637
  961       -6.2641464491      -0.0000000656     0.999997    0.00007681
  962       -6.2641465155      -0.0000000664     0.999997    0.00007727
  963       -6.2641465828      -0.0000000673     0.999997    0.00007772
  964       -6.2641466509      -0.0000000681     0.999997    0.00007819
  965       -6.2641467199      -0.0000000690     0.999997    0.00007865
  966       -6.2641467897      -0.0000000698     0.999997    0.00007913
  967       -6.2641468604      -0.0000000707     0.999997    0.00007960
  968       -6.2641469321      -0.0000000716     0.999997    0.00008009
  969       -6.2641470046      -0.0000000725     0.999997    0.00008058
  970       -6.2641470781      -0.0000000735     0.999997    0.00008107
  971       -6.2641471525      -0.0000000744     0.999997    0.00008157
  972       -6.2641472279      -0.0000000754     0.999997    0.00008208
  973       -6.2641473043      -0.0000000764     0.999997    0.00008259
  974       -6.2641473817      -0.0000000774     0.999997    0.00008311
  975       -6.2641474601      -0.0000000784     0.999997    0.00008363
  976       -6.2641475396      -0.0000000795     0.999997    0.00008416
  977       -6.2641476201      -0.0000000805     0.999997    0.00008469
  978       -6.2641477018      -0.0000000816     0.999997    0.00008524
  979       -6.2641477845      -0.0000000827     0.999997    0.00008578
  980       -6.2641478684      -0.0000000839     0.999997    0.00008634
  981       -6.2641479534      -0.0000000850     0.999997    0.00008690
  982       -6.2641480395      -0.0000000862     0.999997    0.00008747
  983       -6.2641481269      -0.0000000874     0.999997    0.00008805
  984       -6.2641482155      -0.0000000886     0.999997    0.00008863
  985       -6.2641483054      -0.0000000898     0.999997    0.00008922
  986       -6.2641483965      -0.0000000911     0.999997    0.00008981
  987       -6.2641484889      -0.0000000924     0.999997    0.00009042
  988       -6.2641485826      -0.0000000937     0.999997    0.00009103
  989       -6.2641486777      -0.0000000951     0.999997    0.00009165
  990       -6.2641487741      -0.0000000965     0.999997    0.00009228
  991       -6.2641488720      -0.0000000979     0.999997    0.00009291
  992       -6.2641489713      -0.0000000993     0.999997    0.00009355
  993       -6.2641490721      -0.0000001008     0.999997    0.00009421
  994       -6.2641491743      -0.0000001023     0.999997    0.00009487
  995       -6.2641492781      -0.0000001038     0.999997    0.00009553
  996       -6.2641493834      -0.0000001053     0.999997    0.00009621
  997       -6.2641494903      -0.0000001069     0.999997    0.00009690
  998       -6.2641495989      -0.0000001086     0.999997    0.00009759
  999       -6.2641497091      -0.0000001102     0.999997    0.00009829
 1000       -6.2641498210      -0.0000001119     0.999997    0.00009901

Total Energy:                       -6.2641498210 H         -170.4562 eV
Extrapolated to 0:                  -6.2345928799 H         -169.6519 eV

----------------------------------------------------------------------------------
 Solving CP-REKS equation for  1 state vector...
----------------------------------------------------------------------------------
  CG solver: Constructing Y initial guess
  CG solver: Iteration    1    eps =    0.051898000427
  CG solver: Iteration    2    eps =    0.012024333896
  CG solver: Iteration    3    eps =    0.026126741765
  CG solver: Iteration    4    eps =    1.092075513422
  CG solver: Iteration    5    eps =    0.013955940192
  CG solver: Iteration    6    eps =    0.000456809827
  CG solver: Iteration    7    eps =    0.000129328253
  CG solver: Iteration    8    eps =    0.000016914384
  CG solver: Iteration    9    eps =    0.000001724436
  CG solver: Iteration   10    eps =    0.000000091065
  CG solver: Iteration   11    eps =    0.000000009659
  Convergence reached in CG solver after   11 iterations
  CG solver: Calculating converged R, Z, Q2 matrix
----------------------------------------------------------------------------------

----------------------------------------------------------------------------------
 Solving CP-REKS equation for SI between  1 and  2 state vectors...
----------------------------------------------------------------------------------
  CG solver: Constructing Y initial guess
  CG solver: Iteration    1    eps =    0.003355535420
  CG solver: Iteration    2    eps =    0.001605179658
  CG solver: Iteration    3    eps =    0.109881620941
  CG solver: Iteration    4    eps =    0.000964958760
  CG solver: Iteration    5    eps =    0.000094584449
  CG solver: Iteration    6    eps =    0.000011778235
  CG solver: Iteration    7    eps =    0.000001601657
  CG solver: Iteration    8    eps =    0.000000064803
  CG solver: Iteration    9    eps =    0.000000001209
  Convergence reached in CG solver after    9 iterations
  CG solver: Calculating converged R, Z, Q2 matrix
----------------------------------------------------------------------------------

--------------------------------------------------
 Gradient Information
--------------------------------------------------
           1 st state (SSR)
     0.00000000     0.00000000     0.00000000
     0.00000000     0.00000000     0.00000000
     0.00000000     0.00000000     0.00000000
     0.00000000     0.00000000     0.00000000
     0.00000000     0.00000000     0.00000000
     0.00000000     0.00000000     0.00000000

           2 st state (SSR)
     0.00000000     0.00000000     0.00000000
     0.00000000     0.00000000     0.00000000
     0.00000000     0.00000000     0.00000000
     0.00000000     0.00000000     0.00000000
     0.00000000     0.00000000     0.00000000
     0.00000000     0.00000000     0.00000000
--------------------------------------------------
 Coupling Information
--------------------------------------------------
 between  1 and  2 states
--------------------------------------------------
 g vector - difference gradient
     0.39464883     0.29549121     0.56430217
    -0.09448136    -0.23949385    -0.88087190
     0.17993093    -0.52300810     0.02707821
    -0.06426559     0.43481770     0.06464304
    -0.14990429    -0.45112617     0.24467818
    -0.26592852     0.48331920    -0.01982969

 h vector - derivative coupling
    -0.01186471     0.02234764    -0.25088470
    -0.00968573    -0.02644860     0.26277300
     0.00495608     0.13354719     0.00976644
    -0.01371276    -0.14465019    -0.01555291
     0.02390480     0.15449779    -0.01256546
     0.00640233    -0.13929382     0.00646364

 G vector - GDV
     0.00000000     0.00000000     0.00000000
     0.00000000     0.00000000     0.00000000
     0.00000000     0.00000000     0.00000000
     0.00000000     0.00000000     0.00000000
     0.00000000     0.00000000     0.00000000
     0.00000000     0.00000000     0.00000000

 H vector - DCV - non-adiabatic coupling
     0.00000000     0.00000000     0.00000000
     0.00000000     0.00000000     0.00000000
     0.00000000     0.00000000     0.00000000
     0.00000000     0.00000000     0.00000000
     0.00000000     0.00000000     0.00000000
     0.00000000     0.00000000     0.00000000
--------------------------------------------------

WARNING!
-> SCC is NOT converged, maximal SCC iterations exceeded

--------------------------------------------------------------------------------
DFTB+ running times                          cpu [s]             wall clock [s]
--------------------------------------------------------------------------------
SCC                                    +     0.41  ( 96.9%)      0.41  ( 96.2%)
      Sparse to dense                        0.02  (  4.7%)      0.02  (  5.2%)
      Dense to sparse                        0.07  ( 15.8%)      0.06  ( 13.4%)
      Range separated Hamiltonian            0.03  (  6.6%)      0.03  (  7.5%)
  Density matrix creation                    0.05  ( 12.2%)      0.05  ( 12.2%)
  Force calculation                          0.01  (  2.8%)      0.01  (  2.8%)
--------------------------------------------------------------------------------
Missing                                +     0.01  (  3.1%)      0.02  (  3.8%)
Total                                  =     0.42  (100.0%)      0.43  (100.0%)
--------------------------------------------------------------------------------
