     6
  Step:   600            Position(A)                                  Velocity(au)
C        -0.02037196     0.02400761     0.05224644     0.00015246     0.00073670    -0.00044987
N         0.00085753    -0.07459251     1.36680774     0.00010509    -0.00038941     0.00039033
H         0.68097412     0.35379048    -0.85278117     0.00352080    -0.00026897    -0.00031337
H        -0.94839638    -0.47810792     1.71552451     0.00179396     0.00083573    -0.00377346
H        -0.33092640     0.94117026     1.69453003    -0.00380277    -0.00138314    -0.00151442
H        -0.38354192    -0.73626622    -1.28121388    -0.00478916    -0.00255084     0.00553774
