|===============================================================================
|
|  DFTB+ release 20.1
|
|  Copyright (C) 2006 - 2020  DFTB+ developers group
|
|===============================================================================
|
|  When publishing results obtained with DFTB+, please cite the following
|  reference:
|
|  * DFTB+, a software package for efficient approximate density functional
|    theory based atomistic simulations, J. Chem. Phys. 152, 124101 (2020).
|    [doi: 10.1063/1.5143190]
|
|  You should also cite additional publications crediting the parametrization
|  data you use. Please consult the documentation of the SK-files for the
|  references.
|
|===============================================================================

Reading input file 'dftb_in.hsd'
Parser version: 8

--------------------------------------------------------------------------------
Reading SK-files:
Done.


Processed input in HSD format written to 'dftb_pin.hsd'

Starting initialization...
--------------------------------------------------------------------------------
OpenMP threads:              1
Chosen random seed:          510228658
Mode:                        Static calculation
Self consistent charges:     Yes
SCC-tolerance:                 0.100000E-05
Max. scc iterations:                   1000
Shell resolved Hubbard:      No
Spin polarisation:           No
Nr. of up electrons:             6.000000
Nr. of down electrons:           6.000000
Periodic boundaries:         No
Electronic solver:           Relatively robust
Maximal SCC-cycles:                    1000
Initial charges:             Set automatically (system chrg:   0.100E+01)
Included shells:             C:  s, p
                             N:  s, p
                             H:  s
Spin coupling constants:     C   1(s)-1(s):  -0.455900E-01
                             C   1(s)-2(p):  -0.293000E-01
                             C   2(p)-1(s):  -0.293000E-01
                             C   2(p)-2(p):  -0.275500E-01
                             N   1(s)-1(s):  -0.468700E-01
                             N   1(s)-2(p):  -0.317000E-01
                             N   2(p)-1(s):  -0.317000E-01
                             N   2(p)-2(p):  -0.307200E-01
                             H   1(s)-1(s):  -0.792500E-01
Range separated hybrid:      Yes
  Screening parameter omega:   0.300000E+00
  Range separated algorithm:   MatrixBased
Extra options:
                             Mulliken analysis
                             Force calculation
Force type                   original
                             Eigenvector printing


REKS Calcuation:             Yes
SSR(2,2) Calcuation:         Yes
Energy Functional:           (PPS+OSS)/2
Number of Core Orbitals:                  5
Number of Active Orbitals:                2
Number of Basis:                         12
Number of States:                         2
State-Averaging Weight:          0.500000
                                 0.500000
State of Interest:                        1
Initial Guess:               Diagonalize H0 matrix
Newton-Raphson for FON opt:  Yes
NR max. Iterations:                      50
Level Shifting:              Yes
Shift Value:                     0.300000
W Scale Factor:              C  =    3.000000
                             N  =    3.000000
                             H  =    3.000000
Transition Dipole:           No
Gradient of Microstate:      No
CP-REKS Solver:              Preconditioned Conjugate-Gradient
CG max. Iterations:                     100
CG Tolerance:                  0.100000E-07
Memory for A and Hxc:        Direct Updating Without Saving
Non-Adiabatic Coupling:      Yes

--------------------------------------------------------------------------------

***  Geometry step: 0

  iSCC       reks energy        Diff energy         x_a       SCC error   
    1       -6.2740773110       0.0000000000     0.999879    1.19386405
    2       -6.2815500546      -0.0074727437     0.999932    0.04766044
    3       -6.2841722135      -0.0026221589     0.999954    0.01666983
    4       -6.2854033231      -0.0012311096     0.999964    0.00944963
    5       -6.2860067040      -0.0006033809     0.999969    0.00788429
    6       -6.2863054492      -0.0002987451     0.999971    0.00617632
    7       -6.2864537696      -0.0001483204     0.999972    0.00465965
    8       -6.2865274576      -0.0000736880     0.999973    0.00343425
    9       -6.2865640704      -0.0000366128     0.999974    0.00249376
   10       -6.2865822613      -0.0000181909     0.999974    0.00179351
   11       -6.2865912993      -0.0000090380     0.999974    0.00128179
   12       -6.2865957901      -0.0000044907     0.999974    0.00091225
   13       -6.2865980217      -0.0000022317     0.999974    0.00064743
   14       -6.2865991310      -0.0000011093     0.999974    0.00045862
   15       -6.2865996825      -0.0000005516     0.999974    0.00032446
   16       -6.2865999569      -0.0000002744     0.999974    0.00022934
   17       -6.2866000934      -0.0000001365     0.999974    0.00016201
   18       -6.2866001614      -0.0000000680     0.999974    0.00011440
   19       -6.2866001953      -0.0000000339     0.999974    0.00008076
   20       -6.2866002122      -0.0000000169     0.999974    0.00005701
   21       -6.2866002206      -0.0000000084     0.999974    0.00004024
   22       -6.2866002248      -0.0000000042     0.999974    0.00002840
   23       -6.2866002269      -0.0000000021     0.999974    0.00002005
   24       -6.2866002280      -0.0000000011     0.999974    0.00001416
   25       -6.2866002285      -0.0000000005     0.999974    0.00001000
   26       -6.2866002288      -0.0000000003     0.999974    0.00000706
   27       -6.2866002289      -0.0000000001     0.999974    0.00000499
   28       -6.2866002290      -0.0000000001     0.999974    0.00000352
   29       -6.2866002290      -0.0000000000     0.999974    0.00000249
   30       -6.2866002290      -0.0000000000     0.999974    0.00000176
   31       -6.2866002290      -0.0000000000     0.999974    0.00000125
   32       -6.2866002290      -0.0000000000     0.999974    0.00000088
  
--------------------------------------------------
 Final SA-REKS(2,2) energy:      -6.28660023
  
 State     Energy      FON(1)    FON(2)   Spin
  PPS   -6.41728665   1.999949  0.000051  0.00
  OSS   -6.15591381   1.000000  1.000000  0.00
 Trip   -6.23386221   1.000000  1.000000  1.00
--------------------------------------------------

 Lagrangian Wab:   0.00072084  0.00072067

--------------------------------------------------
 SSR: 2SI-2SA-REKS(2,2) Hamiltonian matrix
               PPS           OSS
   PPS    -6.41728665    0.00101424
   OSS     0.00101424   -6.15591381
--------------------------------------------------

----------------------------------------------------------------
 SSR: 2SI-2SA-REKS(2,2) states
                    E_n       C_{PPS}    C_{OSS}
 SSR state  1   -6.41729059  -0.999992   0.003880
 SSR state  2   -6.15590987  -0.003880  -0.999992
----------------------------------------------------------------

 unrelaxed SSR FONs for S0:  1.999933  0.000067

Total Energy:                       -6.4172905871 H         -174.6234 eV
Extrapolated to 0:                  -6.4172905871 H         -174.6234 eV

----------------------------------------------------------------------------------
 Solving CP-REKS equation for  1 state vector...
----------------------------------------------------------------------------------
  CG solver: Constructing Y initial guess
  CG solver: Iteration    1    eps =    0.000036014651
  CG solver: Iteration    2    eps =    0.000002163084
  CG solver: Iteration    3    eps =    0.000000319924
  CG solver: Iteration    4    eps =    0.000000003624
  Convergence reached in CG solver after    4 iterations
  CG solver: Calculating converged R, Z, Q2 matrix
----------------------------------------------------------------------------------

----------------------------------------------------------------------------------
 Solving CP-REKS equation for SI between  1 and  2 state vectors...
----------------------------------------------------------------------------------
  CG solver: Constructing Y initial guess
  CG solver: Iteration    1    eps =    0.000330497847
  CG solver: Iteration    2    eps =    0.000103792777
  CG solver: Iteration    3    eps =    0.000026340129
  CG solver: Iteration    4    eps =    0.000000810254
  CG solver: Iteration    5    eps =    0.000000029312
  CG solver: Iteration    6    eps =    0.000000004135
  Convergence reached in CG solver after    6 iterations
  CG solver: Calculating converged R, Z, Q2 matrix
----------------------------------------------------------------------------------

--------------------------------------------------
 Gradient Information
--------------------------------------------------
           1 st state (SSR)
    -0.00354964    -0.00254783     0.02507601
     0.01294461     0.00006517    -0.01914047
     0.00182367     0.00209451    -0.00993723
    -0.00282473     0.00062608     0.00475082
    -0.00673578    -0.00000749     0.00679485
    -0.00165812    -0.00023043    -0.00754398

           2 st state (SSR)
     0.00677012    -0.00456168     0.12568718
    -0.01031315     0.00758459    -0.14411881
    -0.00332378     0.01232155     0.01240782
     0.00125866    -0.00627796    -0.00454578
     0.00377424     0.00615271    -0.00224023
     0.00183391    -0.01521921     0.01280982
--------------------------------------------------
 Coupling Information
--------------------------------------------------
 between  1 and  2 states
--------------------------------------------------
 g vector - difference gradient
    -0.00515964     0.00102289    -0.05030624
     0.01163573    -0.00378866     0.06248802
     0.00261548    -0.00511641    -0.01117352
    -0.00199831     0.00346349     0.00465346
    -0.00530265    -0.00307072     0.00451563
    -0.00179061     0.00748942    -0.01017734

 h vector - derivative coupling
     0.00005034     0.00205309     0.00010993
     0.00083794    -0.00371494    -0.00039056
     0.00537070    -0.00035273    -0.00008447
     0.00559789     0.00146401     0.00064676
    -0.00611729     0.00122045    -0.00026458
    -0.00573957    -0.00066989    -0.00001708

 G vector - GDV
    -0.00515988     0.00100692    -0.05030558
     0.01162888    -0.00375971     0.06248917
     0.00257372    -0.00511352    -0.01117253
    -0.00204170     0.00345202     0.00464830
    -0.00525501    -0.00308010     0.00451754
    -0.00174602     0.00749439    -0.01017690

 H vector - DCV - non-adiabatic coupling
     0.00003938     0.00788492    -0.00107307
     0.00355120    -0.01432483     0.00036115
     0.02062447    -0.00150134    -0.00065492
     0.02135662     0.00570375     0.00261248
    -0.02356050     0.00457795    -0.00087815
    -0.02201116    -0.00234044    -0.00036750
--------------------------------------------------


--------------------------------------------------------------------------------
DFTB+ running times                          cpu [s]             wall clock [s]
--------------------------------------------------------------------------------
SCC                                    +     0.01  ( 59.2%)      0.02  ( 55.2%)
Post-SCC processing                    +     0.01  ( 35.6%)      0.01  ( 34.5%)
--------------------------------------------------------------------------------
Missing                                +     0.00  (  5.2%)      0.00  ( 10.3%)
Total                                  =     0.02  (100.0%)      0.03  (100.0%)
--------------------------------------------------------------------------------
