|===============================================================================
|
|  DFTB+ release 20.1
|
|  Copyright (C) 2006 - 2020  DFTB+ developers group
|
|===============================================================================
|
|  When publishing results obtained with DFTB+, please cite the following
|  reference:
|
|  * DFTB+, a software package for efficient approximate density functional
|    theory based atomistic simulations, J. Chem. Phys. 152, 124101 (2020).
|    [doi: 10.1063/1.5143190]
|
|  You should also cite additional publications crediting the parametrization
|  data you use. Please consult the documentation of the SK-files for the
|  references.
|
|===============================================================================

Reading input file 'dftb_in.hsd'
Parser version: 8

--------------------------------------------------------------------------------
Reading SK-files:
Done.


Processed input in HSD format written to 'dftb_pin.hsd'

Starting initialization...
--------------------------------------------------------------------------------
WARNING!
-> Excited state forces are not implemented yet for fractional occupations, kT=  0.3158E-02K
OpenMP threads:              1
Chosen random seed:          505840504
Mode:                        Static calculation
Self consistent charges:     Yes
SCC-tolerance:                 0.100000E-05
Max. scc iterations:                    100
Shell resolved Hubbard:      No
Spin polarisation:           No
Nr. of up electrons:             6.000000
Nr. of down electrons:           6.000000
Periodic boundaries:         No
Electronic solver:           Relatively robust
Mixer:                       Broyden mixer
Mixing parameter:                  0.200000
Maximal SCC-cycles:                     100
Nr. of chrg. vec. in memory:              0
Electronic temperature:        0.100000E-07 H      0.272114E-06 eV
Initial charges:             Set automatically (system chrg:   0.100E+01)
Included shells:             C:  s, p
                             N:  s, p
                             H:  s
Extra options:
                             Mulliken analysis
                             Force calculation
Force type                   original
                             Eigenvector printing

--------------------------------------------------------------------------------

***  Geometry step: 0

 iSCC Total electronic   Diff electronic      SCC error    
    1   -0.52162802E+01    0.00000000E+00    0.11212636E+01
    2   -0.52473037E+01   -0.31023460E-01    0.67009853E+00
    3   -0.52562610E+01   -0.89572979E-02    0.31846013E+00
    4   -0.47099664E+01    0.54629456E+00    0.23681040E+01
    5   -0.52570031E+01   -0.54703666E+00    0.21226579E+00
    6   -0.52619564E+01   -0.49533332E-02    0.45567855E-02
    7   -0.52619565E+01   -0.34750699E-07    0.25335219E-02
    8   -0.52619505E+01    0.59127867E-05    0.76805474E-02
    9   -0.52619565E+01   -0.59754233E-05    0.12689619E-02
   10   -0.52619566E+01   -0.12262671E-06    0.40839244E-03
   11   -0.52619567E+01   -0.14758682E-07    0.35897558E-04
   12   -0.52619567E+01   -0.11193002E-09    0.13490285E-04
   13   -0.52619567E+01   -0.17414514E-10    0.13390974E-06
>> Charges saved for restart in charges.bin

Total Energy:                       -5.0226072901 H         -136.6721 eV
Extrapolated to 0:                  -5.1252447984 H         -139.4650 eV
Total Mermin free energy:           -5.0226072901 H         -136.6721 eV
Force related energy:               -5.1252447984 H         -139.4650 eV

--------------------------------------------------------------------------------
DFTB+ running times                          cpu [s]             wall clock [s]
--------------------------------------------------------------------------------
SCC                                    +     0.01  ( 52.1%)      0.04  ( 64.4%)
Post-SCC processing                    +     0.01  ( 41.2%)      0.02  ( 27.1%)
--------------------------------------------------------------------------------
Missing                                +     0.00  (  6.7%)      0.01  (  8.5%)
Total                                  =     0.02  (100.0%)      0.06  (100.0%)
--------------------------------------------------------------------------------
