|===============================================================================
|
|  DFTB+ release 20.1
|
|  Copyright (C) 2006 - 2020  DFTB+ developers group
|
|===============================================================================
|
|  When publishing results obtained with DFTB+, please cite the following
|  reference:
|
|  * DFTB+, a software package for efficient approximate density functional
|    theory based atomistic simulations, J. Chem. Phys. 152, 124101 (2020).
|    [doi: 10.1063/1.5143190]
|
|  You should also cite additional publications crediting the parametrization
|  data you use. Please consult the documentation of the SK-files for the
|  references.
|
|===============================================================================

Reading input file 'dftb_in.hsd'
Parser version: 8

--------------------------------------------------------------------------------
Reading SK-files:
Done.


Processed input in HSD format written to 'dftb_pin.hsd'

Starting initialization...
--------------------------------------------------------------------------------
OpenMP threads:              1
Chosen random seed:          502799255
Mode:                        Static calculation
Self consistent charges:     Yes
SCC-tolerance:                 0.100000E-05
Max. scc iterations:                   1000
Shell resolved Hubbard:      No
Spin polarisation:           No
Nr. of up electrons:            16.000000
Nr. of down electrons:          16.000000
Periodic boundaries:         No
Electronic solver:           Relatively robust
Maximal SCC-cycles:                    1000
Initial charges:             Set automatically (system chrg:   0.100E+01)
Included shells:             C:  s, p
                             H:  s
                             N:  s, p
Spin coupling constants:     C   1(s)-1(s):  -0.455900E-01
                             C   1(s)-2(p):  -0.293000E-01
                             C   2(p)-1(s):  -0.293000E-01
                             C   2(p)-2(p):  -0.275500E-01
                             H   1(s)-1(s):  -0.792500E-01
                             N   1(s)-1(s):  -0.468700E-01
                             N   1(s)-2(p):  -0.317000E-01
                             N   2(p)-1(s):  -0.317000E-01
                             N   2(p)-2(p):  -0.307200E-01
Range separated hybrid:      Yes
  Screening parameter omega:   0.300000E+00
  Range separated algorithm:   MatrixBased
Extra options:
                             Mulliken analysis
                             Force calculation
Force type                   original
                             Eigenvector printing


REKS Calcuation:             Yes
SSR(2,2) Calcuation:         Yes
Energy Functional:           (PPS+OSS)/2
Number of Core Orbitals:                 15
Number of Active Orbitals:                2
Number of Basis:                         32
Number of States:                         2
State-Averaging Weight:          0.500000
                                 0.500000
State of Interest:                        1
Initial Guess:               Diagonalize H0 matrix
Newton-Raphson for FON opt:  Yes
NR max. Iterations:                      50
Level Shifting:              Yes
Shift Value:                     0.300000
W Scale Factor:              C  =    3.200000
                             H  =    3.200000
                             N  =    3.200000
Transition Dipole:           No
Gradient of Microstate:      No
CP-REKS Solver:              Preconditioned Conjugate-Gradient
CG max. Iterations:                     100
CG Tolerance:                  0.100000E-07
Memory for A and Hxc:        Direct Updating Without Saving
Non-Adiabatic Coupling:      Yes

--------------------------------------------------------------------------------

***  Geometry step: 0

  iSCC       reks energy        Diff energy         x_a       SCC error   
    1      -16.4070682341       0.0000000000     0.999395    1.24399528
    2      -16.4252490264      -0.0181807923     0.999915    0.04485318
    3      -16.4288067954      -0.0035577690     0.999970    0.01771086
    4      -16.4300077613      -0.0012009659     0.999984    0.00951595
    5      -16.4305104851      -0.0005027239     0.999990    0.00534960
    6      -16.4307458204      -0.0002353352     0.999992    0.00351997
    7      -16.4308656966      -0.0001198762     0.999994    0.00241407
    8      -16.4309321396      -0.0000664430     0.999994    0.00168474
    9      -16.4309726908      -0.0000405511     0.999995    0.00119662
   10      -16.4310002093      -0.0000275185     0.999995    0.00099901
   11      -16.4310209002      -0.0000206909     0.999995    0.00086577
   12      -16.4310378356      -0.0000169354     0.999995    0.00076525
   13      -16.4310525732      -0.0000147376     0.999995    0.00068862
   14      -16.4310659234      -0.0000133502     0.999995    0.00062943
   15      -16.4310783199      -0.0000123965     0.999995    0.00058303
   16      -16.4310900033      -0.0000116834     0.999995    0.00054603
   17      -16.4311011123      -0.0000111090     0.999995    0.00051600
   18      -16.4311117314      -0.0000106190     0.999995    0.00049116
   19      -16.4311219148      -0.0000101834     0.999995    0.00047023
   20      -16.4311316999      -0.0000097851     0.999995    0.00046181
   21      -16.4311411143      -0.0000094144     0.999995    0.00046210
   22      -16.4311501796      -0.0000090653     0.999995    0.00046103
   23      -16.4311589138      -0.0000087342     0.999995    0.00045883
   24      -16.4311673326      -0.0000084188     0.999995    0.00045568
   25      -16.4311754500      -0.0000081174     0.999995    0.00045176
   26      -16.4311832788      -0.0000078288     0.999995    0.00044722
   27      -16.4311908311      -0.0000075523     0.999995    0.00044218
   28      -16.4311981182      -0.0000072871     0.999995    0.00043675
   29      -16.4312051508      -0.0000070326     0.999995    0.00043103
   30      -16.4312119392      -0.0000067884     0.999995    0.00042509
   31      -16.4312184932      -0.0000065540     0.999995    0.00041900
   32      -16.4312248221      -0.0000063289     0.999995    0.00041280
   33      -16.4312309349      -0.0000061128     0.999995    0.00040654
   34      -16.4312368401      -0.0000059053     0.999995    0.00040026
   35      -16.4312425461      -0.0000057060     0.999995    0.00039398
   36      -16.4312480608      -0.0000055146     0.999995    0.00038772
   37      -16.4312533916      -0.0000053308     0.999995    0.00038151
   38      -16.4312585459      -0.0000051543     0.999995    0.00037536
   39      -16.4312635307      -0.0000049848     0.999995    0.00036928
   40      -16.4312683526      -0.0000048219     0.999995    0.00036327
   41      -16.4312730179      -0.0000046654     0.999995    0.00035736
   42      -16.4312775329      -0.0000045150     0.999995    0.00035154
   43      -16.4312819035      -0.0000043705     0.999995    0.00034582
   44      -16.4312861351      -0.0000042316     0.999995    0.00034019
   45      -16.4312902333      -0.0000040981     0.999995    0.00033467
   46      -16.4312942031      -0.0000039698     0.999995    0.00032926
   47      -16.4312980495      -0.0000038464     0.999995    0.00032395
   48      -16.4313017772      -0.0000037277     0.999995    0.00031874
   49      -16.4313053908      -0.0000036136     0.999995    0.00031364
   50      -16.4313088946      -0.0000035038     0.999995    0.00030865
   51      -16.4313122927      -0.0000033981     0.999995    0.00030375
   52      -16.4313155892      -0.0000032965     0.999995    0.00029896
   53      -16.4313187878      -0.0000031986     0.999995    0.00029427
   54      -16.4313218921      -0.0000031043     0.999995    0.00028968
   55      -16.4313249057      -0.0000030136     0.999995    0.00028519
   56      -16.4313278319      -0.0000029262     0.999995    0.00028079
   57      -16.4313306739      -0.0000028420     0.999995    0.00027649
   58      -16.4313334348      -0.0000027609     0.999995    0.00027228
   59      -16.4313361176      -0.0000026827     0.999995    0.00026816
   60      -16.4313387249      -0.0000026074     0.999995    0.00026413
   61      -16.4313412596      -0.0000025347     0.999995    0.00026018
   62      -16.4313437242      -0.0000024646     0.999995    0.00025633
   63      -16.4313461212      -0.0000023970     0.999995    0.00025255
   64      -16.4313484530      -0.0000023318     0.999995    0.00024885
   65      -16.4313507219      -0.0000022689     0.999995    0.00024524
   66      -16.4313529301      -0.0000022081     0.999995    0.00024170
   67      -16.4313550795      -0.0000021495     0.999995    0.00023824
   68      -16.4313571724      -0.0000020929     0.999995    0.00023485
   69      -16.4313592106      -0.0000020382     0.999995    0.00023153
   70      -16.4313611959      -0.0000019853     0.999995    0.00022828
   71      -16.4313631301      -0.0000019343     0.999995    0.00022510
   72      -16.4313650150      -0.0000018849     0.999995    0.00022199
   73      -16.4313668522      -0.0000018372     0.999995    0.00021894
   74      -16.4313686433      -0.0000017911     0.999995    0.00021596
   75      -16.4313703897      -0.0000017464     0.999995    0.00021304
   76      -16.4313720930      -0.0000017033     0.999995    0.00021018
   77      -16.4313737545      -0.0000016615     0.999995    0.00020737
   78      -16.4313753756      -0.0000016211     0.999995    0.00020463
   79      -16.4313769575      -0.0000015820     0.999995    0.00020194
   80      -16.4313785016      -0.0000015441     0.999995    0.00019958
   81      -16.4313800090      -0.0000015074     0.999995    0.00019757
   82      -16.4313814808      -0.0000014719     0.999995    0.00019559
   83      -16.4313829183      -0.0000014374     0.999995    0.00019364
   84      -16.4313843223      -0.0000014041     0.999995    0.00019172
   85      -16.4313856940      -0.0000013717     0.999996    0.00018983
   86      -16.4313870344      -0.0000013404     0.999996    0.00018796
   87      -16.4313883444      -0.0000013100     0.999996    0.00018613
   88      -16.4313896249      -0.0000012805     0.999996    0.00018432
   89      -16.4313908767      -0.0000012519     0.999996    0.00018254
   90      -16.4313921009      -0.0000012241     0.999996    0.00018078
   91      -16.4313932981      -0.0000011972     0.999996    0.00017905
   92      -16.4313944691      -0.0000011711     0.999996    0.00017735
   93      -16.4313956148      -0.0000011457     0.999996    0.00017567
   94      -16.4313967359      -0.0000011210     0.999996    0.00017402
   95      -16.4313978330      -0.0000010971     0.999996    0.00017239
   96      -16.4313989068      -0.0000010739     0.999996    0.00017079
   97      -16.4313999581      -0.0000010513     0.999996    0.00016921
   98      -16.4314009874      -0.0000010293     0.999996    0.00016765
   99      -16.4314019954      -0.0000010080     0.999996    0.00016611
  100      -16.4314029826      -0.0000009872     0.999996    0.00016460
  101      -16.4314039496      -0.0000009671     0.999996    0.00016311
  102      -16.4314048971      -0.0000009474     0.999996    0.00016164
  103      -16.4314058254      -0.0000009283     0.999996    0.00016019
  104      -16.4314067352      -0.0000009098     0.999996    0.00015877
  105      -16.4314076269      -0.0000008917     0.999996    0.00015736
  106      -16.4314085010      -0.0000008741     0.999996    0.00015597
  107      -16.4314093581      -0.0000008570     0.999996    0.00015460
  108      -16.4314101984      -0.0000008404     0.999996    0.00015326
  109      -16.4314110226      -0.0000008241     0.999996    0.00015193
  110      -16.4314118309      -0.0000008083     0.999996    0.00015062
  111      -16.4314126238      -0.0000007929     0.999996    0.00014933
  112      -16.4314134018      -0.0000007779     0.999996    0.00014805
  113      -16.4314141651      -0.0000007633     0.999996    0.00014680
  114      -16.4314149142      -0.0000007491     0.999996    0.00014556
  115      -16.4314156494      -0.0000007352     0.999996    0.00014433
  116      -16.4314163710      -0.0000007217     0.999996    0.00014313
  117      -16.4314170795      -0.0000007085     0.999996    0.00014194
  118      -16.4314177751      -0.0000006956     0.999996    0.00014077
  119      -16.4314184581      -0.0000006830     0.999996    0.00013961
  120      -16.4314191289      -0.0000006708     0.999996    0.00013847
  121      -16.4314197877      -0.0000006588     0.999996    0.00013734
  122      -16.4314204349      -0.0000006472     0.999996    0.00013623
  123      -16.4314210707      -0.0000006358     0.999996    0.00013514
  124      -16.4314216954      -0.0000006247     0.999996    0.00013406
  125      -16.4314223092      -0.0000006138     0.999996    0.00013299
  126      -16.4314229125      -0.0000006032     0.999996    0.00013193
  127      -16.4314235054      -0.0000005929     0.999996    0.00013089
  128      -16.4314240882      -0.0000005828     0.999996    0.00012987
  129      -16.4314246611      -0.0000005729     0.999996    0.00012885
  130      -16.4314252244      -0.0000005633     0.999996    0.00012785
  131      -16.4314257782      -0.0000005539     0.999996    0.00012687
  132      -16.4314263229      -0.0000005446     0.999996    0.00012589
  133      -16.4314268585      -0.0000005356     0.999996    0.00012493
  134      -16.4314273853      -0.0000005268     0.999996    0.00012398
  135      -16.4314279036      -0.0000005182     0.999996    0.00012304
  136      -16.4314284134      -0.0000005098     0.999996    0.00012211
  137      -16.4314289150      -0.0000005016     0.999996    0.00012120
  138      -16.4314294085      -0.0000004935     0.999996    0.00012029
  139      -16.4314298942      -0.0000004857     0.999996    0.00011940
  140      -16.4314303722      -0.0000004780     0.999996    0.00011852
  141      -16.4314308426      -0.0000004704     0.999996    0.00011765
  142      -16.4314313056      -0.0000004630     0.999996    0.00011679
  143      -16.4314317615      -0.0000004558     0.999996    0.00011594
  144      -16.4314322102      -0.0000004488     0.999996    0.00011510
  145      -16.4314326521      -0.0000004418     0.999996    0.00011427
  146      -16.4314330871      -0.0000004351     0.999996    0.00011345
  147      -16.4314335156      -0.0000004284     0.999996    0.00011264
  148      -16.4314339375      -0.0000004219     0.999996    0.00011184
  149      -16.4314343531      -0.0000004156     0.999996    0.00011104
  150      -16.4314347624      -0.0000004093     0.999996    0.00011026
  151      -16.4314351656      -0.0000004032     0.999996    0.00010949
  152      -16.4314355629      -0.0000003972     0.999996    0.00010872
  153      -16.4314359542      -0.0000003914     0.999996    0.00010797
  154      -16.4314363398      -0.0000003856     0.999996    0.00010722
  155      -16.4314367198      -0.0000003800     0.999996    0.00010648
  156      -16.4314370943      -0.0000003745     0.999996    0.00010575
  157      -16.4314374633      -0.0000003690     0.999996    0.00010503
  158      -16.4314378271      -0.0000003637     0.999996    0.00010431
  159      -16.4314381856      -0.0000003585     0.999996    0.00010361
  160      -16.4314385390      -0.0000003534     0.999996    0.00010291
  161      -16.4314388874      -0.0000003484     0.999996    0.00010222
  162      -16.4314392309      -0.0000003435     0.999996    0.00010154
  163      -16.4314395695      -0.0000003387     0.999996    0.00010086
  164      -16.4314399035      -0.0000003339     0.999996    0.00010019
  165      -16.4314402328      -0.0000003293     0.999996    0.00009953
  166      -16.4314405575      -0.0000003247     0.999996    0.00009887
  167      -16.4314408778      -0.0000003203     0.999996    0.00009823
  168      -16.4314411937      -0.0000003159     0.999996    0.00009759
  169      -16.4314415052      -0.0000003116     0.999996    0.00009695
  170      -16.4314418126      -0.0000003073     0.999996    0.00009633
  171      -16.4314421157      -0.0000003032     0.999996    0.00009571
  172      -16.4314424148      -0.0000002991     0.999996    0.00009509
  173      -16.4314427099      -0.0000002951     0.999996    0.00009448
  174      -16.4314430011      -0.0000002912     0.999997    0.00009388
  175      -16.4314432884      -0.0000002873     0.999997    0.00009329
  176      -16.4314435719      -0.0000002835     0.999997    0.00009270
  177      -16.4314438517      -0.0000002798     0.999997    0.00009211
  178      -16.4314441278      -0.0000002761     0.999997    0.00009154
  179      -16.4314444003      -0.0000002725     0.999997    0.00009096
  180      -16.4314446692      -0.0000002690     0.999997    0.00009040
  181      -16.4314449347      -0.0000002655     0.999997    0.00008984
  182      -16.4314451968      -0.0000002621     0.999997    0.00008928
  183      -16.4314454555      -0.0000002587     0.999997    0.00008873
  184      -16.4314457109      -0.0000002554     0.999997    0.00008819
  185      -16.4314459631      -0.0000002522     0.999997    0.00008765
  186      -16.4314462120      -0.0000002490     0.999997    0.00008712
  187      -16.4314464579      -0.0000002458     0.999997    0.00008659
  188      -16.4314467006      -0.0000002427     0.999997    0.00008606
  189      -16.4314469403      -0.0000002397     0.999997    0.00008554
  190      -16.4314471770      -0.0000002367     0.999997    0.00008503
  191      -16.4314474108      -0.0000002338     0.999997    0.00008452
  192      -16.4314476417      -0.0000002309     0.999997    0.00008402
  193      -16.4314478697      -0.0000002280     0.999997    0.00008352
  194      -16.4314480949      -0.0000002252     0.999997    0.00008302
  195      -16.4314483174      -0.0000002225     0.999997    0.00008253
  196      -16.4314485372      -0.0000002198     0.999997    0.00008205
  197      -16.4314487543      -0.0000002171     0.999997    0.00008156
  198      -16.4314489688      -0.0000002145     0.999997    0.00008109
  199      -16.4314491807      -0.0000002119     0.999997    0.00008062
  200      -16.4314493900      -0.0000002094     0.999997    0.00008015
  201      -16.4314495969      -0.0000002069     0.999997    0.00007968
  202      -16.4314498013      -0.0000002044     0.999997    0.00007922
  203      -16.4314500032      -0.0000002020     0.999997    0.00007877
  204      -16.4314502028      -0.0000001996     0.999997    0.00007831
  205      -16.4314504000      -0.0000001972     0.999997    0.00007787
  206      -16.4314505949      -0.0000001949     0.999997    0.00007742
  207      -16.4314507875      -0.0000001926     0.999997    0.00007698
  208      -16.4314509779      -0.0000001904     0.999997    0.00007654
  209      -16.4314511660      -0.0000001882     0.999997    0.00007611
  210      -16.4314513520      -0.0000001860     0.999997    0.00007568
  211      -16.4314515358      -0.0000001838     0.999997    0.00007526
  212      -16.4314517175      -0.0000001817     0.999997    0.00007483
  213      -16.4314518971      -0.0000001796     0.999997    0.00007442
  214      -16.4314520747      -0.0000001776     0.999997    0.00007400
  215      -16.4314522502      -0.0000001755     0.999997    0.00007359
  216      -16.4314524238      -0.0000001735     0.999997    0.00007318
  217      -16.4314525953      -0.0000001716     0.999997    0.00007278
  218      -16.4314527650      -0.0000001696     0.999997    0.00007237
  219      -16.4314529327      -0.0000001677     0.999997    0.00007198
  220      -16.4314530985      -0.0000001658     0.999997    0.00007158
  221      -16.4314532625      -0.0000001640     0.999997    0.00007119
  222      -16.4314534246      -0.0000001621     0.999997    0.00007080
  223      -16.4314535850      -0.0000001603     0.999997    0.00007042
  224      -16.4314537435      -0.0000001586     0.999997    0.00007003
  225      -16.4314539003      -0.0000001568     0.999997    0.00006965
  226      -16.4314540554      -0.0000001551     0.999997    0.00006928
  227      -16.4314542088      -0.0000001534     0.999997    0.00006890
  228      -16.4314543604      -0.0000001517     0.999997    0.00006853
  229      -16.4314545105      -0.0000001500     0.999997    0.00006816
  230      -16.4314546588      -0.0000001484     0.999997    0.00006780
  231      -16.4314548056      -0.0000001468     0.999997    0.00006744
  232      -16.4314549508      -0.0000001452     0.999997    0.00006708
  233      -16.4314550944      -0.0000001436     0.999997    0.00006672
  234      -16.4314552364      -0.0000001420     0.999997    0.00006637
  235      -16.4314553769      -0.0000001405     0.999997    0.00006602
  236      -16.4314555159      -0.0000001390     0.999997    0.00006567
  237      -16.4314556535      -0.0000001375     0.999997    0.00006532
  238      -16.4314557895      -0.0000001360     0.999997    0.00006498
  239      -16.4314559241      -0.0000001346     0.999997    0.00006464
  240      -16.4314560572      -0.0000001332     0.999997    0.00006430
  241      -16.4314561890      -0.0000001317     0.999997    0.00006396
  242      -16.4314563193      -0.0000001303     0.999997    0.00006363
  243      -16.4314564483      -0.0000001290     0.999997    0.00006330
  244      -16.4314565759      -0.0000001276     0.999997    0.00006297
  245      -16.4314567022      -0.0000001263     0.999997    0.00006264
  246      -16.4314568271      -0.0000001249     0.999997    0.00006232
  247      -16.4314569508      -0.0000001236     0.999997    0.00006200
  248      -16.4314570731      -0.0000001223     0.999997    0.00006168
  249      -16.4314571942      -0.0000001211     0.999997    0.00006136
  250      -16.4314573140      -0.0000001198     0.999997    0.00006105
  251      -16.4314574326      -0.0000001186     0.999997    0.00006074
  252      -16.4314575499      -0.0000001173     0.999997    0.00006043
  253      -16.4314576660      -0.0000001161     0.999997    0.00006012
  254      -16.4314577810      -0.0000001149     0.999997    0.00005981
  255      -16.4314578947      -0.0000001137     0.999997    0.00005951
  256      -16.4314580073      -0.0000001126     0.999997    0.00005920
  257      -16.4314581187      -0.0000001114     0.999997    0.00005890
  258      -16.4314582290      -0.0000001103     0.999997    0.00005861
  259      -16.4314583382      -0.0000001092     0.999997    0.00005831
  260      -16.4314584462      -0.0000001080     0.999997    0.00005802
  261      -16.4314585532      -0.0000001069     0.999997    0.00005773
  262      -16.4314586590      -0.0000001059     0.999997    0.00005744
  263      -16.4314587638      -0.0000001048     0.999997    0.00005715
  264      -16.4314588676      -0.0000001037     0.999997    0.00005686
  265      -16.4314589703      -0.0000001027     0.999997    0.00005658
  266      -16.4314590719      -0.0000001017     0.999997    0.00005629
  267      -16.4314591725      -0.0000001006     0.999997    0.00005601
  268      -16.4314592722      -0.0000000996     0.999997    0.00005574
  269      -16.4314593708      -0.0000000986     0.999997    0.00005546
  270      -16.4314594684      -0.0000000976     0.999997    0.00005518
  271      -16.4314595651      -0.0000000967     0.999997    0.00005491
  272      -16.4314596608      -0.0000000957     0.999997    0.00005464
  273      -16.4314597555      -0.0000000947     0.999997    0.00005437
  274      -16.4314598493      -0.0000000938     0.999997    0.00005410
  275      -16.4314599422      -0.0000000929     0.999997    0.00005383
  276      -16.4314600341      -0.0000000920     0.999997    0.00005357
  277      -16.4314601252      -0.0000000910     0.999997    0.00005331
  278      -16.4314602153      -0.0000000901     0.999997    0.00005304
  279      -16.4314603046      -0.0000000893     0.999997    0.00005278
  280      -16.4314603930      -0.0000000884     0.999997    0.00005253
  281      -16.4314604805      -0.0000000875     0.999997    0.00005227
  282      -16.4314605671      -0.0000000866     0.999997    0.00005201
  283      -16.4314606529      -0.0000000858     0.999997    0.00005176
  284      -16.4314607379      -0.0000000850     0.999997    0.00005151
  285      -16.4314608220      -0.0000000841     0.999997    0.00005126
  286      -16.4314609053      -0.0000000833     0.999997    0.00005101
  287      -16.4314609878      -0.0000000825     0.999997    0.00005076
  288      -16.4314610695      -0.0000000817     0.999997    0.00005052
  289      -16.4314611504      -0.0000000809     0.999997    0.00005027
  290      -16.4314612305      -0.0000000801     0.999997    0.00005003
  291      -16.4314613099      -0.0000000793     0.999997    0.00004979
  292      -16.4314613884      -0.0000000786     0.999997    0.00004955
  293      -16.4314614663      -0.0000000778     0.999997    0.00004931
  294      -16.4314615433      -0.0000000771     0.999997    0.00004907
  295      -16.4314616196      -0.0000000763     0.999997    0.00004884
  296      -16.4314616952      -0.0000000756     0.999997    0.00004860
  297      -16.4314617701      -0.0000000749     0.999997    0.00004837
  298      -16.4314618442      -0.0000000741     0.999997    0.00004814
  299      -16.4314619176      -0.0000000734     0.999997    0.00004791
  300      -16.4314619904      -0.0000000727     0.999997    0.00004768
  301      -16.4314620624      -0.0000000720     0.999997    0.00004745
  302      -16.4314621337      -0.0000000713     0.999997    0.00004722
  303      -16.4314622044      -0.0000000707     0.999997    0.00004700
  304      -16.4314622744      -0.0000000700     0.999997    0.00004677
  305      -16.4314623437      -0.0000000693     0.999997    0.00004655
  306      -16.4314624123      -0.0000000687     0.999997    0.00004633
  307      -16.4314624803      -0.0000000680     0.999997    0.00004611
  308      -16.4314625477      -0.0000000674     0.999997    0.00004589
  309      -16.4314626144      -0.0000000667     0.999997    0.00004567
  310      -16.4314626805      -0.0000000661     0.999997    0.00004546
  311      -16.4314627459      -0.0000000655     0.999997    0.00004524
  312      -16.4314628108      -0.0000000648     0.999997    0.00004503
  313      -16.4314628750      -0.0000000642     0.999997    0.00004481
  314      -16.4314629386      -0.0000000636     0.999997    0.00004460
  315      -16.4314630016      -0.0000000630     0.999997    0.00004439
  316      -16.4314630640      -0.0000000624     0.999997    0.00004418
  317      -16.4314631259      -0.0000000618     0.999997    0.00004397
  318      -16.4314631871      -0.0000000613     0.999997    0.00004377
  319      -16.4314632478      -0.0000000607     0.999997    0.00004356
  320      -16.4314633079      -0.0000000601     0.999997    0.00004336
  321      -16.4314633674      -0.0000000595     0.999997    0.00004315
  322      -16.4314634264      -0.0000000590     0.999997    0.00004295
  323      -16.4314634848      -0.0000000584     0.999997    0.00004275
  324      -16.4314635427      -0.0000000579     0.999997    0.00004255
  325      -16.4314636001      -0.0000000573     0.999997    0.00004235
  326      -16.4314636569      -0.0000000568     0.999997    0.00004215
  327      -16.4314637131      -0.0000000563     0.999997    0.00004195
  328      -16.4314637689      -0.0000000557     0.999997    0.00004175
  329      -16.4314638241      -0.0000000552     0.999997    0.00004156
  330      -16.4314638788      -0.0000000547     0.999997    0.00004137
  331      -16.4314639330      -0.0000000542     0.999997    0.00004117
  332      -16.4314639867      -0.0000000537     0.999997    0.00004098
  333      -16.4314640399      -0.0000000532     0.999997    0.00004079
  334      -16.4314640926      -0.0000000527     0.999997    0.00004060
  335      -16.4314641448      -0.0000000522     0.999997    0.00004041
  336      -16.4314641965      -0.0000000517     0.999997    0.00004022
  337      -16.4314642478      -0.0000000512     0.999997    0.00004003
  338      -16.4314642985      -0.0000000508     0.999997    0.00003985
  339      -16.4314643488      -0.0000000503     0.999997    0.00003966
  340      -16.4314643987      -0.0000000498     0.999997    0.00003948
  341      -16.4314644480      -0.0000000494     0.999997    0.00003929
  342      -16.4314644969      -0.0000000489     0.999997    0.00003911
  343      -16.4314645454      -0.0000000485     0.999997    0.00003893
  344      -16.4314645934      -0.0000000480     0.999997    0.00003875
  345      -16.4314646410      -0.0000000476     0.999997    0.00003857
  346      -16.4314646881      -0.0000000471     0.999997    0.00003839
  347      -16.4314647348      -0.0000000467     0.999997    0.00003821
  348      -16.4314647810      -0.0000000463     0.999997    0.00003803
  349      -16.4314648269      -0.0000000458     0.999997    0.00003786
  350      -16.4314648723      -0.0000000454     0.999997    0.00003768
  351      -16.4314649173      -0.0000000450     0.999997    0.00003751
  352      -16.4314649619      -0.0000000446     0.999998    0.00003733
  353      -16.4314650060      -0.0000000442     0.999998    0.00003716
  354      -16.4314650498      -0.0000000438     0.999998    0.00003699
  355      -16.4314650931      -0.0000000434     0.999998    0.00003682
  356      -16.4314651361      -0.0000000430     0.999998    0.00003665
  357      -16.4314651787      -0.0000000426     0.999998    0.00003648
  358      -16.4314652208      -0.0000000422     0.999998    0.00003631
  359      -16.4314652626      -0.0000000418     0.999998    0.00003614
  360      -16.4314653040      -0.0000000414     0.999998    0.00003598
  361      -16.4314653450      -0.0000000410     0.999998    0.00003581
  362      -16.4314653857      -0.0000000406     0.999998    0.00003564
  363      -16.4314654259      -0.0000000403     0.999998    0.00003548
  364      -16.4314654658      -0.0000000399     0.999998    0.00003532
  365      -16.4314655054      -0.0000000395     0.999998    0.00003515
  366      -16.4314655445      -0.0000000392     0.999998    0.00003499
  367      -16.4314655833      -0.0000000388     0.999998    0.00003483
  368      -16.4314656218      -0.0000000385     0.999998    0.00003467
  369      -16.4314656599      -0.0000000381     0.999998    0.00003451
  370      -16.4314656977      -0.0000000378     0.999998    0.00003435
  371      -16.4314657351      -0.0000000374     0.999998    0.00003419
  372      -16.4314657721      -0.0000000371     0.999998    0.00003403
  373      -16.4314658089      -0.0000000367     0.999998    0.00003388
  374      -16.4314658453      -0.0000000364     0.999998    0.00003372
  375      -16.4314658813      -0.0000000361     0.999998    0.00003357
  376      -16.4314659170      -0.0000000357     0.999998    0.00003341
  377      -16.4314659524      -0.0000000354     0.999998    0.00003326
  378      -16.4314659875      -0.0000000351     0.999998    0.00003310
  379      -16.4314660223      -0.0000000348     0.999998    0.00003295
  380      -16.4314660567      -0.0000000344     0.999998    0.00003280
  381      -16.4314660908      -0.0000000341     0.999998    0.00003265
  382      -16.4314661246      -0.0000000338     0.999998    0.00003250
  383      -16.4314661581      -0.0000000335     0.999998    0.00003235
  384      -16.4314661913      -0.0000000332     0.999998    0.00003220
  385      -16.4314662242      -0.0000000329     0.999998    0.00003205
  386      -16.4314662568      -0.0000000326     0.999998    0.00003191
  387      -16.4314662891      -0.0000000323     0.999998    0.00003176
  388      -16.4314663211      -0.0000000320     0.999998    0.00003161
  389      -16.4314663528      -0.0000000317     0.999998    0.00003147
  390      -16.4314663842      -0.0000000314     0.999998    0.00003132
  391      -16.4314664154      -0.0000000311     0.999998    0.00003118
  392      -16.4314664462      -0.0000000308     0.999998    0.00003104
  393      -16.4314664768      -0.0000000306     0.999998    0.00003089
  394      -16.4314665071      -0.0000000303     0.999998    0.00003075
  395      -16.4314665371      -0.0000000300     0.999998    0.00003061
  396      -16.4314665668      -0.0000000297     0.999998    0.00003047
  397      -16.4314665963      -0.0000000295     0.999998    0.00003033
  398      -16.4314666255      -0.0000000292     0.999998    0.00003019
  399      -16.4314666544      -0.0000000289     0.999998    0.00003005
  400      -16.4314666831      -0.0000000287     0.999998    0.00002991
  401      -16.4314667115      -0.0000000284     0.999998    0.00002978
  402      -16.4314667396      -0.0000000281     0.999998    0.00002964
  403      -16.4314667675      -0.0000000279     0.999998    0.00002950
  404      -16.4314667952      -0.0000000276     0.999998    0.00002937
  405      -16.4314668225      -0.0000000274     0.999998    0.00002923
  406      -16.4314668497      -0.0000000271     0.999998    0.00002910
  407      -16.4314668766      -0.0000000269     0.999998    0.00002896
  408      -16.4314669032      -0.0000000266     0.999998    0.00002883
  409      -16.4314669296      -0.0000000264     0.999998    0.00002870
  410      -16.4314669557      -0.0000000262     0.999998    0.00002857
  411      -16.4314669817      -0.0000000259     0.999998    0.00002843
  412      -16.4314670073      -0.0000000257     0.999998    0.00002830
  413      -16.4314670328      -0.0000000254     0.999998    0.00002817
  414      -16.4314670580      -0.0000000252     0.999998    0.00002804
  415      -16.4314670830      -0.0000000250     0.999998    0.00002791
  416      -16.4314671077      -0.0000000248     0.999998    0.00002779
  417      -16.4314671323      -0.0000000245     0.999998    0.00002766
  418      -16.4314671566      -0.0000000243     0.999998    0.00002753
  419      -16.4314671807      -0.0000000241     0.999998    0.00002740
  420      -16.4314672045      -0.0000000239     0.999998    0.00002728
  421      -16.4314672282      -0.0000000236     0.999998    0.00002715
  422      -16.4314672516      -0.0000000234     0.999998    0.00002703
  423      -16.4314672748      -0.0000000232     0.999998    0.00002690
  424      -16.4314672978      -0.0000000230     0.999998    0.00002678
  425      -16.4314673206      -0.0000000228     0.999998    0.00002666
  426      -16.4314673432      -0.0000000226     0.999998    0.00002653
  427      -16.4314673656      -0.0000000224     0.999998    0.00002641
  428      -16.4314673878      -0.0000000222     0.999998    0.00002629
  429      -16.4314674097      -0.0000000220     0.999998    0.00002617
  430      -16.4314674315      -0.0000000218     0.999998    0.00002605
  431      -16.4314674531      -0.0000000216     0.999998    0.00002593
  432      -16.4314674745      -0.0000000214     0.999998    0.00002581
  433      -16.4314674956      -0.0000000212     0.999998    0.00002569
  434      -16.4314675166      -0.0000000210     0.999998    0.00002557
  435      -16.4314675374      -0.0000000208     0.999998    0.00002545
  436      -16.4314675580      -0.0000000206     0.999998    0.00002534
  437      -16.4314675785      -0.0000000204     0.999998    0.00002522
  438      -16.4314675987      -0.0000000202     0.999998    0.00002510
  439      -16.4314676187      -0.0000000200     0.999998    0.00002499
  440      -16.4314676386      -0.0000000199     0.999998    0.00002487
  441      -16.4314676583      -0.0000000197     0.999998    0.00002476
  442      -16.4314676778      -0.0000000195     0.999998    0.00002464
  443      -16.4314676971      -0.0000000193     0.999998    0.00002453
  444      -16.4314677162      -0.0000000191     0.999998    0.00002442
  445      -16.4314677352      -0.0000000190     0.999998    0.00002430
  446      -16.4314677540      -0.0000000188     0.999998    0.00002419
  447      -16.4314677726      -0.0000000186     0.999998    0.00002408
  448      -16.4314677911      -0.0000000185     0.999998    0.00002397
  449      -16.4314678094      -0.0000000183     0.999998    0.00002386
  450      -16.4314678275      -0.0000000181     0.999998    0.00002375
  451      -16.4314678454      -0.0000000180     0.999998    0.00002364
  452      -16.4314678632      -0.0000000178     0.999998    0.00002353
  453      -16.4314678808      -0.0000000176     0.999998    0.00002342
  454      -16.4314678983      -0.0000000175     0.999998    0.00002331
  455      -16.4314679156      -0.0000000173     0.999998    0.00002320
  456      -16.4314679327      -0.0000000171     0.999998    0.00002310
  457      -16.4314679497      -0.0000000170     0.999998    0.00002299
  458      -16.4314679666      -0.0000000168     0.999998    0.00002288
  459      -16.4314679832      -0.0000000167     0.999998    0.00002278
  460      -16.4314679998      -0.0000000165     0.999998    0.00002267
  461      -16.4314680161      -0.0000000164     0.999998    0.00002257
  462      -16.4314680323      -0.0000000162     0.999998    0.00002246
  463      -16.4314680484      -0.0000000161     0.999998    0.00002236
  464      -16.4314680643      -0.0000000159     0.999998    0.00002225
  465      -16.4314680801      -0.0000000158     0.999998    0.00002215
  466      -16.4314680958      -0.0000000156     0.999998    0.00002205
  467      -16.4314681112      -0.0000000155     0.999998    0.00002195
  468      -16.4314681266      -0.0000000153     0.999998    0.00002184
  469      -16.4314681418      -0.0000000152     0.999998    0.00002174
  470      -16.4314681569      -0.0000000151     0.999998    0.00002164
  471      -16.4314681718      -0.0000000149     0.999998    0.00002154
  472      -16.4314681866      -0.0000000148     0.999998    0.00002144
  473      -16.4314682012      -0.0000000147     0.999998    0.00002134
  474      -16.4314682157      -0.0000000145     0.999998    0.00002124
  475      -16.4314682301      -0.0000000144     0.999998    0.00002114
  476      -16.4314682444      -0.0000000143     0.999998    0.00002105
  477      -16.4314682585      -0.0000000141     0.999998    0.00002095
  478      -16.4314682725      -0.0000000140     0.999998    0.00002085
  479      -16.4314682863      -0.0000000139     0.999998    0.00002075
  480      -16.4314683001      -0.0000000137     0.999998    0.00002066
  481      -16.4314683137      -0.0000000136     0.999998    0.00002056
  482      -16.4314683272      -0.0000000135     0.999998    0.00002046
  483      -16.4314683405      -0.0000000134     0.999998    0.00002037
  484      -16.4314683538      -0.0000000132     0.999998    0.00002027
  485      -16.4314683669      -0.0000000131     0.999998    0.00002018
  486      -16.4314683799      -0.0000000130     0.999998    0.00002009
  487      -16.4314683927      -0.0000000129     0.999998    0.00001999
  488      -16.4314684055      -0.0000000128     0.999998    0.00001990
  489      -16.4314684181      -0.0000000126     0.999998    0.00001981
  490      -16.4314684306      -0.0000000125     0.999998    0.00001971
  491      -16.4314684430      -0.0000000124     0.999998    0.00001962
  492      -16.4314684553      -0.0000000123     0.999998    0.00001953
  493      -16.4314684675      -0.0000000122     0.999998    0.00001944
  494      -16.4314684795      -0.0000000121     0.999998    0.00001935
  495      -16.4314684915      -0.0000000119     0.999998    0.00001926
  496      -16.4314685033      -0.0000000118     0.999998    0.00001917
  497      -16.4314685151      -0.0000000117     0.999998    0.00001908
  498      -16.4314685267      -0.0000000116     0.999998    0.00001899
  499      -16.4314685382      -0.0000000115     0.999998    0.00001890
  500      -16.4314685496      -0.0000000114     0.999998    0.00001881
  501      -16.4314685609      -0.0000000113     0.999998    0.00001872
  502      -16.4314685721      -0.0000000112     0.999998    0.00001864
  503      -16.4314685832      -0.0000000111     0.999998    0.00001855
  504      -16.4314685942      -0.0000000110     0.999998    0.00001846
  505      -16.4314686050      -0.0000000109     0.999998    0.00001838
  506      -16.4314686158      -0.0000000108     0.999998    0.00001829
  507      -16.4314686265      -0.0000000107     0.999998    0.00001820
  508      -16.4314686371      -0.0000000106     0.999998    0.00001812
  509      -16.4314686476      -0.0000000105     0.999998    0.00001803
  510      -16.4314686580      -0.0000000104     0.999998    0.00001795
  511      -16.4314686683      -0.0000000103     0.999998    0.00001787
  512      -16.4314686785      -0.0000000102     0.999998    0.00001778
  513      -16.4314686886      -0.0000000101     0.999998    0.00001770
  514      -16.4314686986      -0.0000000100     0.999998    0.00001761
  515      -16.4314687085      -0.0000000099     0.999998    0.00001753
  516      -16.4314687183      -0.0000000098     0.999998    0.00001745
  517      -16.4314687280      -0.0000000097     0.999998    0.00001737
  518      -16.4314687377      -0.0000000096     0.999998    0.00001729
  519      -16.4314687472      -0.0000000095     0.999998    0.00001721
  520      -16.4314687567      -0.0000000095     0.999998    0.00001712
  521      -16.4314687661      -0.0000000094     0.999998    0.00001704
  522      -16.4314687753      -0.0000000093     0.999998    0.00001696
  523      -16.4314687845      -0.0000000092     0.999998    0.00001688
  524      -16.4314687936      -0.0000000091     0.999998    0.00001680
  525      -16.4314688027      -0.0000000090     0.999998    0.00001672
  526      -16.4314688116      -0.0000000089     0.999998    0.00001665
  527      -16.4314688205      -0.0000000089     0.999998    0.00001657
  528      -16.4314688293      -0.0000000088     0.999998    0.00001649
  529      -16.4314688380      -0.0000000087     0.999998    0.00001641
  530      -16.4314688466      -0.0000000086     0.999998    0.00001633
  531      -16.4314688551      -0.0000000085     0.999998    0.00001626
  532      -16.4314688636      -0.0000000085     0.999998    0.00001618
  533      -16.4314688719      -0.0000000084     0.999998    0.00001610
  534      -16.4314688802      -0.0000000083     0.999998    0.00001603
  535      -16.4314688884      -0.0000000082     0.999998    0.00001595
  536      -16.4314688966      -0.0000000081     0.999998    0.00001588
  537      -16.4314689046      -0.0000000081     0.999998    0.00001580
  538      -16.4314689126      -0.0000000080     0.999998    0.00001573
  539      -16.4314689205      -0.0000000079     0.999998    0.00001565
  540      -16.4314689284      -0.0000000078     0.999998    0.00001558
  541      -16.4314689362      -0.0000000078     0.999998    0.00001551
  542      -16.4314689438      -0.0000000077     0.999998    0.00001543
  543      -16.4314689515      -0.0000000076     0.999998    0.00001536
  544      -16.4314689590      -0.0000000075     0.999998    0.00001529
  545      -16.4314689665      -0.0000000075     0.999998    0.00001521
  546      -16.4314689739      -0.0000000074     0.999998    0.00001514
  547      -16.4314689812      -0.0000000073     0.999998    0.00001507
  548      -16.4314689885      -0.0000000073     0.999998    0.00001500
  549      -16.4314689957      -0.0000000072     0.999998    0.00001493
  550      -16.4314690029      -0.0000000071     0.999998    0.00001486
  551      -16.4314690099      -0.0000000071     0.999998    0.00001479
  552      -16.4314690169      -0.0000000070     0.999998    0.00001472
  553      -16.4314690239      -0.0000000069     0.999998    0.00001465
  554      -16.4314690307      -0.0000000069     0.999998    0.00001458
  555      -16.4314690375      -0.0000000068     0.999998    0.00001451
  556      -16.4314690443      -0.0000000067     0.999998    0.00001444
  557      -16.4314690509      -0.0000000067     0.999998    0.00001437
  558      -16.4314690576      -0.0000000066     0.999998    0.00001430
  559      -16.4314690641      -0.0000000066     0.999998    0.00001423
  560      -16.4314690706      -0.0000000065     0.999998    0.00001417
  561      -16.4314690770      -0.0000000064     0.999998    0.00001410
  562      -16.4314690834      -0.0000000064     0.999998    0.00001403
  563      -16.4314690897      -0.0000000063     0.999998    0.00001397
  564      -16.4314690960      -0.0000000062     0.999998    0.00001390
  565      -16.4314691021      -0.0000000062     0.999998    0.00001383
  566      -16.4314691083      -0.0000000061     0.999998    0.00001377
  567      -16.4314691143      -0.0000000061     0.999998    0.00001370
  568      -16.4314691204      -0.0000000060     0.999998    0.00001364
  569      -16.4314691263      -0.0000000060     0.999998    0.00001357
  570      -16.4314691322      -0.0000000059     0.999998    0.00001351
  571      -16.4314691381      -0.0000000058     0.999998    0.00001344
  572      -16.4314691439      -0.0000000058     0.999998    0.00001338
  573      -16.4314691496      -0.0000000057     0.999998    0.00001331
  574      -16.4314691553      -0.0000000057     0.999998    0.00001325
  575      -16.4314691609      -0.0000000056     0.999998    0.00001319
  576      -16.4314691665      -0.0000000056     0.999998    0.00001312
  577      -16.4314691720      -0.0000000055     0.999998    0.00001306
  578      -16.4314691775      -0.0000000055     0.999998    0.00001300
  579      -16.4314691829      -0.0000000054     0.999998    0.00001294
  580      -16.4314691882      -0.0000000054     0.999998    0.00001287
  581      -16.4314691936      -0.0000000053     0.999998    0.00001281
  582      -16.4314691988      -0.0000000053     0.999998    0.00001275
  583      -16.4314692040      -0.0000000052     0.999998    0.00001269
  584      -16.4314692092      -0.0000000052     0.999998    0.00001263
  585      -16.4314692143      -0.0000000051     0.999998    0.00001257
  586      -16.4314692194      -0.0000000051     0.999998    0.00001251
  587      -16.4314692244      -0.0000000050     0.999998    0.00001245
  588      -16.4314692294      -0.0000000050     0.999998    0.00001239
  589      -16.4314692343      -0.0000000049     0.999998    0.00001233
  590      -16.4314692392      -0.0000000049     0.999998    0.00001227
  591      -16.4314692440      -0.0000000048     0.999998    0.00001221
  592      -16.4314692488      -0.0000000048     0.999998    0.00001215
  593      -16.4314692535      -0.0000000047     0.999998    0.00001210
  594      -16.4314692582      -0.0000000047     0.999998    0.00001204
  595      -16.4314692629      -0.0000000046     0.999998    0.00001198
  596      -16.4314692675      -0.0000000046     0.999998    0.00001192
  597      -16.4314692720      -0.0000000046     0.999998    0.00001186
  598      -16.4314692766      -0.0000000045     0.999998    0.00001181
  599      -16.4314692810      -0.0000000045     0.999998    0.00001175
  600      -16.4314692855      -0.0000000044     0.999998    0.00001169
  601      -16.4314692899      -0.0000000044     0.999998    0.00001164
  602      -16.4314692942      -0.0000000043     0.999998    0.00001158
  603      -16.4314692985      -0.0000000043     0.999998    0.00001153
  604      -16.4314693028      -0.0000000043     0.999998    0.00001147
  605      -16.4314693070      -0.0000000042     0.999998    0.00001142
  606      -16.4314693112      -0.0000000042     0.999998    0.00001136
  607      -16.4314693153      -0.0000000041     0.999998    0.00001131
  608      -16.4314693194      -0.0000000041     0.999998    0.00001125
  609      -16.4314693235      -0.0000000041     0.999998    0.00001120
  610      -16.4314693275      -0.0000000040     0.999998    0.00001114
  611      -16.4314693315      -0.0000000040     0.999998    0.00001109
  612      -16.4314693355      -0.0000000039     0.999998    0.00001104
  613      -16.4314693394      -0.0000000039     0.999998    0.00001098
  614      -16.4314693432      -0.0000000039     0.999998    0.00001093
  615      -16.4314693471      -0.0000000038     0.999998    0.00001088
  616      -16.4314693509      -0.0000000038     0.999998    0.00001082
  617      -16.4314693546      -0.0000000038     0.999998    0.00001077
  618      -16.4314693584      -0.0000000037     0.999998    0.00001072
  619      -16.4314693621      -0.0000000037     0.999998    0.00001067
  620      -16.4314693657      -0.0000000037     0.999998    0.00001062
  621      -16.4314693693      -0.0000000036     0.999998    0.00001057
  622      -16.4314693729      -0.0000000036     0.999998    0.00001051
  623      -16.4314693765      -0.0000000036     0.999998    0.00001046
  624      -16.4314693800      -0.0000000035     0.999998    0.00001041
  625      -16.4314693835      -0.0000000035     0.999998    0.00001036
  626      -16.4314693869      -0.0000000035     0.999998    0.00001031
  627      -16.4314693904      -0.0000000034     0.999998    0.00001026
  628      -16.4314693937      -0.0000000034     0.999998    0.00001021
  629      -16.4314693971      -0.0000000034     0.999998    0.00001016
  630      -16.4314694004      -0.0000000033     0.999998    0.00001011
  631      -16.4314694037      -0.0000000033     0.999998    0.00001007
  632      -16.4314694070      -0.0000000033     0.999998    0.00001002
  633      -16.4314694102      -0.0000000032     0.999998    0.00000997
  634      -16.4314694134      -0.0000000032     0.999998    0.00000992
  635      -16.4314694165      -0.0000000032     0.999998    0.00000987
  636      -16.4314694197      -0.0000000031     0.999998    0.00000982
  637      -16.4314694228      -0.0000000031     0.999998    0.00000978
  638      -16.4314694258      -0.0000000031     0.999998    0.00000973
  639      -16.4314694289      -0.0000000030     0.999998    0.00000968
  640      -16.4314694319      -0.0000000030     0.999998    0.00000963
  641      -16.4314694349      -0.0000000030     0.999998    0.00000959
  642      -16.4314694378      -0.0000000030     0.999998    0.00000954
  643      -16.4314694408      -0.0000000029     0.999998    0.00000949
  644      -16.4314694437      -0.0000000029     0.999998    0.00000945
  645      -16.4314694465      -0.0000000029     0.999998    0.00000940
  646      -16.4314694494      -0.0000000028     0.999998    0.00000936
  647      -16.4314694522      -0.0000000028     0.999998    0.00000931
  648      -16.4314694550      -0.0000000028     0.999998    0.00000927
  649      -16.4314694577      -0.0000000028     0.999998    0.00000922
  650      -16.4314694605      -0.0000000027     0.999998    0.00000918
  651      -16.4314694632      -0.0000000027     0.999998    0.00000913
  652      -16.4314694659      -0.0000000027     0.999998    0.00000909
  653      -16.4314694685      -0.0000000027     0.999998    0.00000904
  654      -16.4314694712      -0.0000000026     0.999998    0.00000900
  655      -16.4314694738      -0.0000000026     0.999998    0.00000895
  656      -16.4314694763      -0.0000000026     0.999998    0.00000891
  657      -16.4314694789      -0.0000000026     0.999998    0.00000887
  658      -16.4314694814      -0.0000000025     0.999998    0.00000882
  659      -16.4314694839      -0.0000000025     0.999998    0.00000878
  660      -16.4314694864      -0.0000000025     0.999998    0.00000874
  661      -16.4314694889      -0.0000000025     0.999998    0.00000870
  662      -16.4314694913      -0.0000000024     0.999998    0.00000865
  663      -16.4314694937      -0.0000000024     0.999998    0.00000861
  664      -16.4314694961      -0.0000000024     0.999998    0.00000857
  665      -16.4314694985      -0.0000000024     0.999998    0.00000853
  666      -16.4314695008      -0.0000000023     0.999998    0.00000849
  667      -16.4314695031      -0.0000000023     0.999998    0.00000844
  668      -16.4314695054      -0.0000000023     0.999998    0.00000840
  669      -16.4314695077      -0.0000000023     0.999998    0.00000836
  670      -16.4314695099      -0.0000000023     0.999998    0.00000832
  671      -16.4314695122      -0.0000000022     0.999998    0.00000828
  672      -16.4314695144      -0.0000000022     0.999998    0.00000824
  673      -16.4314695166      -0.0000000022     0.999998    0.00000820
  674      -16.4314695187      -0.0000000022     0.999998    0.00000816
  675      -16.4314695209      -0.0000000021     0.999998    0.00000812
  676      -16.4314695230      -0.0000000021     0.999998    0.00000808
  677      -16.4314695251      -0.0000000021     0.999998    0.00000804
  678      -16.4314695272      -0.0000000021     0.999998    0.00000800
  679      -16.4314695292      -0.0000000021     0.999998    0.00000796
  680      -16.4314695313      -0.0000000020     0.999998    0.00000792
  681      -16.4314695333      -0.0000000020     0.999998    0.00000788
  682      -16.4314695353      -0.0000000020     0.999998    0.00000784
  683      -16.4314695373      -0.0000000020     0.999998    0.00000781
  684      -16.4314695392      -0.0000000020     0.999998    0.00000777
  685      -16.4314695412      -0.0000000019     0.999998    0.00000773
  686      -16.4314695431      -0.0000000019     0.999998    0.00000769
  687      -16.4314695450      -0.0000000019     0.999998    0.00000765
  688      -16.4314695469      -0.0000000019     0.999998    0.00000762
  689      -16.4314695488      -0.0000000019     0.999998    0.00000758
  690      -16.4314695506      -0.0000000019     0.999998    0.00000754
  691      -16.4314695525      -0.0000000018     0.999998    0.00000750
  692      -16.4314695543      -0.0000000018     0.999998    0.00000747
  693      -16.4314695561      -0.0000000018     0.999998    0.00000743
  694      -16.4314695579      -0.0000000018     0.999998    0.00000739
  695      -16.4314695596      -0.0000000018     0.999998    0.00000736
  696      -16.4314695614      -0.0000000017     0.999998    0.00000732
  697      -16.4314695631      -0.0000000017     0.999998    0.00000729
  698      -16.4314695648      -0.0000000017     0.999998    0.00000725
  699      -16.4314695665      -0.0000000017     0.999998    0.00000721
  700      -16.4314695682      -0.0000000017     0.999998    0.00000718
  701      -16.4314695698      -0.0000000017     0.999998    0.00000714
  702      -16.4314695715      -0.0000000016     0.999998    0.00000711
  703      -16.4314695731      -0.0000000016     0.999998    0.00000707
  704      -16.4314695747      -0.0000000016     0.999998    0.00000704
  705      -16.4314695763      -0.0000000016     0.999998    0.00000700
  706      -16.4314695779      -0.0000000016     0.999998    0.00000697
  707      -16.4314695795      -0.0000000016     0.999998    0.00000694
  708      -16.4314695810      -0.0000000016     0.999998    0.00000690
  709      -16.4314695825      -0.0000000015     0.999998    0.00000687
  710      -16.4314695841      -0.0000000015     0.999998    0.00000683
  711      -16.4314695856      -0.0000000015     0.999998    0.00000680
  712      -16.4314695871      -0.0000000015     0.999998    0.00000677
  713      -16.4314695885      -0.0000000015     0.999998    0.00000673
  714      -16.4314695900      -0.0000000015     0.999998    0.00000670
  715      -16.4314695914      -0.0000000014     0.999998    0.00000667
  716      -16.4314695929      -0.0000000014     0.999998    0.00000663
  717      -16.4314695943      -0.0000000014     0.999998    0.00000660
  718      -16.4314695957      -0.0000000014     0.999998    0.00000657
  719      -16.4314695971      -0.0000000014     0.999998    0.00000654
  720      -16.4314695985      -0.0000000014     0.999998    0.00000650
  721      -16.4314695998      -0.0000000014     0.999998    0.00000647
  722      -16.4314696012      -0.0000000014     0.999998    0.00000644
  723      -16.4314696025      -0.0000000013     0.999998    0.00000641
  724      -16.4314696038      -0.0000000013     0.999998    0.00000638
  725      -16.4314696052      -0.0000000013     0.999998    0.00000634
  726      -16.4314696065      -0.0000000013     0.999998    0.00000631
  727      -16.4314696077      -0.0000000013     0.999998    0.00000628
  728      -16.4314696090      -0.0000000013     0.999998    0.00000625
  729      -16.4314696103      -0.0000000013     0.999998    0.00000622
  730      -16.4314696115      -0.0000000012     0.999998    0.00000619
  731      -16.4314696128      -0.0000000012     0.999998    0.00000616
  732      -16.4314696140      -0.0000000012     0.999998    0.00000613
  733      -16.4314696152      -0.0000000012     0.999998    0.00000610
  734      -16.4314696164      -0.0000000012     0.999998    0.00000607
  735      -16.4314696176      -0.0000000012     0.999998    0.00000604
  736      -16.4314696188      -0.0000000012     0.999998    0.00000601
  737      -16.4314696199      -0.0000000012     0.999998    0.00000598
  738      -16.4314696211      -0.0000000012     0.999998    0.00000595
  739      -16.4314696222      -0.0000000011     0.999998    0.00000592
  740      -16.4314696233      -0.0000000011     0.999998    0.00000589
  741      -16.4314696245      -0.0000000011     0.999998    0.00000586
  742      -16.4314696256      -0.0000000011     0.999998    0.00000583
  743      -16.4314696267      -0.0000000011     0.999998    0.00000580
  744      -16.4314696278      -0.0000000011     0.999998    0.00000577
  745      -16.4314696288      -0.0000000011     0.999998    0.00000574
  746      -16.4314696299      -0.0000000011     0.999998    0.00000572
  747      -16.4314696309      -0.0000000011     0.999998    0.00000569
  748      -16.4314696320      -0.0000000010     0.999998    0.00000566
  749      -16.4314696330      -0.0000000010     0.999998    0.00000563
  750      -16.4314696340      -0.0000000010     0.999998    0.00000560
  751      -16.4314696351      -0.0000000010     0.999998    0.00000558
  752      -16.4314696361      -0.0000000010     0.999998    0.00000555
  753      -16.4314696371      -0.0000000010     0.999998    0.00000552
  754      -16.4314696380      -0.0000000010     0.999998    0.00000549
  755      -16.4314696390      -0.0000000010     0.999998    0.00000547
  756      -16.4314696400      -0.0000000010     0.999998    0.00000544
  757      -16.4314696409      -0.0000000010     0.999998    0.00000541
  758      -16.4314696419      -0.0000000009     0.999998    0.00000538
  759      -16.4314696428      -0.0000000009     0.999998    0.00000536
  760      -16.4314696437      -0.0000000009     0.999998    0.00000533
  761      -16.4314696447      -0.0000000009     0.999998    0.00000530
  762      -16.4314696456      -0.0000000009     0.999998    0.00000528
  763      -16.4314696465      -0.0000000009     0.999998    0.00000525
  764      -16.4314696474      -0.0000000009     0.999998    0.00000523
  765      -16.4314696482      -0.0000000009     0.999998    0.00000520
  766      -16.4314696491      -0.0000000009     0.999998    0.00000517
  767      -16.4314696500      -0.0000000009     0.999998    0.00000515
  768      -16.4314696508      -0.0000000009     0.999998    0.00000512
  769      -16.4314696517      -0.0000000008     0.999998    0.00000510
  770      -16.4314696525      -0.0000000008     0.999998    0.00000507
  771      -16.4314696534      -0.0000000008     0.999998    0.00000505
  772      -16.4314696542      -0.0000000008     0.999998    0.00000502
  773      -16.4314696550      -0.0000000008     0.999998    0.00000500
  774      -16.4314696558      -0.0000000008     0.999998    0.00000497
  775      -16.4314696566      -0.0000000008     0.999998    0.00000495
  776      -16.4314696574      -0.0000000008     0.999998    0.00000492
  777      -16.4314696582      -0.0000000008     0.999998    0.00000490
  778      -16.4314696589      -0.0000000008     0.999998    0.00000487
  779      -16.4314696597      -0.0000000008     0.999998    0.00000485
  780      -16.4314696605      -0.0000000008     0.999998    0.00000482
  781      -16.4314696612      -0.0000000008     0.999998    0.00000480
  782      -16.4314696620      -0.0000000007     0.999998    0.00000478
  783      -16.4314696627      -0.0000000007     0.999998    0.00000475
  784      -16.4314696634      -0.0000000007     0.999998    0.00000473
  785      -16.4314696642      -0.0000000007     0.999998    0.00000471
  786      -16.4314696649      -0.0000000007     0.999998    0.00000468
  787      -16.4314696656      -0.0000000007     0.999998    0.00000466
  788      -16.4314696663      -0.0000000007     0.999998    0.00000464
  789      -16.4314696670      -0.0000000007     0.999998    0.00000461
  790      -16.4314696677      -0.0000000007     0.999998    0.00000459
  791      -16.4314696683      -0.0000000007     0.999998    0.00000457
  792      -16.4314696690      -0.0000000007     0.999998    0.00000454
  793      -16.4314696697      -0.0000000007     0.999998    0.00000452
  794      -16.4314696703      -0.0000000007     0.999998    0.00000450
  795      -16.4314696710      -0.0000000007     0.999998    0.00000448
  796      -16.4314696716      -0.0000000006     0.999998    0.00000445
  797      -16.4314696723      -0.0000000006     0.999998    0.00000443
  798      -16.4314696729      -0.0000000006     0.999998    0.00000441
  799      -16.4314696735      -0.0000000006     0.999998    0.00000439
  800      -16.4314696742      -0.0000000006     0.999998    0.00000436
  801      -16.4314696748      -0.0000000006     0.999998    0.00000434
  802      -16.4314696754      -0.0000000006     0.999998    0.00000432
  803      -16.4314696760      -0.0000000006     0.999998    0.00000430
  804      -16.4314696766      -0.0000000006     0.999998    0.00000428
  805      -16.4314696772      -0.0000000006     0.999998    0.00000426
  806      -16.4314696778      -0.0000000006     0.999998    0.00000424
  807      -16.4314696783      -0.0000000006     0.999998    0.00000421
  808      -16.4314696789      -0.0000000006     0.999998    0.00000419
  809      -16.4314696795      -0.0000000006     0.999998    0.00000417
  810      -16.4314696801      -0.0000000006     0.999998    0.00000415
  811      -16.4314696806      -0.0000000006     0.999998    0.00000413
  812      -16.4314696812      -0.0000000006     0.999998    0.00000411
  813      -16.4314696817      -0.0000000005     0.999998    0.00000409
  814      -16.4314696822      -0.0000000005     0.999998    0.00000407
  815      -16.4314696828      -0.0000000005     0.999998    0.00000405
  816      -16.4314696833      -0.0000000005     0.999998    0.00000403
  817      -16.4314696838      -0.0000000005     0.999998    0.00000401
  818      -16.4314696844      -0.0000000005     0.999998    0.00000399
  819      -16.4314696849      -0.0000000005     0.999998    0.00000397
  820      -16.4314696854      -0.0000000005     0.999998    0.00000395
  821      -16.4314696859      -0.0000000005     0.999998    0.00000393
  822      -16.4314696864      -0.0000000005     0.999998    0.00000391
  823      -16.4314696869      -0.0000000005     0.999998    0.00000389
  824      -16.4314696874      -0.0000000005     0.999998    0.00000387
  825      -16.4314696878      -0.0000000005     0.999998    0.00000385
  826      -16.4314696883      -0.0000000005     0.999998    0.00000383
  827      -16.4314696888      -0.0000000005     0.999998    0.00000381
  828      -16.4314696893      -0.0000000005     0.999998    0.00000379
  829      -16.4314696897      -0.0000000005     0.999998    0.00000377
  830      -16.4314696902      -0.0000000005     0.999998    0.00000375
  831      -16.4314696907      -0.0000000005     0.999998    0.00000374
  832      -16.4314696911      -0.0000000005     0.999998    0.00000372
  833      -16.4314696916      -0.0000000004     0.999998    0.00000370
  834      -16.4314696920      -0.0000000004     0.999998    0.00000368
  835      -16.4314696924      -0.0000000004     0.999998    0.00000366
  836      -16.4314696929      -0.0000000004     0.999998    0.00000364
  837      -16.4314696933      -0.0000000004     0.999998    0.00000362
  838      -16.4314696937      -0.0000000004     0.999998    0.00000361
  839      -16.4314696941      -0.0000000004     0.999998    0.00000359
  840      -16.4314696946      -0.0000000004     0.999998    0.00000357
  841      -16.4314696950      -0.0000000004     0.999998    0.00000355
  842      -16.4314696954      -0.0000000004     0.999998    0.00000353
  843      -16.4314696958      -0.0000000004     0.999998    0.00000352
  844      -16.4314696962      -0.0000000004     0.999998    0.00000350
  845      -16.4314696966      -0.0000000004     0.999998    0.00000348
  846      -16.4314696970      -0.0000000004     0.999998    0.00000346
  847      -16.4314696974      -0.0000000004     0.999998    0.00000345
  848      -16.4314696977      -0.0000000004     0.999998    0.00000343
  849      -16.4314696981      -0.0000000004     0.999998    0.00000341
  850      -16.4314696985      -0.0000000004     0.999998    0.00000339
  851      -16.4314696989      -0.0000000004     0.999998    0.00000338
  852      -16.4314696992      -0.0000000004     0.999998    0.00000336
  853      -16.4314696996      -0.0000000004     0.999998    0.00000334
  854      -16.4314697000      -0.0000000004     0.999998    0.00000333
  855      -16.4314697003      -0.0000000004     0.999998    0.00000331
  856      -16.4314697007      -0.0000000004     0.999998    0.00000329
  857      -16.4314697010      -0.0000000004     0.999998    0.00000328
  858      -16.4314697014      -0.0000000003     0.999998    0.00000326
  859      -16.4314697017      -0.0000000003     0.999998    0.00000324
  860      -16.4314697021      -0.0000000003     0.999998    0.00000323
  861      -16.4314697024      -0.0000000003     0.999998    0.00000321
  862      -16.4314697027      -0.0000000003     0.999998    0.00000319
  863      -16.4314697031      -0.0000000003     0.999998    0.00000318
  864      -16.4314697034      -0.0000000003     0.999998    0.00000316
  865      -16.4314697037      -0.0000000003     0.999998    0.00000315
  866      -16.4314697040      -0.0000000003     0.999998    0.00000313
  867      -16.4314697043      -0.0000000003     0.999998    0.00000312
  868      -16.4314697047      -0.0000000003     0.999998    0.00000310
  869      -16.4314697050      -0.0000000003     0.999998    0.00000308
  870      -16.4314697053      -0.0000000003     0.999998    0.00000307
  871      -16.4314697056      -0.0000000003     0.999998    0.00000305
  872      -16.4314697059      -0.0000000003     0.999998    0.00000304
  873      -16.4314697062      -0.0000000003     0.999998    0.00000302
  874      -16.4314697065      -0.0000000003     0.999998    0.00000301
  875      -16.4314697068      -0.0000000003     0.999998    0.00000299
  876      -16.4314697071      -0.0000000003     0.999998    0.00000298
  877      -16.4314697073      -0.0000000003     0.999998    0.00000296
  878      -16.4314697076      -0.0000000003     0.999998    0.00000295
  879      -16.4314697079      -0.0000000003     0.999998    0.00000293
  880      -16.4314697082      -0.0000000003     0.999998    0.00000292
  881      -16.4314697085      -0.0000000003     0.999998    0.00000290
  882      -16.4314697087      -0.0000000003     0.999998    0.00000289
  883      -16.4314697090      -0.0000000003     0.999998    0.00000287
  884      -16.4314697093      -0.0000000003     0.999998    0.00000286
  885      -16.4314697095      -0.0000000003     0.999998    0.00000284
  886      -16.4314697098      -0.0000000003     0.999998    0.00000283
  887      -16.4314697101      -0.0000000003     0.999998    0.00000282
  888      -16.4314697103      -0.0000000003     0.999998    0.00000280
  889      -16.4314697106      -0.0000000003     0.999998    0.00000279
  890      -16.4314697108      -0.0000000003     0.999998    0.00000277
  891      -16.4314697111      -0.0000000002     0.999998    0.00000276
  892      -16.4314697113      -0.0000000002     0.999998    0.00000275
  893      -16.4314697116      -0.0000000002     0.999998    0.00000273
  894      -16.4314697118      -0.0000000002     0.999998    0.00000272
  895      -16.4314697120      -0.0000000002     0.999998    0.00000270
  896      -16.4314697123      -0.0000000002     0.999998    0.00000269
  897      -16.4314697125      -0.0000000002     0.999998    0.00000268
  898      -16.4314697127      -0.0000000002     0.999998    0.00000266
  899      -16.4314697130      -0.0000000002     0.999998    0.00000265
  900      -16.4314697132      -0.0000000002     0.999998    0.00000264
  901      -16.4314697134      -0.0000000002     0.999998    0.00000262
  902      -16.4314697137      -0.0000000002     0.999998    0.00000261
  903      -16.4314697139      -0.0000000002     0.999998    0.00000260
  904      -16.4314697141      -0.0000000002     0.999998    0.00000258
  905      -16.4314697143      -0.0000000002     0.999998    0.00000257
  906      -16.4314697145      -0.0000000002     0.999998    0.00000256
  907      -16.4314697147      -0.0000000002     0.999998    0.00000254
  908      -16.4314697149      -0.0000000002     0.999998    0.00000253
  909      -16.4314697151      -0.0000000002     0.999998    0.00000252
  910      -16.4314697154      -0.0000000002     0.999998    0.00000251
  911      -16.4314697156      -0.0000000002     0.999998    0.00000249
  912      -16.4314697158      -0.0000000002     0.999998    0.00000248
  913      -16.4314697160      -0.0000000002     0.999998    0.00000247
  914      -16.4314697162      -0.0000000002     0.999998    0.00000246
  915      -16.4314697164      -0.0000000002     0.999998    0.00000244
  916      -16.4314697165      -0.0000000002     0.999998    0.00000243
  917      -16.4314697167      -0.0000000002     0.999998    0.00000242
  918      -16.4314697169      -0.0000000002     0.999998    0.00000241
  919      -16.4314697171      -0.0000000002     0.999998    0.00000239
  920      -16.4314697173      -0.0000000002     0.999998    0.00000238
  921      -16.4314697175      -0.0000000002     0.999998    0.00000237
  922      -16.4314697177      -0.0000000002     0.999998    0.00000236
  923      -16.4314697178      -0.0000000002     0.999998    0.00000235
  924      -16.4314697180      -0.0000000002     0.999998    0.00000233
  925      -16.4314697182      -0.0000000002     0.999998    0.00000232
  926      -16.4314697184      -0.0000000002     0.999998    0.00000231
  927      -16.4314697185      -0.0000000002     0.999998    0.00000230
  928      -16.4314697187      -0.0000000002     0.999998    0.00000229
  929      -16.4314697189      -0.0000000002     0.999998    0.00000228
  930      -16.4314697191      -0.0000000002     0.999998    0.00000226
  931      -16.4314697192      -0.0000000002     0.999998    0.00000225
  932      -16.4314697194      -0.0000000002     0.999998    0.00000224
  933      -16.4314697195      -0.0000000002     0.999998    0.00000223
  934      -16.4314697197      -0.0000000002     0.999998    0.00000222
  935      -16.4314697199      -0.0000000002     0.999998    0.00000221
  936      -16.4314697200      -0.0000000002     0.999998    0.00000220
  937      -16.4314697202      -0.0000000002     0.999998    0.00000218
  938      -16.4314697203      -0.0000000002     0.999998    0.00000217
  939      -16.4314697205      -0.0000000002     0.999998    0.00000216
  940      -16.4314697206      -0.0000000002     0.999998    0.00000215
  941      -16.4314697208      -0.0000000001     0.999998    0.00000214
  942      -16.4314697209      -0.0000000001     0.999998    0.00000213
  943      -16.4314697211      -0.0000000001     0.999998    0.00000212
  944      -16.4314697212      -0.0000000001     0.999998    0.00000211
  945      -16.4314697214      -0.0000000001     0.999998    0.00000210
  946      -16.4314697215      -0.0000000001     0.999998    0.00000209
  947      -16.4314697217      -0.0000000001     0.999998    0.00000208
  948      -16.4314697218      -0.0000000001     0.999998    0.00000207
  949      -16.4314697219      -0.0000000001     0.999998    0.00000206
  950      -16.4314697221      -0.0000000001     0.999998    0.00000205
  951      -16.4314697222      -0.0000000001     0.999998    0.00000203
  952      -16.4314697223      -0.0000000001     0.999998    0.00000202
  953      -16.4314697225      -0.0000000001     0.999998    0.00000201
  954      -16.4314697226      -0.0000000001     0.999998    0.00000200
  955      -16.4314697227      -0.0000000001     0.999998    0.00000199
  956      -16.4314697229      -0.0000000001     0.999998    0.00000198
  957      -16.4314697230      -0.0000000001     0.999998    0.00000197
  958      -16.4314697231      -0.0000000001     0.999998    0.00000196
  959      -16.4314697232      -0.0000000001     0.999998    0.00000195
  960      -16.4314697234      -0.0000000001     0.999998    0.00000194
  961      -16.4314697235      -0.0000000001     0.999998    0.00000193
  962      -16.4314697236      -0.0000000001     0.999998    0.00000192
  963      -16.4314697237      -0.0000000001     0.999998    0.00000191
  964      -16.4314697238      -0.0000000001     0.999998    0.00000190
  965      -16.4314697240      -0.0000000001     0.999998    0.00000189
  966      -16.4314697241      -0.0000000001     0.999998    0.00000189
  967      -16.4314697242      -0.0000000001     0.999998    0.00000188
  968      -16.4314697243      -0.0000000001     0.999998    0.00000187
  969      -16.4314697244      -0.0000000001     0.999998    0.00000186
  970      -16.4314697245      -0.0000000001     0.999998    0.00000185
  971      -16.4314697246      -0.0000000001     0.999998    0.00000184
  972      -16.4314697248      -0.0000000001     0.999998    0.00000183
  973      -16.4314697249      -0.0000000001     0.999998    0.00000182
  974      -16.4314697250      -0.0000000001     0.999998    0.00000181
  975      -16.4314697251      -0.0000000001     0.999998    0.00000180
  976      -16.4314697252      -0.0000000001     0.999998    0.00000179
  977      -16.4314697253      -0.0000000001     0.999998    0.00000178
  978      -16.4314697254      -0.0000000001     0.999998    0.00000177
  979      -16.4314697255      -0.0000000001     0.999998    0.00000176
  980      -16.4314697256      -0.0000000001     0.999998    0.00000176
  981      -16.4314697257      -0.0000000001     0.999998    0.00000175
  982      -16.4314697258      -0.0000000001     0.999998    0.00000174
  983      -16.4314697259      -0.0000000001     0.999998    0.00000173
  984      -16.4314697260      -0.0000000001     0.999998    0.00000172
  985      -16.4314697261      -0.0000000001     0.999998    0.00000171
  986      -16.4314697262      -0.0000000001     0.999998    0.00000170
  987      -16.4314697263      -0.0000000001     0.999998    0.00000169
  988      -16.4314697264      -0.0000000001     0.999998    0.00000169
  989      -16.4314697265      -0.0000000001     0.999998    0.00000168
  990      -16.4314697265      -0.0000000001     0.999998    0.00000167
  991      -16.4314697266      -0.0000000001     0.999998    0.00000166
  992      -16.4314697267      -0.0000000001     0.999998    0.00000165
  993      -16.4314697268      -0.0000000001     0.999998    0.00000164
  994      -16.4314697269      -0.0000000001     0.999998    0.00000163
  995      -16.4314697270      -0.0000000001     0.999998    0.00000163
  996      -16.4314697271      -0.0000000001     0.999998    0.00000162
  997      -16.4314697272      -0.0000000001     0.999998    0.00000161
  998      -16.4314697272      -0.0000000001     0.999998    0.00000160
  999      -16.4314697273      -0.0000000001     0.999998    0.00000159
 1000      -16.4314697274      -0.0000000001     0.999998    0.00000159

Total Energy:                      -16.4314697274 H         -447.1230 eV
Extrapolated to 0:                 -16.3916306530 H         -446.0390 eV

----------------------------------------------------------------------------------
 Solving CP-REKS equation for  1 state vector...
----------------------------------------------------------------------------------
  CG solver: Constructing Y initial guess
  CG solver: Iteration    1    eps =    0.046851594195
  CG solver: Iteration    2    eps =    0.023940112956
  CG solver: Iteration    3    eps =    0.013430235864
  CG solver: Iteration    4    eps =    0.040827310891
  CG solver: Iteration    5    eps =    0.092235977752
  CG solver: Iteration    6    eps =    0.063368242452
  CG solver: Iteration    7    eps =    0.052363426721
  CG solver: Iteration    8    eps =    0.010771951241
  CG solver: Iteration    9    eps =    0.000359566647
  CG solver: Iteration   10    eps =    0.000046910134
  CG solver: Iteration   11    eps =    0.000015473884
  CG solver: Iteration   12    eps =    0.000003820681
  CG solver: Iteration   13    eps =    0.000000512485
  CG solver: Iteration   14    eps =    0.000000165721
  CG solver: Iteration   15    eps =    0.000000010405
  CG solver: Iteration   16    eps =    0.000000000826
  Convergence reached in CG solver after   16 iterations
  CG solver: Calculating converged R, Z, Q2 matrix
----------------------------------------------------------------------------------

----------------------------------------------------------------------------------
 Solving CP-REKS equation for SI between  1 and  2 state vectors...
----------------------------------------------------------------------------------
  CG solver: Constructing Y initial guess
  CG solver: Iteration    1    eps =    0.054539745444
  CG solver: Iteration    2    eps =    0.001621720786
  CG solver: Iteration    3    eps =    0.001470923378
  CG solver: Iteration    4    eps =    0.029509129630
  CG solver: Iteration    5    eps =    0.020203594240
  CG solver: Iteration    6    eps =    0.004515266950
  CG solver: Iteration    7    eps =    0.002253980818
  CG solver: Iteration    8    eps =    0.000327844389
  CG solver: Iteration    9    eps =    0.000042004307
  CG solver: Iteration   10    eps =    0.000023779912
  CG solver: Iteration   11    eps =    0.000003010659
  CG solver: Iteration   12    eps =    0.000000453917
  CG solver: Iteration   13    eps =    0.000000048824
  CG solver: Iteration   14    eps =    0.000000002664
  Convergence reached in CG solver after   14 iterations
  CG solver: Calculating converged R, Z, Q2 matrix
----------------------------------------------------------------------------------

--------------------------------------------------
 Gradient Information
--------------------------------------------------
           1 st state (SSR)
     0.00000000     0.00000000     0.00000000
     0.00000000     0.00000000     0.00000000
     0.00000000     0.00000000     0.00000000
     0.00000000     0.00000000     0.00000000
     0.00000000     0.00000000     0.00000000
     0.00000000     0.00000000     0.00000000
     0.00000000     0.00000000     0.00000000
     0.00000000     0.00000000     0.00000000
     0.00000000     0.00000000     0.00000000
     0.00000000     0.00000000     0.00000000
     0.00000000     0.00000000     0.00000000
     0.00000000     0.00000000     0.00000000
     0.00000000     0.00000000     0.00000000
     0.00000000     0.00000000     0.00000000

           2 st state (SSR)
     0.00000000     0.00000000     0.00000000
     0.00000000     0.00000000     0.00000000
     0.00000000     0.00000000     0.00000000
     0.00000000     0.00000000     0.00000000
     0.00000000     0.00000000     0.00000000
     0.00000000     0.00000000     0.00000000
     0.00000000     0.00000000     0.00000000
     0.00000000     0.00000000     0.00000000
     0.00000000     0.00000000     0.00000000
     0.00000000     0.00000000     0.00000000
     0.00000000     0.00000000     0.00000000
     0.00000000     0.00000000     0.00000000
     0.00000000     0.00000000     0.00000000
     0.00000000     0.00000000     0.00000000
--------------------------------------------------
 Coupling Information
--------------------------------------------------
 between  1 and  2 states
--------------------------------------------------
 g vector - difference gradient
    -0.54669918    -0.61229524    -0.10436409
     0.56107147     0.84902754     0.23319940
     0.13359923    -0.01640557     0.29964391
    -0.08239422     0.13691056    -0.29136207
     0.00551650    -0.21630985     0.00761371
    -0.61092186    -0.29299271    -0.25143843
     0.51414086     0.21905270    -0.18899338
    -0.09677361    -0.04742521     0.04485298
     0.06676655    -0.00839348     0.03790646
    -0.33906492    -0.27205420     0.11672168
     0.05428654     0.07858999     0.03115233
     0.44849157     0.10989575     0.04522219
    -0.02304564    -0.01045708     0.01588784
    -0.08497329     0.08285678     0.00395748

 h vector - derivative coupling
     0.32242848     0.33363246    -0.03867823
    -0.31885849    -0.52962720     0.05115305
    -0.06499248     0.00903225    -0.09478106
     0.02958350    -0.03536689     0.07735135
    -0.07486398     0.12287622    -0.02566876
     0.41412924     0.24632402     0.12072086
    -0.24887940    -0.16757259     0.02786517
    -0.01964666     0.02271631    -0.02265849
     0.02091366    -0.02582022     0.00387452
     0.02694824     0.09246700    -0.09683853
    -0.03971825    -0.00944468     0.00642432
    -0.05208410    -0.05352526    -0.01403422
     0.00602229    -0.00881487     0.00528369
    -0.00098204     0.00312345    -0.00001367

 G vector - GDV
     0.00000000     0.00000000     0.00000000
     0.00000000     0.00000000     0.00000000
     0.00000000     0.00000000     0.00000000
     0.00000000     0.00000000     0.00000000
     0.00000000     0.00000000     0.00000000
     0.00000000     0.00000000     0.00000000
     0.00000000     0.00000000     0.00000000
     0.00000000     0.00000000     0.00000000
     0.00000000     0.00000000     0.00000000
     0.00000000     0.00000000     0.00000000
     0.00000000     0.00000000     0.00000000
     0.00000000     0.00000000     0.00000000
     0.00000000     0.00000000     0.00000000
     0.00000000     0.00000000     0.00000000

 H vector - DCV - non-adiabatic coupling
     0.00000000     0.00000000     0.00000000
     0.00000000     0.00000000     0.00000000
     0.00000000     0.00000000     0.00000000
     0.00000000     0.00000000     0.00000000
     0.00000000     0.00000000     0.00000000
     0.00000000     0.00000000     0.00000000
     0.00000000     0.00000000     0.00000000
     0.00000000     0.00000000     0.00000000
     0.00000000     0.00000000     0.00000000
     0.00000000     0.00000000     0.00000000
     0.00000000     0.00000000     0.00000000
     0.00000000     0.00000000     0.00000000
     0.00000000     0.00000000     0.00000000
     0.00000000     0.00000000     0.00000000
--------------------------------------------------

WARNING!
-> SCC is NOT converged, maximal SCC iterations exceeded

--------------------------------------------------------------------------------
DFTB+ running times                          cpu [s]             wall clock [s]
--------------------------------------------------------------------------------
SCC                                    +     1.38  ( 77.7%)      1.38  ( 77.6%)
      Sparse to dense                        0.07  (  4.1%)      0.07  (  3.9%)
      Dense to sparse                        0.25  ( 14.2%)      0.25  ( 13.9%)
      Range separated Hamiltonian            0.12  (  7.0%)      0.12  (  6.8%)
  Density matrix creation                    0.15  (  8.7%)      0.17  (  9.3%)
  Force calculation                          0.39  ( 22.2%)      0.40  ( 22.2%)
--------------------------------------------------------------------------------
Missing                                +     0.39  ( 22.3%)      0.40  ( 22.4%)
Total                                  =     1.77  (100.0%)      1.78  (100.0%)
--------------------------------------------------------------------------------
