     6
  Step:   300            Position(A)                                  Velocity(au)
C        -0.06582340     0.01591586     0.02473170    -0.00002346     0.00004602     0.00002864
N        -0.00006160    -0.05160963     1.29402801     0.00013352    -0.00003184     0.00003365
H         0.06001697     0.92512744    -0.56558803     0.00103416    -0.00022756    -0.00040560
H        -0.27312784    -0.90962097     1.77836637     0.00070039    -0.00022139    -0.00004233
H         0.00144919     0.73835111     1.95496228    -0.00195599     0.00020536    -0.00028578
H        -0.21605403    -0.89609208    -0.55266494    -0.00135446     0.00013767    -0.00007515
