 Fermi distribution function

Calculation with static geometry


********************************************************************************
 iSCC Total electronic   Diff electronic      SCC error    
   10   -0.53615417E+01   -0.32684966E-12    0.38549759E-06
********************************************************************************

 Total charge:     1.00000000

 Atomic gross charges (e)
 Atom           Charge
    1       0.23058042
    2      -0.12378698
    3       0.17749579
    4       0.26856263
    5       0.26672806
    6       0.18042007

Nr. of electrons (up):     12.00000000
Atom populations (up)
 Atom       Population
    1       3.76941958
    2       5.12378698
    3       0.82250421
    4       0.73143737
    5       0.73327194
    6       0.81957993

l-shell populations (up)
 Atom Sh.   l       Population
    1   1   0       1.36600162
    1   2   1       2.40341796
    2   1   0       1.46756620
    2   2   1       3.65622078
    3   1   0       0.82250421
    4   1   0       0.73143737
    5   1   0       0.73327194
    6   1   0       0.81957993

Orbital populations (up)
 Atom Sh.   l   m       Population  Label
    1   1   0   0       1.36600162  s
    1   2   1  -1       0.52924116  p_y
    1   2   1   0       0.87014201  p_z
    1   2   1   1       1.00403480  p_x
    2   1   0   0       1.46756620  s
    2   2   1  -1       1.37792754  p_y
    2   2   1   0       1.12124097  p_z
    2   2   1   1       1.15705228  p_x
    3   1   0   0       0.82250421  s
    4   1   0   0       0.73143737  s
    5   1   0   0       0.73327194  s
    6   1   0   0       0.81957993  s

Fermi level:                        -0.5120365313 H          -13.9332 eV
Band energy:                        -8.8203130652 H         -240.0129 eV
TS:                                  0.0000000000 H            0.0000 eV
Band free energy (E-TS):            -8.8203130652 H         -240.0129 eV
Extrapolated E(0K):                 -8.8203130652 H         -240.0129 eV
Input / Output electrons (q):     12.0000000000     12.0000000000

Energy H0:                          -5.4948175442 H         -149.5216 eV
Energy SCC:                          0.1332758453 H            3.6266 eV
Total Electronic energy:            -5.3615416989 H         -145.8950 eV
Repulsive energy:                    0.1540327996 H            4.1914 eV
Total energy:                       -5.2075088993 H         -141.7035 eV
Extrapolated to 0:                  -5.2075088993 H         -141.7035 eV
Total Mermin free energy:           -5.2075088993 H         -141.7035 eV
Force related energy:               -5.2075088993 H         -141.7035 eV

SCC converged

Excitation Energy:                   0.1865556060 H            5.0764 eV

Total Forces
    1     -0.002907082218      0.001992883725     -0.022124234393
    2      0.002400338698      0.004214234057      0.015442842208
    3     -0.016810078020     -0.000976220978      0.003581905855
    4     -0.005366173971     -0.001124896101     -0.002881649920
    5      0.002059886192     -0.003461551918     -0.000923693804
    6      0.020623109318     -0.000644448785      0.006904830054

Maximal derivative component:        0.221242E-01 au


