     6
  Step:   120            Position(A)                                  Velocity(au)
C        -0.04263186    -0.04753911    -0.01104141    -0.00006677    -0.00018601    -0.00043960
N        -0.04251428    -0.07212459     1.34133731     0.00006842     0.00013633     0.00030880
H         0.88082603     0.22228042    -0.65972180     0.00081845     0.00002725     0.00041199
H         0.84841402     0.14921627     1.83621403    -0.00013154     0.00007430    -0.00010175
H        -0.95000653     0.03539873     1.82869568    -0.00052482    -0.00093295     0.00014876
H        -0.89337945     0.49207699    -0.62126409    -0.00031726     0.00115344     0.00048811
