     6
  Step:     0            Position(A)                                  Velocity(au)
C        -0.04074009     0.00243101     0.00289241     0.00006678     0.00005280     0.00026658
N        -0.05227118    -0.05093629     1.30577645     0.00009367    -0.00009945    -0.00019571
H         0.94540707     0.05458798    -0.49581663    -0.00037315    -0.00022621     0.00005229
H         0.87704744    -0.14396646     1.87520933    -0.00119055     0.00057610    -0.00000840
H        -0.85957476    -0.01863927     1.85571192     0.00025224     0.00038570    -0.00003746
H        -0.96397689     0.11710037    -0.52305837    -0.00078600     0.00001724    -0.00046331
     6
  Step:     1            Position(A)                                  Velocity(au)
C        -0.04034160     0.00271435     0.00403808     0.00007781     0.00005087     0.00015124
N        -0.05167005    -0.05151039     1.30497915     0.00012528    -0.00011064    -0.00009548
H         0.94329758     0.05343715    -0.49554659    -0.00039447    -0.00019358     0.00004535
H         0.87004866    -0.14068033     1.87483761    -0.00135863     0.00062526    -0.00012340
H        -0.85897489    -0.01640849     1.85595541    -0.00003152     0.00043160     0.00012466
H        -0.96857066     0.11733585    -0.52577218    -0.00088350     0.00006812    -0.00052202
     6
  Step:     2            Position(A)                                  Velocity(au)
C        -0.03988905     0.00298735     0.00454659     0.00008650     0.00004905     0.00003412
N        -0.05090101    -0.05214641     1.30473221     0.00015468    -0.00012207     0.00000521
H         0.94109267     0.05247076    -0.49532062    -0.00040773    -0.00015899     0.00003579
H         0.86218783    -0.13712786     1.87385965    -0.00150406     0.00067340    -0.00022850
H        -0.85991951    -0.01391880     1.85707531    -0.00030845     0.00048013     0.00028035
H        -0.97363997     0.11784544    -0.52876787    -0.00095998     0.00011727    -0.00056664
     6
  Step:     3            Position(A)                                  Velocity(au)
C        -0.03939567     0.00325076     0.00441119     0.00009271     0.00004738    -0.00008374
N        -0.04997863    -0.05284525     1.30503617     0.00018093    -0.00013355     0.00010566
H         0.93883890     0.05169851    -0.49515517    -0.00041203    -0.00012278     0.00002286
H         0.85360129    -0.13331653     1.87233891    -0.00162173     0.00071964    -0.00032011
H        -0.86234792    -0.01115817     1.85902110    -0.00057036     0.00053024     0.00042425
H        -0.97906827     0.11861821    -0.53196853    -0.00101485     0.00016416    -0.00059734
     6
  Step:     4            Position(A)                                  Velocity(au)
C        -0.03887529     0.00350549     0.00363090     0.00009632     0.00004587    -0.00020113
N        -0.04892257    -0.05360678     1.30588755     0.00020308    -0.00014486     0.00020497
H         0.93658709     0.05112812    -0.49507065    -0.00040662    -0.00008533     0.00000587
H         0.84445423    -0.12925865     1.87035925    -0.00170580     0.00076294    -0.00039423
H        -0.86615637    -0.00812067     1.86171450    -0.00080951     0.00058063     0.00055148
H        -0.98473734     0.11964049    -0.53529974    -0.00104784     0.00020826    -0.00061466
     6
  Step:     5            Position(A)                                  Velocity(au)
C        -0.03834223     0.00375245     0.00221133     0.00009726     0.00004451    -0.00031665
N        -0.04775754    -0.05442966     1.30727795     0.00022019    -0.00015575     0.00030203
H         0.93439159     0.05076525    -0.49509094    -0.00039090    -0.00004704    -0.00001571
H         0.83494449    -0.12497202     1.86802715    -0.00175006     0.00080223    -0.00044660
H        -0.87120169    -0.00480763     1.86505276    -0.00101891     0.00062983     0.00065782
H        -0.99052872     0.12089599    -0.53869118    -0.00105894     0.00024906    -0.00061936
     6
  Step:     6            Position(A)                                  Velocity(au)
C        -0.03781100     0.00399252     0.00016577     0.00009551     0.00004327    -0.00042867
N        -0.04651305    -0.05531118     1.30919269     0.00023143    -0.00016594     0.00039548
H         0.93230950     0.05061337    -0.49524256    -0.00036447    -0.00000836    -0.00004223
H         0.82530342    -0.12047995     1.86547215    -0.00174856     0.00083645    -0.00047313
H        -0.87730622    -0.00122847     1.86891298    -0.00119263     0.00067624     0.00073997
H        -0.99632526     0.12236596    -0.54207735    -0.00104848     0.00028609    -0.00061228
     6
  Step:     7            Position(A)                                  Velocity(au)
C        -0.03729612     0.00422636    -0.00248372     0.00009112     0.00004212    -0.00053537
N        -0.04522284    -0.05624717     1.31160952     0.00023608    -0.00017515     0.00048373
H         0.93039966     0.05067366    -0.49555348    -0.00032721     0.00003024    -0.00007379
H         0.81579329    -0.11581076     1.86284513    -0.00169618     0.00086473    -0.00047025
H        -0.88426405     0.00259896     1.87315727    -0.00132608     0.00071827     0.00079568
H        -1.00201228     0.12402936    -0.54539725    -0.00101706     0.00031889    -0.00059418
     6
  Step:     8            Position(A)                                  Velocity(au)
C        -0.03681174     0.00445438    -0.00570532     0.00008420     0.00004099    -0.00063483
N        -0.04392405    -0.05723197     1.31449747     0.00023368    -0.00018311     0.00056505
H         0.92872113     0.05094497    -0.49605175    -0.00027934     0.00006828    -0.00011020
H         0.80670238    -0.11099696     1.86031519    -0.00158933     0.00088642    -0.00043531
H        -0.89184859     0.00664838     1.87763874    -0.00141628     0.00075440     0.00082393
H        -1.00747880     0.12586303    -0.54859337    -0.00096574     0.00034710    -0.00056585
     6
  Step:     9            Position(A)                                  Velocity(au)
C        -0.03637126     0.00467660    -0.00945700     0.00007495     0.00003982    -0.00072513
N        -0.04265593    -0.05825859     1.31781630     0.00022404    -0.00018960     0.00063775
H         0.92733122     0.05142364    -0.49676397    -0.00022151     0.00010526    -0.00015099
H         0.79833518    -0.10607378     1.85806345    -0.00142679     0.00090123    -0.00036716
H        -0.89982125     0.01088573     1.88220782    -0.00146198     0.00078333     0.00082492
H        -1.01262046     0.12784214    -0.55161282    -0.00089621     0.00037049    -0.00052843
     6
  Step:    10            Position(A)                                  Velocity(au)
C        -0.03598680     0.00489269    -0.01368664     0.00006367     0.00003856    -0.00080455
N        -0.04145811    -0.05931889     1.32151700     0.00020733    -0.00019446     0.00070037
H         0.92628298     0.05210349    -0.49771368    -0.00015489     0.00014069    -0.00019541
H         0.79099817    -0.10107740     1.85627399    -0.00121050     0.00090922    -0.00026665
H        -0.90794015     0.01527025     1.88671839    -0.00146373     0.00080402     0.00080001
H        -1.01734311     0.12994089    -0.55440965    -0.00081082     0.00038894    -0.00048342
     6
  Step:    11            Position(A)                                  Velocity(au)
C        -0.03566878     0.00510196    -0.01833311     0.00005075     0.00003713    -0.00087167
N        -0.04036855    -0.06040396     1.32554305     0.00018414    -0.00019759     0.00075180
H         0.92562241     0.05297583    -0.49891986    -0.00008111     0.00017413    -0.00024249
H         0.78498042    -0.09604292     1.85512160    -0.00094625     0.00091086    -0.00013706
H        -0.91596976     0.01975605     1.89103391    -0.00142392     0.00081584     0.00075169
H        -1.02156578     0.13213312    -0.55694610    -0.00071246     0.00040252    -0.00043252
     6
  Step:    12            Position(A)                                  Velocity(au)
C        -0.03542542     0.00530341    -0.02332818     0.00003664     0.00003551    -0.00092559
N        -0.03942131    -0.06150445     1.32983266     0.00015545    -0.00019900     0.00079149
H         0.92538578     0.05402957    -0.50039579    -0.00000228     0.00020518    -0.00029106
H         0.78053178    -0.09100241     1.85475792    -0.00064362     0.00090699     0.00001592
H        -0.92369004     0.02429422     1.89503282    -0.00134655     0.00081858     0.00068333
H        -1.02522357     0.13439311    -0.55919372    -0.00060445     0.00041144    -0.00037760
     6
  Step:    13            Position(A)                                  Velocity(au)
C        -0.03526237     0.00549584    -0.02859911     0.00002184     0.00003368    -0.00096598
N        -0.03864437    -0.06261110     1.33432170     0.00012259    -0.00019876     0.00081947
H         0.92559712     0.05525150    -0.50214812     0.00007919     0.00023352    -0.00033993
H         0.77784182    -0.08598327     1.85529818    -0.00031549     0.00089869     0.00018457
H        -0.93090476     0.02883517     1.89861292    -0.00123708     0.00081254     0.00059899
H        -1.02826988     0.13669646    -0.56113422    -0.00049040     0.00041610    -0.00032064
     6
  Step:    14            Position(A)                                  Velocity(au)
C        -0.03518249     0.00567795    -0.03407189     0.00000687     0.00003162    -0.00099318
N        -0.03805790    -0.06371514     1.33894692     0.00008709    -0.00019707     0.00083642
H         0.92626652     0.05662676    -0.50417655     0.00016070     0.00025898    -0.00038790
H         0.77702287    -0.08100711     1.85681078     0.00002317     0.00088724     0.00035988
H        -0.93744904     0.03333134     1.90169485    -0.00110209     0.00079851     0.00050317
H        -1.03067790     0.13902103    -0.56275995    -0.00037403     0.00041711    -0.00026360
     6
  Step:    15            Position(A)                                  Velocity(au)
C        -0.03518572     0.00584845    -0.03967473    -0.00000777     0.00002936    -0.00100823
N        -0.03767311    -0.06480881     1.34364924     0.00005063    -0.00019418     0.00084363
H         0.92738926     0.05813952    -0.50647384     0.00023973     0.00028154    -0.00043386
H         0.77810022    -0.07608906     1.85931150     0.00035681     0.00087400     0.00053255
H        -0.94319492     0.03773991     1.90422408    -0.00094875     0.00077778     0.00040044
H        -1.03244095     0.14134794    -0.56407378    -0.00025887     0.00041524    -0.00020831
     6
  Step:    16            Position(A)                                  Velocity(au)
C        -0.03526932     0.00600619    -0.04534194    -0.00003813     0.00004745    -0.00178343
N        -0.03749192    -0.06588574     1.34837703     0.00002602    -0.00033530     0.00148418
H         0.92894619     0.05977380    -0.50902628     0.00055281     0.00053064    -0.00083969
H         0.78101131    -0.07123753     1.86276360     0.00118154     0.00151487     0.00122209
H        -0.94805415     0.04202536     1.90617099    -0.00138095     0.00132412     0.00051966
H        -1.03357157     0.14366255    -0.56508842    -0.00026074     0.00072442    -0.00027537
     6
  Step:    17            Position(A)                                  Velocity(au)
C        -0.03551993     0.00625202    -0.05497274    -0.00002738     0.00002172    -0.00089310
N        -0.03744204    -0.06771227     1.35641341    -0.00000368    -0.00017123     0.00074769
H         0.93246635     0.06276492    -0.51412945     0.00037702     0.00029010    -0.00052750
H         0.78841693    -0.06297938     1.87003821     0.00077758     0.00077619     0.00073541
H        -0.95528479     0.04923607     1.90879967    -0.00064627     0.00067519     0.00022614
H        -1.03497366     0.14765549    -0.56680343    -0.00013087     0.00037918    -0.00018203
     6
  Step:    18            Position(A)                                  Velocity(au)
C        -0.03570761     0.00636663    -0.05996730    -0.00003853     0.00001897    -0.00087771
N        -0.03755562    -0.06866171     1.36058736    -0.00003502    -0.00016578     0.00073276
H         0.93475119     0.06444015    -0.51718785     0.00042940     0.00030362    -0.00055586
H         0.79351156    -0.05864614     1.87453032     0.00101102     0.00076279     0.00084797
H        -0.95840628     0.05293960     1.90976755    -0.00046392     0.00063925     0.00012011
H        -1.03541705     0.14977151    -0.56769223    -0.00003080     0.00037205    -0.00013598
     6
  Step:    19            Position(A)                                  Velocity(au)
C        -0.03595419     0.00646579    -0.06486562    -0.00004846     0.00001632    -0.00086376
N        -0.03783674    -0.06958079     1.36467246    -0.00006316    -0.00016131     0.00072022
H         0.93730619     0.06618715    -0.52039466     0.00047497     0.00031724    -0.00058301
H         0.79981234    -0.05438180     1.87959587     0.00120944     0.00075542     0.00094232
H        -0.96051369     0.05644120     1.91015348    -0.00028970     0.00060700     0.00002067
H        -1.03532077     0.15184898    -0.56833613     0.00006044     0.00036756    -0.00009583
     6
  Step:    20            Position(A)                                  Velocity(au)
C        -0.03625231     0.00655004    -0.06967653    -0.00005713     0.00001374    -0.00085171
N        -0.03826562    -0.07047496     1.36868315    -0.00008787    -0.00015782     0.00071055
H         0.94009018     0.06800616    -0.52374133     0.00051349     0.00033115    -0.00060894
H         0.80710649    -0.05015466     1.88512266     0.00137072     0.00075356     0.00101700
H        -0.96166267     0.05976274     1.90999990    -0.00012517     0.00057877    -0.00007145
H        -1.03473763     0.15390318    -0.56876943     0.00014279     0.00036598    -0.00006157
     6
  Step:    21            Position(A)                                  Velocity(au)
C        -0.03659448     0.00661974    -0.07441141    -0.00006445     0.00001118    -0.00084117
N        -0.03882157    -0.07134960     1.37263612    -0.00010892    -0.00015515     0.00070340
H         0.94306123     0.06989856    -0.52721952     0.00054432     0.00034521    -0.00063311
H         0.81517503    -0.04593608     1.89099415     0.00149284     0.00075599     0.00107053
H        -0.96191654     0.06292785     1.90935269     0.00002840     0.00055431    -0.00015555
H        -1.03372047     0.15595084    -0.56902619     0.00021601     0.00036724    -0.00003315
     6
  Step:    22            Position(A)                                  Velocity(au)
C        -0.03697277     0.00667504    -0.07907923    -0.00007030     0.00000861    -0.00083127
N        -0.03948311    -0.07220923     1.37654586    -0.00012607    -0.00015308     0.00069801
H         0.94617464     0.07186499    -0.53081833     0.00056659     0.00035909    -0.00065469
H         0.82379368    -0.04170416     1.89708924     0.00157409     0.00076117     0.00110167
H        -0.96134524     0.06595889     1.90826115     0.00016939     0.00053324    -0.00023069
H        -1.03232305     0.15800823    -0.56914004     0.00027959     0.00037108    -0.00001060
     6
  Step:    23            Position(A)                                  Velocity(au)
C        -0.03737866     0.00671584    -0.08368420    -0.00007452     0.00000600    -0.00082110
N        -0.04022794    -0.07305718     1.38042239    -0.00013914    -0.00015140     0.00069349
H         0.94938157     0.07390424    -0.53452261     0.00057945     0.00037237    -0.00067280
H         0.83273398    -0.03744526     1.90328334     0.00161358     0.00076760     0.00110979
H        -0.96002695     0.06887610     1.90677936     0.00029579     0.00051521    -0.00029568
H        -1.03060164     0.16009023    -0.56914446     0.00033276     0.00037722     0.00000599
     6
  Step:    24            Position(A)                                  Velocity(au)
C        -0.03780291     0.00674187    -0.08822550    -0.00007700     0.00000332    -0.00080990
N        -0.04103301    -0.07389566     1.38427069    -0.00014797    -0.00014994     0.00068904
H         0.95262915     0.07601285    -0.53831276     0.00058225     0.00038464    -0.00068671
H         0.84176748    -0.03315384     1.90945135     0.00161168     0.00077398     0.00109511
H        -0.95805044     0.07169787     1.90496751     0.00040525     0.00050008    -0.00034924
H        -1.02861636     0.16221010    -0.56907332     0.00037470     0.00038541     0.00001650
     6
  Step:    25            Position(A)                                  Velocity(au)
C        -0.03823569     0.00675274    -0.09269807    -0.00007765     0.00000055    -0.00079715
N        -0.04187483    -0.07472595     1.38809116    -0.00015253    -0.00014859     0.00068402
H         0.95586178     0.07818518    -0.54216544     0.00057471     0.00039559    -0.00069591
H         0.85067144    -0.02883120     1.91547155     0.00157016     0.00077931     0.00105874
H        -0.95551667     0.07444176     1.90289245     0.00049543     0.00048786    -0.00039013
H        -1.02643142     0.16437973    -0.56896085     0.00040466     0.00039548     0.00002084
     6
  Step:    26            Position(A)                                  Velocity(au)
C        -0.03866683     0.00674800    -0.09709398    -0.00007644    -0.00000230    -0.00078257
N        -0.04272996    -0.07554871     1.39188054    -0.00015288    -0.00014727     0.00067795
H         0.95902297     0.08041384    -0.54605488     0.00055694     0.00040497    -0.00070016
H         0.85923587    -0.02448388     1.92123013     0.00149205     0.00078290     0.00100259
H        -0.95253865     0.07712543     1.90062723     0.00056425     0.00047872    -0.00041734
H        -1.02411443     0.16660994    -0.56884148     0.00042217     0.00040731     0.00001902
     6
  Step:    27            Position(A)                                  Velocity(au)
C        -0.03908607     0.00672719    -0.10140368    -0.00007340    -0.00000523    -0.00076608
N        -0.04357557    -0.07636426     1.39563295    -0.00014920    -0.00014597     0.00067054
H         0.96205746     0.08269023    -0.54995436     0.00052941     0.00041266    -0.00069951
H         0.86726963    -0.02012189     1.92662480     0.00138142     0.00078437     0.00092915
H        -0.94923972     0.07976730     1.89824973     0.00061014     0.00047290    -0.00043023
H        -1.02173503     0.16891085    -0.56874922     0.00042707     0.00042083     0.00001119
     6
  Step:    28            Position(A)                                  Velocity(au)
C        -0.03948346     0.00668984    -0.10561725    -0.00006861    -0.00000824    -0.00074777
N        -0.04439000    -0.07717276     1.39934085    -0.00014178    -0.00014469     0.00066163
H         0.96491316     0.08500502    -0.55383757     0.00049292     0.00041861    -0.00069421
H         0.87460544    -0.01575710     1.93156777     0.00124312     0.00078359     0.00084135
H        -0.94575035     0.08238691     1.89584052     0.00063221     0.00047065    -0.00042857
H        -1.01936295     0.17129207    -0.56871693     0.00041955     0.00043601    -0.00000237
     6
  Step:    29            Position(A)                                  Velocity(au)
C        -0.03984959     0.00663554    -0.10972523    -0.00006220    -0.00001131    -0.00072786
N        -0.04515338    -0.07797446     1.40299592    -0.00013099    -0.00014347     0.00065121
H         0.96754288     0.08734872    -0.55767991     0.00044849     0.00042286    -0.00068471
H         0.88110369    -0.01140178     1.93598776     0.00108245     0.00078066     0.00074233
H        -0.94220416     0.08500487     1.89348042     0.00063038     0.00047215    -0.00041258
H        -1.01706607     0.17376295    -0.56877559     0.00040018     0.00045283    -0.00002125
     6
  Step:    30            Position(A)                                  Velocity(au)
C        -0.04017588     0.00656390    -0.11371933    -0.00005436    -0.00001445    -0.00070665
N        -0.04584809    -0.07876974     1.40658971    -0.00011727    -0.00014233     0.00063935
H         0.96990543     0.08971198    -0.56145927     0.00039732     0.00042548    -0.00067155
H         0.88665454    -0.00706739     1.93983087     0.00090484     0.00077586     0.00063524
H        -0.93873345     0.08764255     1.89124792     0.00060531     0.00047752    -0.00038295
H        -1.01490838     0.17633266    -0.56895345     0.00036987     0.00047130    -0.00004489
     6
  Step:    31            Position(A)                                  Velocity(au)
C        -0.04045477     0.00647462    -0.11759283    -0.00004527    -0.00001764    -0.00068444
N        -0.04645905    -0.07955918     1.41011424    -0.00010111    -0.00014134     0.00062617
H         0.97196653     0.09208595    -0.56515680     0.00034069     0.00042660    -0.00065540
H         0.89117796    -0.00276361     1.94306034     0.00071554     0.00076959     0.00052307
H        -0.93546483     0.09032150     1.88921674     0.00055846     0.00048674    -0.00034075
H        -1.01294803     0.17901024    -0.56927536     0.00032982     0.00049140    -0.00007262
     6
  Step:    32            Position(A)                                  Velocity(au)
C        -0.04067994     0.00636745    -0.12134076    -0.00003516    -0.00002087    -0.00066156
N        -0.04697403    -0.08034360     1.41356233    -0.00008304    -0.00014052     0.00061187
H         0.97369915     0.09446233    -0.56875738     0.00027991     0.00042632    -0.00063695
H         0.89462237     0.00150231     1.94565545     0.00051943     0.00076237     0.00040855
H        -0.93251477     0.09306261     1.88745355     0.00049206     0.00049960    -0.00028744
H        -1.01123571     0.18180455    -0.56976209     0.00028149     0.00051312    -0.00010367
     6
  Step:    33            Position(A)                                  Velocity(au)
C        -0.04084632     0.00624218    -0.12495994    -0.00002427    -0.00002413    -0.00063832
N        -0.04738375    -0.08112397     1.41692795    -0.00006358    -0.00013990     0.00059664
H         0.97508360     0.09683344    -0.57224977     0.00021626     0.00042474    -0.00061688
H         0.89696234     0.00572604     1.94760989     0.00032098     0.00075474     0.00029409
H        -0.92998534     0.09588506     1.88601583     0.00040898     0.00051569    -0.00022480
H        -1.00981337     0.18472432    -0.57042986     0.00022651     0.00053645    -0.00013721
     6
  Step:    34            Position(A)                                  Velocity(au)
C        -0.04095019     0.00609872    -0.12844878    -0.00001282    -0.00002741    -0.00061496
N        -0.04768203    -0.08190140     1.42020618    -0.00004330    -0.00013948     0.00058067
H         0.97610731     0.09919194    -0.57562662     0.00015096     0.00042186    -0.00059590
H         0.89819662     0.00990662     1.94893023     0.00012428     0.00074734     0.00018184
H        -0.92796065     0.09880507     1.88495026     0.00031267     0.00053435    -0.00015486
H        -1.00871337     0.18777815    -0.57128994     0.00016663     0.00056138    -0.00017232
     6
  Step:    35            Position(A)                                  Velocity(au)
C        -0.04098911     0.00593700    -0.13180695    -0.00000104    -0.00003070    -0.00059163
N        -0.04786586    -0.08267697     1.42339312    -0.00002277    -0.00013927     0.00056409
H         0.97676438     0.10153044    -0.57888450     0.00008514     0.00041760    -0.00057469
H         0.89834611     0.01404694     1.94963452    -0.00006688     0.00074093     0.00007372
H        -0.92650412     0.10183447     1.88429167     0.00020698     0.00055460    -0.00007975
H        -1.00795809     0.19097472    -0.57234845     0.00010361     0.00058798    -0.00020807
     6
  Step:    36            Position(A)                                  Velocity(au)
C        -0.04096182     0.00575702    -0.13503477     0.00001088    -0.00003398    -0.00056839
N        -0.04793549    -0.08345172     1.42648551    -0.00000257    -0.00013922     0.00054697
H         0.97705510     0.10384058    -0.58202403     0.00001984     0.00041161    -0.00055404
H         0.89745214     0.01815452     1.94975089    -0.00024898     0.00073647    -0.00002861
H        -0.92565659     0.10497885     1.88406247     0.00009604     0.00057508    -0.00000169
H        -1.00755996     0.19432342    -0.57360614     0.00003915     0.00061651    -0.00024349
     6
  Step:    37            Position(A)                                  Velocity(au)
C        -0.04086800     0.00555879    -0.13813271     0.00002285    -0.00003728    -0.00054516
N        -0.04789448    -0.08422644     1.42948041     0.00001668    -0.00013929     0.00052929
H         0.97698522     0.10611129    -0.58505052    -0.00004403     0.00040296    -0.00053499
H         0.89557512     0.02224328     1.94931614    -0.00041867     0.00073552    -0.00012374
H        -0.92543526     0.10823467     1.88427291    -0.00001595     0.00059355     0.00007732
H        -1.00752234     0.19783600    -0.57505827    -0.00002535     0.00064785    -0.00027757
     6
  Step:    38            Position(A)                                  Velocity(au)
C        -0.04070763     0.00534226    -0.14110041     0.00003500    -0.00004064    -0.00052134
N        -0.04774995    -0.08500154     1.43237453     0.00003424    -0.00013934     0.00051067
H         0.97656525     0.10832409    -0.58797651    -0.00010559     0.00038875    -0.00052002
H         0.89279390     0.02633816     1.94837406    -0.00057244     0.00074167    -0.00021077
H        -0.92583401     0.11158292     1.88492277    -0.00012501     0.00060509     0.00015599
H        -1.00784198     0.20153158    -0.57669446    -0.00008973     0.00068517    -0.00030943
     6
  Step:    39            Position(A)                                  Velocity(au)
C        -0.04047874     0.00510669    -0.14393174     0.00004880    -0.00004511    -0.00048621
N        -0.04751366    -0.08577639     1.43516085     0.00004864    -0.00013824     0.00048375
H         0.97581075     0.11043548    -0.59083494    -0.00015479     0.00035534    -0.00052934
H         0.88920760     0.03049319     1.94697160    -0.00070387     0.00076862    -0.00028960
H        -0.92682585     0.11496533     1.88600808    -0.00022999     0.00058728     0.00023864
H        -1.00852039     0.20545739    -0.57850023    -0.00016878     0.00074726    -0.00034831
     6
  Step:    40            Position(A)                                  Velocity(au)
C        -0.04016491     0.00484064    -0.14650730     0.00006032    -0.00005256    -0.00041534
N        -0.04720909    -0.08653882     1.43775403     0.00006159    -0.00013416     0.00043182
H         0.97484393     0.11227568    -0.59386299    -0.00014945     0.00033192    -0.00058805
H         0.88496647     0.03488563     1.94515358    -0.00080949     0.00078268    -0.00034858
H        -0.92839158     0.11811382     1.88757660    -0.00033261     0.00056201     0.00032189
H        -1.00971884     0.20984154    -0.58056789    -0.00028310     0.00081403    -0.00043677
     6
  Step:    41            Position(A)                                  Velocity(au)
C        -0.03980818     0.00452239    -0.14854909     0.00006652    -0.00006182    -0.00032061
N        -0.04682895    -0.08726787     1.43996142     0.00007440    -0.00012834     0.00036322
H         0.97414934     0.11412551    -0.59737237    -0.00009737     0.00034172    -0.00067218
H         0.88020842     0.03919434     1.94309641    -0.00089256     0.00076124    -0.00038387
H        -0.93052355     0.12121329     1.88958655    -0.00042655     0.00056098     0.00039459
H        -1.01166767     0.21450703    -0.58335589    -0.00041009     0.00085622    -0.00056566
     6
  Step:    42            Position(A)                                  Velocity(au)
C        -0.03942572     0.00415360    -0.15007010     0.00007020    -0.00007074    -0.00022897
N        -0.04638227    -0.08796502     1.44179042     0.00008512    -0.00012277     0.00029643
H         0.97376186     0.11607316    -0.60133269    -0.00004266     0.00036253    -0.00075103
H         0.87504770     0.04334510     1.94088778    -0.00095426     0.00073189    -0.00040448
H        -0.93313176     0.12434782     1.89196160    -0.00050294     0.00056933     0.00045397
H        -1.01427604     0.21935649    -0.58685387    -0.00051957     0.00088534    -0.00068941
     6
  Step:    43            Position(A)                                  Velocity(au)
C        -0.03902842     0.00373662    -0.15109238     0.00007203    -0.00007921    -0.00014128
N        -0.04588343    -0.08863161     1.44325410     0.00009310    -0.00011742     0.00023194
H         0.97367547     0.11815232    -0.60571455     0.00000966     0.00038830    -0.00082446
H         0.86960882     0.04732388     1.93860355    -0.00099318     0.00070116    -0.00041163
H        -0.93610999     0.12753726     1.89462908    -0.00055932     0.00057977     0.00050002
H        -1.01743888     0.22434103    -0.59101358    -0.00060926     0.00090634    -0.00080362
     6
  Step:    44            Position(A)                                  Velocity(au)
C        -0.03862598     0.00327416    -0.15163865     0.00007213    -0.00008717    -0.00005763
N        -0.04534863    -0.08926865     1.44436557     0.00009811    -0.00011222     0.00016973
H         0.97386915     0.12038430    -0.61048620     0.00005734     0.00041769    -0.00089172
H         0.86402093     0.05112971     1.93631766    -0.00100873     0.00067039    -0.00040551
H        -0.93934155     0.13078474     1.89751312    -0.00059417     0.00059037     0.00053214
H        -1.02104038     0.22941909    -0.59577602    -0.00067739     0.00091963    -0.00090680
     6