|===============================================================================
|
|  DFTB+ release 20.1
|
|  Copyright (C) 2006 - 2020  DFTB+ developers group
|
|===============================================================================
|
|  When publishing results obtained with DFTB+, please cite the following
|  reference:
|
|  * DFTB+, a software package for efficient approximate density functional
|    theory based atomistic simulations, J. Chem. Phys. 152, 124101 (2020).
|    [doi: 10.1063/1.5143190]
|
|  You should also cite additional publications crediting the parametrization
|  data you use. Please consult the documentation of the SK-files for the
|  references.
|
|===============================================================================

Reading input file 'dftb_in.hsd'
Parser version: 8

--------------------------------------------------------------------------------
Reading SK-files:
Done.


Processed input in HSD format written to 'dftb_pin.hsd'

Starting initialization...
--------------------------------------------------------------------------------
OpenMP threads:              1
Chosen random seed:          500802050
Mode:                        Static calculation
Self consistent charges:     Yes
SCC-tolerance:                 0.100000E-05
Max. scc iterations:                   1000
Shell resolved Hubbard:      No
Spin polarisation:           No
Nr. of up electrons:            16.000000
Nr. of down electrons:          16.000000
Periodic boundaries:         No
Electronic solver:           Relatively robust
Maximal SCC-cycles:                    1000
Initial charges:             Set automatically (system chrg:   0.100E+01)
Included shells:             C:  s, p
                             H:  s
                             N:  s, p
Spin coupling constants:     C   1(s)-1(s):  -0.455900E-01
                             C   1(s)-2(p):  -0.293000E-01
                             C   2(p)-1(s):  -0.293000E-01
                             C   2(p)-2(p):  -0.275500E-01
                             H   1(s)-1(s):  -0.792500E-01
                             N   1(s)-1(s):  -0.468700E-01
                             N   1(s)-2(p):  -0.317000E-01
                             N   2(p)-1(s):  -0.317000E-01
                             N   2(p)-2(p):  -0.307200E-01
Range separated hybrid:      Yes
  Screening parameter omega:   0.300000E+00
  Range separated algorithm:   MatrixBased
Extra options:
                             Mulliken analysis
                             Force calculation
Force type                   original
                             Eigenvector printing


REKS Calcuation:             Yes
SSR(2,2) Calcuation:         Yes
Energy Functional:           (PPS+OSS)/2
Number of Core Orbitals:                 15
Number of Active Orbitals:                2
Number of Basis:                         32
Number of States:                         2
State-Averaging Weight:          0.500000
                                 0.500000
State of Interest:                        1
Initial Guess:               Diagonalize H0 matrix
Newton-Raphson for FON opt:  Yes
NR max. Iterations:                      50
Level Shifting:              Yes
Shift Value:                     0.300000
W Scale Factor:              C  =    3.200000
                             H  =    3.200000
                             N  =    3.200000
Transition Dipole:           No
Gradient of Microstate:      No
CP-REKS Solver:              Preconditioned Conjugate-Gradient
CG max. Iterations:                     100
CG Tolerance:                  0.100000E-07
Memory for A and Hxc:        Direct Updating Without Saving
Non-Adiabatic Coupling:      Yes

--------------------------------------------------------------------------------

***  Geometry step: 0

  iSCC       reks energy        Diff energy         x_a       SCC error   
    1      -16.3521302117       0.0000000000     0.995709    1.23957184
    2      -16.3783113399      -0.0261811283     0.996777    0.06537717
    3      -16.3851068259      -0.0067954860     0.998568    0.03279905
    4      -16.3885078169      -0.0034009911     0.999383    0.02176356
    5      -16.3906048291      -0.0020970121     0.999722    0.01514827
    6      -16.3920397731      -0.0014349440     0.999866    0.01055286
    7      -16.3931104397      -0.0010706666     0.999931    0.00799045
    8      -16.3939697907      -0.0008593510     0.999963    0.00774836
    9      -16.3946994746      -0.0007296839     0.999979    0.00750339
   10      -16.3953450349      -0.0006455603     0.999987    0.00726028
   11      -16.3959333389      -0.0005883040     0.999992    0.00702289
   12      -16.3964811710      -0.0005478321     0.999995    0.00679311
   13      -16.3969994813      -0.0005183103     0.999997    0.00657095
   14      -16.3974955232      -0.0004960418     0.999998    0.00635497
   15      -16.3979739720      -0.0004784488     0.999999    0.00614269
   16      -16.3984375587      -0.0004635866     0.999999    0.00593110
   17      -16.3988874783      -0.0004499196     0.999999    0.00571704
   18      -16.3993237036      -0.0004362253     1.000000    0.00549761
   19      -16.3997452645      -0.0004215609     1.000000    0.00527048
   20      -16.4001505203      -0.0004052558     1.000000    0.00503410
   21      -16.4005374307      -0.0003869104     1.000000    0.00478789
   22      -16.4009038197      -0.0003663890     1.000000    0.00453225
   23      -16.4012476186      -0.0003437990     1.000000    0.00426856
   24      -16.4015670735      -0.0003194548     1.000000    0.00399904
   25      -16.4018609011      -0.0002938277     1.000000    0.00372648
   26      -16.4021283876      -0.0002674865     1.000000    0.00345409
   27      -16.4023694241      -0.0002410364     1.000000    0.00318517
   28      -16.4025844867      -0.0002150626     1.000000    0.00292288
   29      -16.4027745712      -0.0001900845     1.000000    0.00267008
   30      -16.4029410962      -0.0001665250     1.000000    0.00242912
   31      -16.4030857906      -0.0001446944     1.000000    0.00220184
   32      -16.4032105796      -0.0001247890     1.000000    0.00198947
   33      -16.4033174792      -0.0001068996     1.000000    0.00179273
   34      -16.4034085068      -0.0000910276     1.000000    0.00162058
   35      -16.4034856115      -0.0000771046     1.000000    0.00151548
   36      -16.4035506235      -0.0000650120     1.000000    0.00141065
   37      -16.4036052228      -0.0000545993     1.000000    0.00131381
   38      -16.4036509221      -0.0000456993     1.000000    0.00123740
   39      -16.4036890626      -0.0000381404     1.000000    0.00116100
   40      -16.4037208175      -0.0000317549     1.000000    0.00108561
   41      -16.4037472025      -0.0000263850     1.000000    0.00101200
   42      -16.4037690887      -0.0000218862     1.000000    0.00094081
   43      -16.4037872178      -0.0000181291     1.000000    0.00087248
   44      -16.4038022174      -0.0000149996     1.000000    0.00080734
   45      -16.4038146159      -0.0000123985     1.000000    0.00074559
   46      -16.4038248563      -0.0000102404     1.000000    0.00068736
   47      -16.4038333087      -0.0000084525     1.000000    0.00063266
   48      -16.4038402817      -0.0000069730     1.000000    0.00058149
   49      -16.4038460316      -0.0000057499     1.000000    0.00053378
   50      -16.4038507712      -0.0000047396     1.000000    0.00048942
   51      -16.4038546768      -0.0000039056     1.000000    0.00044828
   52      -16.4038578944      -0.0000032176     1.000000    0.00041021
   53      -16.4038605445      -0.0000026501     1.000000    0.00037506
   54      -16.4038627269      -0.0000021824     1.000000    0.00034266
   55      -16.4038645238      -0.0000017969     1.000000    0.00031285
   56      -16.4038660031      -0.0000014793     1.000000    0.00028545
   57      -16.4038672208      -0.0000012177     1.000000    0.00026030
   58      -16.4038682230      -0.0000010022     1.000000    0.00023724
   59      -16.4038690478      -0.0000008248     1.000000    0.00021613
   60      -16.4038697266      -0.0000006788     1.000000    0.00019682
   61      -16.4038702852      -0.0000005585     1.000000    0.00017916
   62      -16.4038707447      -0.0000004596     1.000000    0.00016303
   63      -16.4038711228      -0.0000003781     1.000000    0.00014830
   64      -16.4038714339      -0.0000003111     1.000000    0.00013487
   65      -16.4038716898      -0.0000002559     1.000000    0.00012262
   66      -16.4038719004      -0.0000002105     1.000000    0.00011145
   67      -16.4038720736      -0.0000001732     1.000000    0.00010129
   68      -16.4038722160      -0.0000001425     1.000000    0.00009203
   69      -16.4038723332      -0.0000001172     1.000000    0.00008360
   70      -16.4038724296      -0.0000000964     1.000000    0.00007593
   71      -16.4038725088      -0.0000000793     1.000000    0.00006896
   72      -16.4038725740      -0.0000000652     1.000000    0.00006261
   73      -16.4038726277      -0.0000000536     1.000000    0.00005685
   74      -16.4038726718      -0.0000000441     1.000000    0.00005161
   75      -16.4038727080      -0.0000000363     1.000000    0.00004684
   76      -16.4038727379      -0.0000000298     1.000000    0.00004252
   77      -16.4038727624      -0.0000000245     1.000000    0.00003859
   78      -16.4038727826      -0.0000000202     1.000000    0.00003502
   79      -16.4038727991      -0.0000000166     1.000000    0.00003177
   80      -16.4038728128      -0.0000000136     1.000000    0.00002883
   81      -16.4038728240      -0.0000000112     1.000000    0.00002616
   82      -16.4038728332      -0.0000000092     1.000000    0.00002373
   83      -16.4038728408      -0.0000000076     1.000000    0.00002153
   84      -16.4038728471      -0.0000000062     1.000000    0.00001953
   85      -16.4038728522      -0.0000000051     1.000000    0.00001772
   86      -16.4038728564      -0.0000000042     1.000000    0.00001607
   87      -16.4038728599      -0.0000000035     1.000000    0.00001458
   88      -16.4038728627      -0.0000000029     1.000000    0.00001322
   89      -16.4038728651      -0.0000000023     1.000000    0.00001199
   90      -16.4038728670      -0.0000000019     1.000000    0.00001088
   91      -16.4038728686      -0.0000000016     1.000000    0.00000987
   92      -16.4038728699      -0.0000000013     1.000000    0.00000895
   93      -16.4038728710      -0.0000000011     1.000000    0.00000812
   94      -16.4038728718      -0.0000000009     1.000000    0.00000736
   95      -16.4038728726      -0.0000000007     1.000000    0.00000668
   96      -16.4038728732      -0.0000000006     1.000000    0.00000605
   97      -16.4038728737      -0.0000000005     1.000000    0.00000549
   98      -16.4038728741      -0.0000000004     1.000000    0.00000498
   99      -16.4038728744      -0.0000000003     1.000000    0.00000452
  100      -16.4038728747      -0.0000000003     1.000000    0.00000409
  101      -16.4038728749      -0.0000000002     1.000000    0.00000371
  102      -16.4038728751      -0.0000000002     1.000000    0.00000337
  103      -16.4038728752      -0.0000000002     1.000000    0.00000305
  104      -16.4038728753      -0.0000000001     1.000000    0.00000277
  105      -16.4038728754      -0.0000000001     1.000000    0.00000251
  106      -16.4038728755      -0.0000000001     1.000000    0.00000228
  107      -16.4038728756      -0.0000000001     1.000000    0.00000207
  108      -16.4038728757      -0.0000000001     1.000000    0.00000187
  109      -16.4038728757      -0.0000000000     1.000000    0.00000170
  110      -16.4038728757      -0.0000000000     1.000000    0.00000154
  111      -16.4038728758      -0.0000000000     1.000000    0.00000140
  112      -16.4038728758      -0.0000000000     1.000000    0.00000127
  113      -16.4038728758      -0.0000000000     1.000000    0.00000115
  114      -16.4038728758      -0.0000000000     1.000000    0.00000104
  115      -16.4038728759      -0.0000000000     1.000000    0.00000094
  
--------------------------------------------------
 Final SA-REKS(2,2) energy:     -16.40387288
  
 State     Energy      FON(1)    FON(2)   Spin
  PPS  -16.48584385   2.000000  0.000000  0.00
  OSS  -16.32190190   1.000000  1.000000  0.00
 Trip  -16.33016262   1.000000  1.000000  1.00
--------------------------------------------------

 Lagrangian Wab:  -0.00270524 -0.00270519

--------------------------------------------------
 SSR: 2SI-2SA-REKS(2,2) Hamiltonian matrix
               PPS           OSS
   PPS   -16.48584385   -0.00382578
   OSS    -0.00382578  -16.32190190
--------------------------------------------------

----------------------------------------------------------------
 SSR: 2SI-2SA-REKS(2,2) states
                    E_n       C_{PPS}    C_{OSS}
 SSR state  1  -16.48593308  -0.999728  -0.023317
 SSR state  2  -16.32181267   0.023317  -0.999728
----------------------------------------------------------------

 unrelaxed SSR FONs for S0:  1.999456  0.000544

Total Energy:                      -16.4859330837 H         -448.6051 eV
Extrapolated to 0:                 -16.4859330837 H         -448.6051 eV

----------------------------------------------------------------------------------
 Solving CP-REKS equation for  1 state vector...
----------------------------------------------------------------------------------
  CG solver: Constructing Y initial guess
  CG solver: Iteration    1    eps =    0.000102463264
  CG solver: Iteration    2    eps =    0.000009321599
  CG solver: Iteration    3    eps =    0.000004565921
  CG solver: Iteration    4    eps =    0.000000510292
  CG solver: Iteration    5    eps =    0.000000181567
  CG solver: Iteration    6    eps =    0.000000032190
  CG solver: Iteration    7    eps =    0.000000003842
  Convergence reached in CG solver after    7 iterations
  CG solver: Calculating converged R, Z, Q2 matrix
----------------------------------------------------------------------------------

----------------------------------------------------------------------------------
 Solving CP-REKS equation for SI between  1 and  2 state vectors...
----------------------------------------------------------------------------------
  CG solver: Constructing Y initial guess
  CG solver: Iteration    1    eps =    0.000713843614
  CG solver: Iteration    2    eps =    0.000330006025
  CG solver: Iteration    3    eps =    0.000108273108
  CG solver: Iteration    4    eps =    0.000010726020
  CG solver: Iteration    5    eps =    0.000003856720
  CG solver: Iteration    6    eps =    0.000000757692
  CG solver: Iteration    7    eps =    0.000000076839
  CG solver: Iteration    8    eps =    0.000000017854
  CG solver: Iteration    9    eps =    0.000000002236
  Convergence reached in CG solver after    9 iterations
  CG solver: Calculating converged R, Z, Q2 matrix
----------------------------------------------------------------------------------

--------------------------------------------------
 Gradient Information
--------------------------------------------------
           1 st state (SSR)
    -0.09980382    -0.04803538    -0.00469242
     0.05068502     0.00516818    -0.00955695
     0.02649791    -0.01298527     0.02677571
     0.02038158     0.02874373    -0.01418066
    -0.01552617    -0.00872972     0.02212652
     0.06880223    -0.00461685     0.01624257
     0.02533539     0.05670130    -0.07044002
    -0.01970405     0.04459090    -0.01987640
    -0.00762176    -0.02594607     0.03281283
     0.03357376    -0.05615047    -0.03706913
     0.00969115     0.02120008     0.00127790
    -0.08079328     0.01531530     0.06071144
     0.00977506     0.02950771     0.00854587
    -0.02129303    -0.04476344    -0.01267727

           2 st state (SSR)
    -0.06481543    -0.04446346     0.00623688
    -0.00191232    -0.02352075    -0.02102243
     0.02797862    -0.01575021     0.02408241
     0.02107486     0.03152588    -0.01177216
    -0.01486171    -0.00713540     0.02135047
     0.12465403     0.02135164     0.04148604
    -0.01211017     0.04368079    -0.09783958
    -0.01831717     0.04439641    -0.01894169
    -0.00742015    -0.00826521     0.03306044
     0.20163547    -0.06297071    -0.16662456
     0.01616690     0.02362069     0.00730339
    -0.26382896     0.01530028     0.19072935
     0.01574622     0.03559867     0.00869925
    -0.02399019    -0.05336861    -0.01674781
--------------------------------------------------
 Coupling Information
--------------------------------------------------
 between  1 and  2 states
--------------------------------------------------
 g vector - difference gradient
    -0.01751921    -0.00176510    -0.00545535
     0.02633606     0.01449007     0.00583522
    -0.00074858     0.00139319     0.00136344
    -0.00033148    -0.00141084    -0.00124163
    -0.00033134    -0.00079795     0.00037708
    -0.02860664    -0.01313582    -0.01289887
     0.01958605     0.00629909     0.01372276
    -0.00070734     0.00012035    -0.00042850
    -0.00014461    -0.00868402    -0.00017783
    -0.08344386     0.00337974     0.06453813
    -0.00326243    -0.00112587    -0.00307969
     0.09080591    -0.00000299    -0.06450485
    -0.00296756    -0.00302759    -0.00007577
     0.00133503     0.00426775     0.00202585

 h vector - derivative coupling
     0.00012798    -0.00048856    -0.00032653
    -0.00018777    -0.00278511    -0.00206213
     0.00015898    -0.00019733    -0.00032837
    -0.00033294     0.00039107     0.00077279
    -0.00002692    -0.00000173     0.00024348
     0.01393430     0.00294480     0.00564343
    -0.01805968     0.00467630    -0.00017275
     0.00028176    -0.00049279    -0.00084333
     0.00093625    -0.00355739     0.00115467
    -0.01453679     0.00073055     0.00664411
     0.00045053    -0.00183739     0.00136404
     0.01738815     0.00022503    -0.01231706
    -0.00045575    -0.00045425    -0.00002158
     0.00032189     0.00084682     0.00024924

 G vector - GDV
    -0.01749420    -0.00178596    -0.00546465
     0.02629867     0.01434446     0.00573274
    -0.00074035     0.00138247     0.00134665
    -0.00034664    -0.00139107    -0.00120425
    -0.00033223    -0.00079716     0.00038803
    -0.02792590    -0.01298424    -0.01262173
     0.01872278     0.00651026     0.01369978
    -0.00069344     0.00009725    -0.00046736
    -0.00010081    -0.00884043    -0.00012380
    -0.08403085     0.00341012     0.06477772
    -0.00323788    -0.00121031    -0.00301274
     0.09151784     0.00000751    -0.06500895
    -0.00298558    -0.00304548    -0.00007669
     0.00134858     0.00430259     0.00203527

 H vector - DCV - non-adiabatic coupling
     0.00575565    -0.00247219    -0.00043771
    -0.00862413    -0.02106764    -0.01420871
     0.00118029    -0.00159682    -0.00238592
    -0.00193225     0.00278101     0.00505625
    -0.00006971     0.00021612     0.00137480
     0.09293688     0.02165487     0.03801272
    -0.11548333     0.02667272    -0.00494964
     0.00191587    -0.00303354    -0.00501120
     0.00573954    -0.01918505     0.00707838
    -0.06477374     0.00348638     0.02210577
     0.00366887    -0.01086339     0.00917699
     0.08003708     0.00137049    -0.05664345
    -0.00193093    -0.00190475    -0.00010981
     0.00157992     0.00394180     0.00094152
--------------------------------------------------


--------------------------------------------------------------------------------
DFTB+ running times                          cpu [s]             wall clock [s]
--------------------------------------------------------------------------------
SCC                                    +     0.16  ( 39.2%)      0.17  ( 39.5%)
      Dense to sparse                        0.03  (  7.2%)      0.03  (  6.7%)
      Range separated Hamiltonian            0.01  (  3.5%)      0.01  (  3.3%)
  Density matrix creation                    0.02  (  4.3%)      0.02  (  3.6%)
Post-SCC processing                    +     0.25  ( 60.4%)      0.25  ( 59.8%)
  Force calculation                          0.25  ( 60.4%)      0.25  ( 59.6%)
--------------------------------------------------------------------------------
Missing                                +     0.00  (  0.4%)      0.00  (  0.7%)
Total                                  =     0.41  (100.0%)      0.42  (100.0%)
--------------------------------------------------------------------------------
