 Fermi distribution function

Calculation with static geometry


********************************************************************************
 iSCC Total electronic   Diff electronic      SCC error    
   10   -0.54129944E+01   -0.78159701E-13    0.72216935E-07
********************************************************************************

 Total charge:     1.00000000

 Atomic gross charges (e)
 Atom           Charge
    1       0.25456784
    2      -0.14127051
    3       0.16227606
    4       0.28971802
    5       0.28302102
    6       0.15168758

Nr. of electrons (up):     12.00000000
Atom populations (up)
 Atom       Population
    1       3.74543216
    2       5.14127051
    3       0.83772394
    4       0.71028198
    5       0.71697898
    6       0.84831242

l-shell populations (up)
 Atom Sh.   l       Population
    1   1   0       1.29843110
    1   2   1       2.44700106
    2   1   0       1.41015361
    2   2   1       3.73111690
    3   1   0       0.83772394
    4   1   0       0.71028198
    5   1   0       0.71697898
    6   1   0       0.84831242

Orbital populations (up)
 Atom Sh.   l   m       Population  Label
    1   1   0   0       1.29843110  s
    1   2   1  -1       0.58547901  p_y
    1   2   1   0       0.88458458  p_z
    1   2   1   1       0.97693747  p_x
    2   1   0   0       1.41015361  s
    2   2   1  -1       1.38566851  p_y
    2   2   1   0       1.07320296  p_z
    2   2   1   1       1.27224543  p_x
    3   1   0   0       0.83772394  s
    4   1   0   0       0.71028198  s
    5   1   0   0       0.71697898  s
    6   1   0   0       0.84831242  s

Fermi level:                        -0.4827718819 H          -13.1369 eV
Band energy:                        -8.8861075802 H         -241.8033 eV
TS:                                  0.0000000000 H            0.0000 eV
Band free energy (E-TS):            -8.8861075802 H         -241.8033 eV
Extrapolated E(0K):                 -8.8861075802 H         -241.8033 eV
Input / Output electrons (q):     12.0000000000     12.0000000000

Energy H0:                          -5.5449999728 H         -150.8871 eV
Energy SCC:                          0.1320055641 H            3.5921 eV
Total Electronic energy:            -5.4129944086 H         -147.2951 eV
Repulsive energy:                    0.1968805760 H            5.3574 eV
Total energy:                       -5.2161138327 H         -141.9377 eV
Extrapolated to 0:                  -5.2161138327 H         -141.9377 eV
Total Mermin free energy:           -5.2161138327 H         -141.9377 eV
Force related energy:               -5.2161138327 H         -141.9377 eV

SCC converged

Excitation Energy:                   0.1186630199 H            3.2290 eV

Total Forces
    1      0.003745786080     -0.006720887908      0.017630125970
    2      0.000606756158      0.006450769599     -0.027738698769
    3     -0.008588571942     -0.010434480202      0.004345270405
    4     -0.007427879018      0.010933304652      0.002984347247
    5      0.007311567707     -0.012254108314     -0.002709354539
    6      0.004352341015      0.012025402173      0.005488309685

Maximal derivative component:        0.277387E-01 au


