     6
  Step:     0            Position(A)                                  Velocity(au)
C        -0.03242516     0.02142742     0.03729398    -0.00008643    -0.00005534     0.00021568
N        -0.04148457    -0.04555371     1.28411476    -0.00014277     0.00009654    -0.00023119
H         0.89592092    -0.06551206    -0.54064199    -0.00044063     0.00011385     0.00076249
H         0.81044172    -0.14989652     1.85501666     0.00055790    -0.00061278     0.00116692
H        -0.94237212    -0.12005416     1.84084581     0.00243984    -0.00022978    -0.00079985
H        -1.01406414     0.04338410    -0.55208672     0.00045676     0.00004661    -0.00048686
     6
  Step:     1            Position(A)                                  Velocity(au)
C        -0.03292359     0.02117800     0.03802825    -0.00009597    -0.00003579     0.00005193
N        -0.04229003    -0.04502833     1.28323229    -0.00014899     0.00009553    -0.00009062
H         0.89375902    -0.06508626    -0.53645019    -0.00034414     0.00004140     0.00076562
H         0.81364403    -0.15338304     1.86136782     0.00059897    -0.00065975     0.00114370
H        -0.92887505    -0.12143596     1.83627363     0.00246867    -0.00027738    -0.00085793
H        -1.01146938     0.04349800    -0.55454369     0.00049052    -0.00000520    -0.00041091
     6
  Step:     2            Position(A)                                  Velocity(au)
C        -0.03347524     0.02103575     0.03786221    -0.00010564    -0.00001617    -0.00011249
N        -0.04311487    -0.04450845     1.28312324    -0.00014956     0.00009451     0.00005061
H         0.89215538    -0.06505902    -0.53226461    -0.00023746    -0.00003176     0.00075919
H         0.81699566    -0.15711556     1.86753099     0.00061270    -0.00070209     0.00109783
H        -0.91535996    -0.12308926     1.83145833     0.00244086    -0.00032916    -0.00088536
H        -1.00869689     0.04332717    -0.55658291     0.00052098    -0.00005758    -0.00033446
     6
  Step:     3            Position(A)                                  Velocity(au)
C        -0.03408021     0.02100093     0.03679660    -0.00011516     0.00000340    -0.00027552
N        -0.04392757    -0.04399356     1.28378642    -0.00014431     0.00009366     0.00019036
H         0.89115909    -0.06543401    -0.52813777    -0.00012349    -0.00010527     0.00074331
H         0.82035253    -0.16107025     1.87338796     0.00060129    -0.00074015     0.00103166
H        -0.90214995    -0.12503991     1.82657975     0.00235201    -0.00038597    -0.00087789
H        -1.00576517     0.04286757    -0.55820567     0.00054779    -0.00011065    -0.00025919
     6
  Step:     4            Position(A)                                  Velocity(au)
C        -0.03473701     0.02107298     0.03484348    -0.00012422     0.00002274    -0.00043498
N        -0.04469597    -0.04348222     1.28520889    -0.00013317     0.00009313     0.00032642
H         0.89080238    -0.06621239    -0.52412056    -0.00000544    -0.00017847     0.00071831
H         0.82358371    -0.16522504     1.87883440     0.00056725    -0.00077401     0.00094775
H        -0.88959013    -0.12731820     1.82183972     0.00219861    -0.00044837    -0.00083195
H        -1.00269503     0.04211479    -0.55942270     0.00057030    -0.00016433    -0.00018684
     6
  Step:     5            Position(A)                                  Velocity(au)
C        -0.03544233     0.02125032     0.03202677    -0.00013243     0.00004163    -0.00058847
N        -0.04538786    -0.04297231     1.28736579    -0.00011623     0.00009298     0.00045647
H         0.89109941    -0.06739104    -0.52026103     0.00011330    -0.00025034     0.00068475
H         0.82657286    -0.16955783     1.88378072     0.00051338    -0.00080338     0.00084882
H        -0.87804065    -0.12995663     1.81745688     0.00197902    -0.00051635    -0.00074531
H        -0.99951144     0.04106562    -0.56025451     0.00058746    -0.00021815    -0.00011923
     6
  Step:     6            Position(A)                                  Velocity(au)
C        -0.03619080     0.02153001     0.02838333    -0.00013940     0.00005977    -0.00073334
N        -0.04597189    -0.04246146     1.29021995    -0.00009380     0.00009322     0.00057812
H         0.89204617    -0.06896055    -0.51660354     0.00022942    -0.00031948     0.00064335
H         0.82921945    -0.17404439     1.88815252     0.00044271    -0.00082761     0.00073772
H        -0.86786485    -0.13298656     1.81365789     0.00169462    -0.00058918    -0.00061791
H        -0.99624605     0.03972001    -0.56073162     0.00059772    -0.00027130    -0.00005824
     6
  Step:     7            Position(A)                                  Velocity(au)
C        -0.03697485     0.02190738     0.02396451    -0.00014471     0.00007679    -0.00086662
N        -0.04641903    -0.04194748     1.29372150    -0.00006650     0.00009376     0.00068886
H         0.89362160    -0.07090337    -0.51318818     0.00033983    -0.00038425     0.00059495
H         0.83143995    -0.17865641     1.89189104     0.00035861    -0.00084577     0.00061746
H        -0.85941031    -0.13643399     1.81066364     0.00135085    -0.00066535    -0.00045262
H        -0.99294017     0.03808305    -0.56089479     0.00059906    -0.00032263    -0.00000573
     6
  Step:     8            Position(A)                                  Velocity(au)
C        -0.03778471     0.02237584     0.01883764    -0.00014795     0.00009233    -0.00098513
N        -0.04670433    -0.04142867     1.29780769    -0.00003531     0.00009449     0.00078627
H         0.89578938    -0.07319296    -0.51005028     0.00044181    -0.00044292     0.00054052
H         0.83316950    -0.18336041     1.89495371     0.00026483    -0.00085689     0.00049125
H        -0.85298543    -0.14031523     1.80867233     0.00095791    -0.00074255    -0.00025560
H        -0.98964751     0.03616629    -0.56079479     0.00058908    -0.00037086     0.00003650
     6
  Step:     9            Position(A)                                  Velocity(au)
C        -0.03860842     0.02292682     0.01308707    -0.00014875     0.00010602    -0.00108574
N        -0.04680892    -0.04090416     1.30240316    -0.00000160     0.00009524     0.00086810
H         0.89849990    -0.07579388    -0.50721998     0.00053295    -0.00049392     0.00048117
H         0.83436408    -0.18811788     1.89731527     0.00016556    -0.00086021     0.00036262
H        -0.84883352    -0.14463295     1.80784136     0.00053089    -0.00081788    -0.00003636
H        -0.98643584     0.03398818    -0.56049172     0.00056536    -0.00041471     0.00006693
     6
  Step:    10            Position(A)                                  Velocity(au)
C        -0.03943208     0.02354991     0.00681372    -0.00014684     0.00011756    -0.00116572
N        -0.04672204    -0.04037398     1.30742135     0.00003295     0.00009583     0.00093262
H         0.90169151    -0.07866290    -0.50472159     0.00061117    -0.00053602     0.00041817
H         0.83500302    -0.19288675     1.89896953     0.00006542    -0.00085540     0.00023538
H        -0.84710607    -0.14937283     1.80826971     0.00008933    -0.00088800     0.00019287
H        -0.98338642     0.03157355    -0.56005355     0.00052599    -0.00045315     0.00008442
     6
  Step:    11            Position(A)                                  Velocity(au)
C        -0.04024031     0.02423326     0.00013236    -0.00014207     0.00012677    -0.00122337
N        -0.04644275    -0.03983917     1.31276739     0.00006645     0.00009612     0.00097900
H         0.90529185    -0.08175067    -0.50257287     0.00067486    -0.00056843     0.00035295
H         0.83509113    -0.19762392     1.89993106    -0.00003078    -0.00084281     0.00011355
H        -0.84784081    -0.15450130     1.80998473    -0.00034459    -0.00094953     0.00041835
H        -0.98059048     0.02895231    -0.55955358     0.00046998    -0.00048550     0.00008844
     6
  Step:    12            Position(A)                                  Velocity(au)
C        -0.04101699     0.02496411    -0.00683384    -0.00013448     0.00013361    -0.00125844
N        -0.04598072    -0.03930170     1.31834276     0.00009706     0.00009599     0.00100757
H         0.90922005    -0.08500420    -0.50078421     0.00072315    -0.00059107     0.00028706
H         0.83465960    -0.20228891     1.90023628    -0.00011843    -0.00082365     0.00000103
H        -0.85095025    -0.15996552     1.81293668    -0.00074873    -0.00099962     0.00062675
H        -0.97814341     0.02615744    -0.55906692     0.00039764    -0.00051165     0.00007923
     6
  Step:    13            Position(A)                                  Velocity(au)
C        -0.04174642     0.02572963    -0.01396137    -0.00012435     0.00013825    -0.00127262
N        -0.04535569    -0.03876417     1.32405159     0.00012325     0.00009542     0.00102015
H         0.91339071    -0.08837026    -0.49935800     0.00075628    -0.00060463     0.00022204
H         0.83376482    -0.20684829     1.89994263    -0.00019355    -0.00080003    -0.00009886
H        -0.85622612    -0.16569643     1.81700389    -0.00110437    -0.00103659     0.00080721
H        -0.97613721     0.02322213    -0.55866627     0.00031057    -0.00053219     0.00005776
     6
  Step:    14            Position(A)                                  Velocity(au)
C        -0.04241452     0.02651795    -0.02113678    -0.00011213     0.00014107    -0.00126950
N        -0.04459549    -0.03822927     1.32980830     0.00014402     0.00009450     0.00101995
H         0.91771992    -0.09179961    -0.49828868     0.00077572    -0.00061064     0.00015921
H         0.83248430    -0.21128041     1.89912515    -0.00025332    -0.00077480    -0.00018388
H        -0.86336226    -0.17161574     1.82200895    -0.00139910    -0.00106033     0.00095301
H        -0.97465286     0.02017619    -0.55841772     0.00021142    -0.00054841     0.00002562
     6
  Step:    15            Position(A)                                  Velocity(au)
C        -0.04300994     0.02731928    -0.02826713    -0.00009837     0.00014257    -0.00125397
N        -0.04373276    -0.03769924     1.33554514     0.00015899     0.00009340     0.00101101
H         0.92213210    -0.09525146    -0.49756389     0.00078388    -0.00061120     0.00009943
H         0.83091018    -0.21557936     1.89787052    -0.00029622    -0.00075117    -0.00025305
H        -0.87199231    -0.17764509     1.82774315    -0.00162797    -0.00107223     0.00106199
H        -0.97375477     0.01704221    -0.55837752     0.00010314    -0.00056215    -0.00001532
     6
  Step:    16            Position(A)                                  Velocity(au)
C        -0.04352455     0.02812665    -0.03528657    -0.00012821     0.00021974    -0.00188779
N        -0.04280146    -0.03717533     1.34121653     0.00025805     0.00014157     0.00152950
H         0.92656517    -0.09869637    -0.49716671     0.00120150    -0.00093309     0.00006597
H         0.82914180    -0.21975660     1.89626974    -0.00049347    -0.00112266    -0.00047008
H        -0.88173226    -0.18371475     1.83399241    -0.00274856    -0.00164770     0.00174162
H        -0.97348907     0.01383285    -0.55859057    -0.00001770    -0.00088237    -0.00009692
     6
  Step:    17            Position(A)                                  Velocity(au)
C        -0.04421518     0.02933725    -0.04549185    -0.00011444     0.00020623    -0.00170204
N        -0.04133670    -0.03639384     1.34952584     0.00025335     0.00013342     0.00139373
H         0.93356435    -0.10390615    -0.49727110     0.00125294    -0.00090022    -0.00009350
H         0.82636692    -0.22584119     1.89361023    -0.00047017    -0.00102267    -0.00045474
H        -0.89748330    -0.19286228     1.84394257    -0.00274746    -0.00156529     0.00173179
H        -0.97408782     0.00898939    -0.55963916    -0.00019241    -0.00082327    -0.00026960
     6
  Step:    18            Position(A)                                  Velocity(au)
C        -0.04482673     0.03047334    -0.05465431    -0.00006049     0.00011643    -0.00091579
N        -0.03991853    -0.03565714     1.35707590     0.00014570     0.00007567     0.00075989
H         0.94082252    -0.10894007    -0.49823062     0.00077674    -0.00052392    -0.00014092
H         0.82379174    -0.23139370     1.89109517    -0.00025539    -0.00056268    -0.00025305
H        -0.91299595    -0.20152635     1.85369863    -0.00160681    -0.00088915     0.00100924
H        -0.97567849     0.00446482    -0.56165836    -0.00021843    -0.00046321    -0.00026238
     6
  Step:    19            Position(A)                                  Velocity(au)
C        -0.04511543     0.03113094    -0.05974507    -0.00004202     0.00011680    -0.00089011
N        -0.03911945    -0.03523169     1.36132449     0.00013615     0.00007532     0.00074735
H         0.94510431    -0.11186867    -0.49913816     0.00073927    -0.00051450    -0.00017908
H         0.82244065    -0.23458966     1.88963771    -0.00021791    -0.00057388    -0.00025897
H        -0.92200058    -0.20647437     1.85932126    -0.00156949    -0.00086358     0.00097661
H        -0.97726873     0.00178914    -0.56329405    -0.00034309    -0.00048639    -0.00031740
     6
  Step:    20            Position(A)                                  Velocity(au)
C        -0.04530019     0.03178932    -0.06468346    -0.00002398     0.00011779    -0.00086979
N        -0.03838453    -0.03480853     1.36549654     0.00012430     0.00007555     0.00073947
H         0.94915214    -0.11473713    -0.50024840     0.00070057    -0.00050727    -0.00021500
H         0.82133643    -0.23785985     1.88817722    -0.00017010    -0.00059422    -0.00025704
H        -0.93067997    -0.21125661     1.86470246    -0.00150779    -0.00083829     0.00093360
H        -0.97954416    -0.00101556    -0.56523459    -0.00046432    -0.00051357    -0.00037305
     6
  Step:    21            Position(A)                                  Velocity(au)
C        -0.04538438     0.03245197    -0.06950024    -0.00000636     0.00011899    -0.00085162
N        -0.03772532    -0.03438440     1.36961809     0.00011001     0.00007609     0.00073343
H         0.95296158    -0.11755801    -0.50154948     0.00065840    -0.00050040    -0.00024866
H         0.82053293    -0.24125414     1.88675488    -0.00011221    -0.00062134    -0.00024738
H        -0.93891126    -0.21587627     1.86979207    -0.00142018    -0.00081048     0.00087897
H        -0.98247630    -0.00397082    -0.56747804    -0.00057901    -0.00054297    -0.00042693
     6
  Step:    22            Position(A)                                  Velocity(au)
C        -0.04537132     0.03312014    -0.07420845     0.00001067     0.00012012    -0.00083359
N        -0.03715410    -0.03395754     1.37369959     0.00009338     0.00007675     0.00072735
H         0.95651604    -0.12033386    -0.50302949     0.00061170    -0.00049273    -0.00027995
H         0.82008145    -0.24480922     1.88541044    -0.00004546    -0.00065338    -0.00023058
H        -0.94656398    -0.22032145     1.87453336    -0.00130730    -0.00077863     0.00081288
H        -0.98602009    -0.00708840    -0.57000965    -0.00068375    -0.00057319    -0.00047677
     6
  Step:    23            Position(A)                                  Velocity(au)
C        -0.04526524     0.03379350    -0.07880997     0.00002685     0.00012101    -0.00081462
N        -0.03668241    -0.03352721     1.37774132     0.00007475     0.00007743     0.00072017
H         0.95979322    -0.12306093    -0.50467597     0.00056034    -0.00048367    -0.00030880
H         0.82002521    -0.24855117     1.88417968     0.00002811    -0.00068882    -0.00020774
H        -0.95351150    -0.22457223     1.87887046    -0.00117168    -0.00074228     0.00073657
H        -0.99011255    -0.01037232    -0.57280272    -0.00077539    -0.00060319    -0.00052064
     6
  Step:    24            Position(A)                                  Velocity(au)
C        -0.04507167     0.03447076    -0.08330072     0.00004191     0.00012156    -0.00079426
N        -0.03631985    -0.03309330     1.38173761     0.00005457     0.00007806     0.00071134
H         0.96277016    -0.12573225    -0.50647606     0.00050477    -0.00047300    -0.00033520
H         0.82039522    -0.25249739     1.88309185     0.00010595    -0.00072640    -0.00018028
H        -0.95964151    -0.22860629     1.88275447    -0.00101718    -0.00070166     0.00065205
H        -0.99467447    -0.01382080    -0.57582069    -0.00085137    -0.00063221    -0.00055707
     6
  Step:    25            Position(A)                                  Velocity(au)
C        -0.04479750     0.03515015    -0.08767402     0.00005562     0.00012174    -0.00077243
N        -0.03607334    -0.03265608     1.38567991     0.00003343     0.00007860     0.00070068
H         0.96542646    -0.12833966    -0.50841689     0.00044580    -0.00046075    -0.00035925
H         0.82120766    -0.25665788     1.88216772     0.00018517    -0.00076498    -0.00014991
H        -0.96486337    -0.23240286     1.88614739    -0.00084839    -0.00065746     0.00056167
H        -0.99961394    -0.01742780    -0.57901966    -0.00090987    -0.00065969    -0.00058505
     6
  Step:    26            Position(A)                                  Velocity(au)
C        -0.04445082     0.03582965    -0.09192266     0.00006779     0.00012154    -0.00074928
N        -0.03594675    -0.03221600     1.38955865     0.00001188     0.00007903     0.00068825
H         0.96774627    -0.13087522    -0.51048605     0.00038447    -0.00044712    -0.00038108
H         0.82246209    -0.26103611     1.88141854     0.00026272    -0.00080352    -0.00011840
H        -0.96911131    -0.23594497     1.88902391    -0.00067010    -0.00061062     0.00046790
H        -1.00483056    -0.02118433    -0.58235109    -0.00094988    -0.00068528    -0.00060407
     6
  Step:    27            Position(A)                                  Velocity(au)
C        -0.04404064     0.03650723    -0.09604020     0.00007828     0.00012099    -0.00072509
N        -0.03594073    -0.03177364     1.39336462    -0.00000950     0.00007935     0.00067425
H         0.96971929    -0.13333204    -0.51267192     0.00032185    -0.00043239    -0.00040091
H         0.82414109    -0.26562966     1.88084568     0.00033565    -0.00084110    -0.00008752
H        -0.97234546    -0.23922083     1.89137175    -0.00048704    -0.00056219     0.00037310
H        -1.01021992    -0.02507936    -0.58576440    -0.00097112    -0.00070874    -0.00061400
     6
  Step:    28            Position(A)                                  Velocity(au)
C        -0.04357653     0.03718101    -0.10002156     0.00008702     0.00012011    -0.00070018
N        -0.03605291    -0.03132965     1.39708962    -0.00003019     0.00007957     0.00065893
H         0.97134113    -0.13570480    -0.51496395     0.00025900    -0.00041689    -0.00041895
H         0.82621108    -0.27043081     1.88044104     0.00040122    -0.00087689    -0.00005886
H        -0.97455124    -0.24222434     1.89319128    -0.00030362    -0.00051324     0.00027949
H        -1.01567747    -0.02910063    -0.58920911    -0.00097395    -0.00072996    -0.00061507
     6
  Step:    29            Position(A)                                  Velocity(au)
C        -0.04306836     0.03784928    -0.10386336     0.00009400     0.00011897    -0.00067488
N        -0.03627809    -0.03088464     1.40072694    -0.00004972     0.00007967     0.00064261
H         0.97261312    -0.13798995    -0.51735287     0.00019692    -0.00040095    -0.00043547
H         0.82862391    -0.27542717     1.88018807     0.00045707    -0.00091013    -0.00003382
H        -0.97573784    -0.24495530     1.89449447    -0.00012393    -0.00046483     0.00018901
H        -1.02110195    -0.03323523    -0.59263665    -0.00095926    -0.00074888    -0.00060780
     6
  Step:    30            Position(A)                                  Velocity(au)
C        -0.04252595     0.03851059    -0.10756394     0.00009926     0.00011760    -0.00064948
N        -0.03660861    -0.03043922     1.40427140    -0.00006768     0.00007969     0.00062555
H         0.97354191    -0.14018581    -0.51983073     0.00013649    -0.00038491    -0.00045071
H         0.83131925    -0.28060239     1.88006313     0.00050129    -0.00094021    -0.00001350
H        -0.97593624    -0.24741924     1.89530370     0.00004838    -0.00041795     0.00010343
H        -1.02639817    -0.03747013    -0.59600181    -0.00092836    -0.00076555    -0.00059287
     6
  Step:    31            Position(A)                                  Velocity(au)
C        -0.04195886     0.03916376    -0.11112317     0.00010285     0.00011604    -0.00062424
N        -0.03703467    -0.02999392     1.40771929    -0.00008374     0.00007962     0.00060800
H         0.97413884    -0.14229249    -0.52239090     0.00007849    -0.00036908    -0.00046492
H         0.83422731    -0.28593676     1.88003717     0.00053248    -0.00096660     0.00000128
H        -0.97519706    -0.24962711     1.89565059     0.00021002    -0.00037354     0.00002424
H        -1.03147908    -0.04179246    -0.59926372    -0.00088280    -0.00078000    -0.00057113
     6
  Step:    32            Position(A)                                  Velocity(au)
C        -0.04137622     0.03980784    -0.11454226     0.00010486     0.00011436    -0.00059937
N        -0.03754477    -0.02954915     1.41106819    -0.00009763     0.00007950     0.00059017
H         0.97441930    -0.14431175    -0.52502801     0.00002354    -0.00035374    -0.00047830
H         0.83727178    -0.29140801     1.88007746     0.00054973    -0.00098893     0.00001003
H        -0.97358838    -0.25159497     1.89557473     0.00035812    -0.00033245    -0.00004724
H        -1.03626694    -0.04618972    -0.60238645    -0.00082430    -0.00079233    -0.00054347
     6
  Step:    33            Position(A)                                  Velocity(au)
C        -0.04078661     0.04044217    -0.11782355     0.00010541     0.00011258    -0.00057505
N        -0.03812603    -0.02910521     1.41431674    -0.00010912     0.00007935     0.00057221
H         0.97440204    -0.14624692    -0.52773776    -0.00002781    -0.00033914    -0.00049103
H         0.84037276    -0.29699194     1.88014933     0.00055267    -0.00100689     0.00001256
H        -0.97119359    -0.25334359     1.89512251     0.00049014    -0.00029550    -0.00010991
H        -1.04069395    -0.05064991    -0.60533921    -0.00075465    -0.00080262    -0.00051082
     6
  Step:    34            Position(A)                                  Velocity(au)
C        -0.04019795     0.04106627    -0.12097028     0.00010460     0.00011074    -0.00055141
N        -0.03876457    -0.02866219     1.41746438    -0.00011808     0.00007920     0.00055424
H         0.97410846    -0.14810268    -0.53051680    -0.00007516    -0.00032552    -0.00050326
H         0.84344961    -0.30266317     1.88021781     0.00054138    -0.00102034     0.00000892
H        -0.96810958    -0.25489807     1.89434614     0.00060383    -0.00026342    -0.00016284
H        -1.04470248    -0.05516154    -0.60809648    -0.00067562    -0.00081096    -0.00047409
     6
  Step:    35            Position(A)                                  Velocity(au)
C        -0.03961751     0.04167989    -0.12398637     0.00010256     0.00010888    -0.00052854
N        -0.03944576    -0.02822002     1.42051117    -0.00012440     0.00007910     0.00053635
H         0.97356204    -0.14988505    -0.53336248    -0.00011819    -0.00031310    -0.00051510
H         0.84642344    -0.30839567     1.88024906     0.00051635    -0.00102918    -0.00000056
H        -0.96444486    -0.25628764     1.89330256     0.00069732    -0.00023691    -0.00020528
H        -1.04824500    -0.05971360    -0.61063787    -0.00058897    -0.00081742    -0.00043417
     6
  Step:    36            Position(A)                                  Velocity(au)
C        -0.03905189     0.04228293    -0.12687627     0.00013191     0.00014202    -0.00067214
N        -0.04015459    -0.02777836     1.42345757    -0.00016988     0.00010494     0.00068814
H         0.97278776    -0.15160131    -0.53627258    -0.00020793    -0.00040092    -0.00069877
H         0.84921935    -0.31416333     1.88021160     0.00063489    -0.00137134    -0.00002040
H        -0.96031762    -0.25754533     1.89205238     0.00102053    -0.00028749    -0.00031406
H        -1.05128366    -0.06429542    -0.61294795    -0.00065863    -0.00109080    -0.00052006
     6
  Step:    37            Position(A)                                  Velocity(au)
C        -0.03835216     0.04306598    -0.13033888     0.00011834     0.00013812    -0.00056834
N        -0.04109289    -0.02720042     1.42708000    -0.00016429     0.00010186     0.00060861
H         0.97184144    -0.15393937    -0.54041242    -0.00013195    -0.00043448    -0.00078056
H         0.85265959    -0.32161989     1.88015658     0.00058820    -0.00129471    -0.00000402
H        -0.95453681    -0.25912508     1.89025181     0.00103307    -0.00028042    -0.00032221
H        -1.05485755    -0.07028311    -0.61603052    -0.00061646    -0.00105170    -0.00057837
     6
  Step:    38            Position(A)                                  Velocity(au)
C        -0.03772822     0.04382782    -0.13323310     0.00010498     0.00013436    -0.00046867
N        -0.04199218    -0.02663909     1.43026487    -0.00015603     0.00009897     0.00053142
H         0.97131192    -0.15646095    -0.54500309    -0.00006015    -0.00046552    -0.00085953
H         0.85579831    -0.32864466     1.88016658     0.00052769    -0.00121722     0.00000297
H        -0.94876275    -0.26068178     1.88844851     0.00101827    -0.00027844    -0.00031502
H        -1.05817878    -0.07605865    -0.61941698    -0.00056856    -0.00101513    -0.00062855
     6
  Step:    39            Position(A)                                  Velocity(au)
C        -0.03717780     0.04456897    -0.13558164     0.00009237     0.00013075    -0.00037334
N        -0.04283829    -0.02609330     1.43302475    -0.00014557     0.00009634     0.00045681
H         0.97116862    -0.15914692    -0.55002760     0.00000484    -0.00049214    -0.00093610
H         0.85856260    -0.33523638     1.88018983     0.00045548    -0.00114163     0.00000069
H        -0.94314582    -0.26223989     1.88672781     0.00097825    -0.00027977    -0.00029286
H        -1.06121776    -0.08163893    -0.62306187    -0.00051647    -0.00098331    -0.00067097
     6
  Step:    40            Position(A)                                  Velocity(au)
C        -0.03669514     0.04529011    -0.13740846     0.00008120     0.00012730    -0.00028246
N        -0.04362016    -0.02556163     1.43537372    -0.00013350     0.00009402     0.00038493
H         0.97136604    -0.16196488    -0.55547219     0.00006023    -0.00051125    -0.00101088
H         0.86089228    -0.34141233     1.88017433     0.00037366    -0.00107162    -0.00001120
H        -0.93782225    -0.26381062     1.88517329     0.00091564    -0.00028126    -0.00025578
H        -1.06395484    -0.08705574    -0.62692088    -0.00046186    -0.00095924    -0.00070535
     6
  Step:    41            Position(A)                                  Velocity(au)
C        -0.03627023     0.04599184    -0.13873891     0.00007219     0.00012395    -0.00019654
N        -0.04433053    -0.02504241     1.43732731    -0.00012051     0.00009203     0.00031616
H         0.97184181    -0.16486148    -0.56132686     0.00010263    -0.00051877    -0.00108394
H         0.86273927    -0.34721456     1.88006459     0.00028410    -0.00101171    -0.00003358
H        -0.93291122    -0.26538373     1.88386880     0.00083355    -0.00027894    -0.00020377
H        -1.06638029    -0.09236095    -0.63094594    -0.00040585    -0.00094641    -0.00073018
     6
  Step:    42            Position(A)                                  Velocity(au)
C        -0.03588886     0.04667450    -0.13960367     0.00006579     0.00012064    -0.00011677
N        -0.04496614    -0.02453373     1.43890498    -0.00010711     0.00009041     0.00025135
H         0.97251236    -0.16775920    -0.56757897     0.00012864    -0.00051197    -0.00115361
H         0.86406544    -0.35271233     1.87979932     0.00018827    -0.00096495    -0.00006681
H        -0.92851212    -0.26692612     1.88289733     0.00073539    -0.00027044    -0.00013784
H        -1.06848785    -0.09762648    -0.63507643    -0.00034781    -0.00094660    -0.00074311
     6
  Step:    43            Position(A)                                  Velocity(au)
C        -0.03553602     0.04733819    -0.14004205     0.00006171     0.00011736    -0.00004399
N        -0.04552586    -0.02403347     1.44013229    -0.00009345     0.00008916     0.00019107
H         0.97327734    -0.17057494    -0.57420078     0.00013709    -0.00049249    -0.00121717
H         0.86484025    -0.35798310     1.87931903     0.00008755    -0.00092999    -0.00010930
H        -0.92470446    -0.26840177     1.88233054     0.00062438    -0.00025743    -0.00006102
H        -1.07026169    -0.10292468    -0.63923880    -0.00028579    -0.00095751    -0.00074344
     6
  Step:    44            Position(A)                                  Velocity(au)
C        -0.03520080     0.04798303    -0.14009415     0.00005916     0.00011409     0.00002254
N        -0.04600805    -0.02353967     1.44103531    -0.00007941     0.00008821     0.00013479
H         0.97404083    -0.17325030    -0.58114997     0.00013002    -0.00046524    -0.00127304
H         0.86504159    -0.36308141     1.87858062    -0.00001633    -0.00090205    -0.00015778
H        -0.92155052    -0.26979643     1.88221704     0.00050351    -0.00024370     0.00002261
H        -1.07167428    -0.10830234    -0.64336555    -0.00021858    -0.00097433    -0.00073352
     6