 Fermi distribution function

Calculation with static geometry


********************************************************************************
 iSCC Total electronic   Diff electronic      SCC error    
   12   -0.53393789E+01   -0.34000749E-08    0.48258604E-06
********************************************************************************

 Total charge:     1.00000000

 Atomic gross charges (e)
 Atom           Charge
    1       0.34257485
    2      -0.23284275
    3       0.15756205
    4       0.26710992
    5       0.30006425
    6       0.16553167

Nr. of electrons (up):     12.00000000
Atom populations (up)
 Atom       Population
    1       3.65742515
    2       5.23284275
    3       0.84243795
    4       0.73289008
    5       0.69993575
    6       0.83446833

l-shell populations (up)
 Atom Sh.   l       Population
    1   1   0       1.33980013
    1   2   1       2.31762502
    2   1   0       1.45821806
    2   2   1       3.77462469
    3   1   0       0.84243795
    4   1   0       0.73289008
    5   1   0       0.69993575
    6   1   0       0.83446833

Orbital populations (up)
 Atom Sh.   l   m       Population  Label
    1   1   0   0       1.33980013  s
    1   2   1  -1       0.47888251  p_y
    1   2   1   0       0.88631400  p_z
    1   2   1   1       0.95242851  p_x
    2   1   0   0       1.45821806  s
    2   2   1  -1       1.32912732  p_y
    2   2   1   0       1.07510915  p_z
    2   2   1   1       1.37038821  p_x
    3   1   0   0       0.84243795  s
    4   1   0   0       0.73289008  s
    5   1   0   0       0.69993575  s
    6   1   0   0       0.83446833  s

Fermi level:                        -0.4974871992 H          -13.5373 eV
Band energy:                        -8.7646980181 H         -238.4996 eV
TS:                                  0.0000000000 H            0.0000 eV
Band free energy (E-TS):            -8.7646980181 H         -238.4996 eV
Extrapolated E(0K):                 -8.7646980181 H         -238.4996 eV
Input / Output electrons (q):     12.0000000000     12.0000000000

Energy H0:                          -5.4745459230 H         -148.9700 eV
Energy SCC:                          0.1351670652 H            3.6781 eV
Total Electronic energy:            -5.3393788578 H         -145.2919 eV
Repulsive energy:                    0.1627872107 H            4.4297 eV
Total energy:                       -5.1765916471 H         -140.8622 eV
Extrapolated to 0:                  -5.1765916471 H         -140.8622 eV
Total Mermin free energy:           -5.1765916471 H         -140.8622 eV
Force related energy:               -5.1765916471 H         -140.8622 eV

SCC converged

Excitation Energy:                   0.0880189735 H            2.3951 eV

Total Forces
    1      0.004988662828     -0.001069038001      0.065555082015
    2     -0.008732106922      0.017224666676     -0.066217529384
    3     -0.007713440982      0.013808182790      0.001152193771
    4     -0.009267765902     -0.016879458921     -0.002190997478
    5      0.016203246086      0.004850068409     -0.001386176172
    6      0.004521404891     -0.017934420953      0.003087427248

Maximal derivative component:        0.662175E-01 au


