     6
  Step:     0            Position(A)                                  Velocity(au)
C        -0.04614618     0.00629378     0.02164615    -0.00002774    -0.00000572    -0.00023693
N        -0.03941503    -0.06360959     1.29878083     0.00013590     0.00011038     0.00017503
H         0.96500822     0.02769636    -0.52245533     0.00071875    -0.00009726     0.00003751
H         0.81617197    -0.04115726     1.79081307    -0.00060175    -0.00073504    -0.00038573
H        -0.94800941    -0.00370883     1.87412754    -0.00118058    -0.00052694     0.00101708
H        -0.94850290     0.15633671    -0.55669618    -0.00049446    -0.00010649    -0.00027798
     6
  Step:     1            Position(A)                                  Velocity(au)
C        -0.04627437     0.00626732     0.02020207    -0.00001936    -0.00000400    -0.00029017
N        -0.03873311    -0.06301668     1.29987032     0.00011194     0.00010662     0.00022230
H         0.96877796     0.02716095    -0.52229190     0.00065661    -0.00009843     0.00002351
H         0.81339340    -0.04512709     1.78915459    -0.00040318    -0.00071734    -0.00021373
H        -0.95404897    -0.00661712     1.87949046    -0.00101701    -0.00053716     0.00093651
H        -0.95140366     0.15582620    -0.55849691    -0.00056138    -0.00008103    -0.00037784
     6
  Step:     2            Position(A)                                  Velocity(au)
C        -0.04635798     0.00625003     0.01847220    -0.00001148    -0.00000237    -0.00034124
N        -0.03819056    -0.06244338     1.30121238     0.00008533     0.00010323     0.00026725
H         0.97219036     0.02661969    -0.52219820     0.00058850    -0.00009941     0.00001177
H         0.81176196    -0.04900364     1.78847521    -0.00018590    -0.00070117    -0.00003003
H        -0.95913360    -0.00958439     1.88437128    -0.00083366    -0.00054836     0.00084238
H        -0.95464340     0.15545042    -0.56082909    -0.00061797    -0.00005732    -0.00047188
     6
  Step:     3            Position(A)                                  Velocity(au)
C        -0.04639993     0.00624143     0.01646973    -0.00000415    -0.00000083    -0.00038967
N        -0.03779982    -0.06188764     1.30279344     0.00005685     0.00010021     0.00030962
H         0.97521475     0.02607366    -0.52216314     0.00051512    -0.00010018     0.00000182
H         0.81136005    -0.05279621     1.78882614     0.00004236    -0.00068679     0.00016043
H        -0.96316722    -0.01261488     1.88870415    -0.00063478    -0.00056014     0.00073763
H        -0.95816275     0.15519923    -0.56365816    -0.00066330    -0.00003553    -0.00055919
     6
  Step:     4            Position(A)                                  Velocity(au)
C        -0.04640337     0.00624093     0.01421022     0.00000258     0.00000059    -0.00043503
N        -0.03756880    -0.06134735     1.30459877     0.00002734     0.00009757     0.00034918
H         0.97782437     0.02552396    -0.52217829     0.00043717    -0.00010075    -0.00000683
H         0.81222523    -0.05651521     1.79022992     0.00027311    -0.00067427     0.00035223
H        -0.96607639    -0.01571084     1.89243890    -0.00042442    -0.00057213     0.00062500
H        -0.96189810     0.15506177    -0.56694514    -0.00069669    -0.00001577    -0.00063900
     6
  Step:     5            Position(A)                                  Velocity(au)
C        -0.04637166     0.00624793     0.01171156     0.00000870     0.00000190    -0.00047684
N        -0.03750076    -0.06082049     1.30661264    -0.00000233     0.00009527     0.00038574
H         0.97999631     0.02497174    -0.52223783     0.00035536    -0.00010108    -0.00001465
H         0.81434720    -0.06017107     1.79267865     0.00049749    -0.00066348     0.00053967
H        -0.96780935    -0.01887259     1.89554012    -0.00020653    -0.00058393     0.00050714
H        -0.96578282     0.15502671    -0.57064733    -0.00071764     0.00000189    -0.00071063
     6
  Step:     6            Position(A)                                  Velocity(au)
C        -0.04630823     0.00626175     0.00899403     0.00001418     0.00000308    -0.00051462
N        -0.03759430    -0.06030518     1.30881843    -0.00003132     0.00009328     0.00041909
H         0.98171167     0.02441823    -0.52233855     0.00027047    -0.00010116    -0.00002211
H         0.81766731    -0.06377313     1.79613348     0.00070675    -0.00065412     0.00071714
H        -0.96833562    -0.02209852     1.89798663     0.00001489    -0.00059516     0.00038669
H        -0.96974841     0.15508250    -0.57471882    -0.00072587     0.00001744    -0.00077347
     6
  Step:     7            Position(A)                                  Velocity(au)
C        -0.04621654     0.00628165     0.00608042     0.00001901     0.00000412    -0.00054788
N        -0.03784347    -0.05979978     1.31119850    -0.00005880     0.00009155     0.00044900
H         0.98295590     0.02386479    -0.52247978     0.00018339    -0.00010096    -0.00002967
H         0.82208068    -0.06732871     1.80052580     0.00089276    -0.00064572     0.00087930
H        -0.96764641    -0.02538501     1.89977141     0.00023565    -0.00060542     0.00026630
H        -0.97372559     0.15521756    -0.57911094    -0.00072135     0.00003087    -0.00082701
     6
  Step:     8            Position(A)                                  Velocity(au)
C        -0.04610007     0.00630683     0.00299610     0.00002321     0.00000500    -0.00057612
N        -0.03823801    -0.05930297     1.31373391    -0.00008400     0.00009000     0.00047518
H         0.98371931     0.02331293    -0.52266332     0.00009511    -0.00010046    -0.00003775
H         0.82744086    -0.07084222     1.80575973     0.00104847    -0.00063769     0.00102147
H        -0.96575576    -0.02872644     1.90090195     0.00045131    -0.00061434     0.00014876
H        -0.97764546     0.15542043    -0.58377258    -0.00070425     0.00004221    -0.00087080
     6
  Step:     9            Position(A)                                  Velocity(au)
C        -0.04596227     0.00633641    -0.00023107     0.00002677     0.00000571    -0.00059889
N        -0.03876369    -0.05881379     1.31640419    -0.00010623     0.00008858     0.00049731
H         0.98399784     0.02276428    -0.52289337     0.00000680    -0.00009962    -0.00004679
H         0.83356683    -0.07431469     1.81171617     0.00116834    -0.00062938     0.00113981
H        -0.96270225    -0.03211520     1.90140106     0.00065708    -0.00062156     0.00003700
H        -0.98144078     0.15567993    -0.58865069    -0.00067502     0.00005151    -0.00090451
     6
  Step:    10            Position(A)                                  Velocity(au)
C        -0.04580658     0.00636946    -0.00357084     0.00002968     0.00000625    -0.00061581
N        -0.03940282    -0.05833166     1.31918700    -0.00012490     0.00008722     0.00051505
H         0.98379383     0.02222062    -0.52317634    -0.00008026    -0.00009843    -0.00005715
H         0.84025190    -0.07774347     1.81825785     0.00124864    -0.00062016     0.00123154
H        -0.95855084    -0.03554189     1.90130771     0.00084791    -0.00062678    -0.00006588
H        -0.98504716     0.15598528    -0.59369070    -0.00063436     0.00005887    -0.00092796
     6
  Step:    11            Position(A)                                  Velocity(au)
C        -0.04563646     0.00640500    -0.00699105     0.00003195     0.00000660    -0.00062658
N        -0.04013477    -0.05785634     1.32205812    -0.00013954     0.00008586     0.00052807
H         0.98311675     0.02168378    -0.52352072    -0.00016467    -0.00009689    -0.00006919
H         0.84727370    -0.08112241     1.82523526     0.00128754    -0.00060944     0.00129505
H        -0.95339442    -0.03899561     1.90067786     0.00101861    -0.00062980    -0.00015674
H        -0.98840440     0.15632621    -0.59883726    -0.00058324     0.00006440    -0.00094111
     6
  Step:    12            Position(A)                                  Velocity(au)
C        -0.04545536     0.00644198    -0.01045806     0.00003359     0.00000676    -0.00063105
N        -0.04093660    -0.05738794     1.32499141    -0.00014980     0.00008445     0.00053607
H         0.98198381     0.02115562    -0.52393684    -0.00024497    -0.00009501    -0.00008320
H         0.85440430    -0.08444226     1.83249275     0.00128516    -0.00059676     0.00132994
H        -0.94735456    -0.04246447     1.89958482     0.00116401    -0.00063052    -0.00023245
H        -0.99145795     0.15669311    -0.60403513    -0.00052289     0.00006822    -0.00094417
     6
  Step:    13            Position(A)                                  Velocity(au)
C        -0.04526671     0.00647937    -0.01393756     0.00003460     0.00000672    -0.00062925
N        -0.04178371    -0.05692674     1.32795908    -0.00015547     0.00008297     0.00053886
H         0.98042019     0.02063790    -0.52443659    -0.00031973    -0.00009283    -0.00009944
H         0.86142050    -0.08769139     1.83987496     0.00124344    -0.00058181     0.00133698
H        -0.94058123    -0.04593620     1.89811908     0.00127930    -0.00062899    -0.00029005
H        -0.99416023     0.15707721    -0.60923043    -0.00045479     0.00007053    -0.00093759
     6
  Step:    14            Position(A)                                  Velocity(au)
C        -0.04507395     0.00651610    -0.01739546     0.00003498     0.00000650    -0.00062138
N        -0.04265067    -0.05647320     1.33093225    -0.00015650     0.00008141     0.00053636
H         0.97845889     0.02013220    -0.52503311    -0.00038761    -0.00009039    -0.00011808
H         0.86811298    -0.09085667     1.84723276     0.00116581    -0.00056448     0.00131798
H        -0.93325055    -0.04939898     1.89638702     0.00136031    -0.00062543    -0.00032699
H        -0.99647188     0.15747070    -0.61437186    -0.00038057     0.00007151    -0.00092207
     6
  Step:    15            Position(A)                                  Velocity(au)
C        -0.04488043     0.00655115    -0.02079891     0.00003477     0.00000610    -0.00060781
N        -0.04351187    -0.05602779     1.33388164    -0.00015297     0.00007978     0.00052863
H         0.97614012     0.01963984    -0.52574044    -0.00044748    -0.00008775    -0.00013926
H         0.87429359    -0.09392445     1.85442831     0.00105688    -0.00054480     0.00127557
H        -0.92556042    -0.05284234     1.89450836     0.00140390    -0.00062021    -0.00034128
H        -0.99836255     0.15786687    -0.61941208    -0.00030197     0.00007140    -0.00089855
     6
  Step:    16            Position(A)                                  Velocity(au)
C        -0.04468945     0.00658352    -0.02411723     0.00003586     0.00000836    -0.00063708
N        -0.04434235    -0.05559086     1.33677844    -0.00014547     0.00007618     0.00055370
H         0.97351021     0.01916175    -0.52657323    -0.00053717    -0.00014017    -0.00013396
H         0.87980111    -0.09688159     1.86133939     0.00090636    -0.00046396     0.00120367
H        -0.91772478    -0.05625796     1.89261280     0.00142166    -0.00066642    -0.00034825
H        -0.99981132     0.15826026    -0.62430898    -0.00019673     0.00011229    -0.00082445
     6
  Step:    17            Position(A)                                  Velocity(au)
C        -0.04448323     0.00664373    -0.02785487     0.00003795     0.00001354    -0.00071263
N        -0.04512304    -0.05518404     1.34001409    -0.00013386     0.00007037     0.00061473
H         0.97019072     0.01808741    -0.52722413    -0.00065459    -0.00022842    -0.00009972
H         0.88433195    -0.09906298     1.86775954     0.00071551    -0.00034296     0.00110137
H        -0.90981482    -0.06022323     1.89065133     0.00141364    -0.00074324    -0.00035107
H        -1.00054145     0.15911052    -0.62854328    -0.00006672     0.00017538    -0.00070143
     6
  Step:    18            Position(A)                                  Velocity(au)
C        -0.04426843     0.00673377    -0.03202238     0.00003881     0.00001877    -0.00078486
N        -0.04582723    -0.05481029     1.34359756    -0.00011778     0.00006433     0.00067268
H         0.96624894     0.01662786    -0.52767943    -0.00075649    -0.00028992    -0.00006666
H         0.88773816    -0.10068604     1.87355674     0.00050525    -0.00024929     0.00098111
H        -0.90204347    -0.06450261     1.88871840     0.00136427    -0.00079029    -0.00033328
H        -1.00055144     0.16020568    -0.63208979     0.00006116     0.00021186    -0.00057666
     6
  Step:    19            Position(A)                                  Velocity(au)
C        -0.04405200     0.00685227    -0.03657608     0.00003841     0.00002365    -0.00084778
N        -0.04643177    -0.05446918     1.34748879    -0.00009787     0.00005848     0.00072216
H         0.96178477     0.01486583    -0.52796481    -0.00083853    -0.00033885    -0.00003951
H         0.88994615    -0.10183308     1.87866146     0.00028651    -0.00016820     0.00085148
H        -0.89465530    -0.06900477     1.88694797     0.00127107    -0.00082376    -0.00029107
H        -0.99986182     0.16146468    -0.63495097     0.00018334     0.00023634    -0.00045416
     6
  Step:    20            Position(A)                                  Velocity(au)
C        -0.04384091     0.00699702    -0.04145948     0.00003678     0.00002808    -0.00089993
N        -0.04691672    -0.05415931     1.35163629    -0.00007482     0.00005296     0.00076189
H         0.95691486     0.01285593    -0.52811924    -0.00089838    -0.00037910    -0.00002022
H         0.89092744    -0.10255834     1.88303501     0.00006701    -0.00009604     0.00071778
H        -0.88789457    -0.07367233     1.88547833     0.00113590    -0.00084852    -0.00022487
H        -0.99851060     0.16283647    -0.63714525     0.00029688     0.00025307    -0.00033668
     6
  Step:    21            Position(A)                                  Velocity(au)
C        -0.04364183     0.00716541    -0.04661102     0.00003402     0.00003202    -0.00094104
N        -0.04726612    -0.05387864     1.35598450    -0.00004942     0.00004788     0.00079174
H         0.95176719     0.01063862    -0.52819027    -0.00093472    -0.00041287    -0.00001002
H         0.89069334    -0.10290400     1.88666521    -0.00014657    -0.00003112     0.00058463
H        -0.88198912    -0.07846641     1.88444047     0.00096334    -0.00086761    -0.00013695
H        -0.99655143     0.16428658    -0.63870522     0.00039930     0.00026463    -0.00022661
     6
  Step:    22            Position(A)                                  Velocity(au)
C        -0.04346099     0.00735464    -0.05196892     0.00003022     0.00003546    -0.00097162
N        -0.04746864    -0.05362457     1.36047840    -0.00002254     0.00004334     0.00081231
H         0.94647596     0.00824509    -0.52823118    -0.00094719    -0.00044178    -0.00000970
H         0.88929057    -0.10290588     1.88956413    -0.00034856     0.00002753     0.00045616
H        -0.87713614    -0.08336175     1.88394886     0.00076013    -0.00088338    -0.00003100
H        -0.99405125     0.16579184    -0.63967601     0.00048870     0.00027288    -0.00012592
     6
  Step:    23            Position(A)                                  Velocity(au)
C        -0.04330398     0.00756190    -0.05747491     0.00002551     0.00003842    -0.00099273
N        -0.04751811    -0.05339409     1.36506719     0.00000491     0.00003938     0.00082474
H         0.94117643     0.00569893    -0.52829877    -0.00093622    -0.00046723    -0.00001966
H         0.88679601    -0.10259621     1.89176561    -0.00053436     0.00008057     0.00033586
H        -0.87348987    -0.08834373     1.88409390     0.00053461    -0.00089773     0.00008833
H        -0.99108715     0.16733775    -0.64011318     0.00056374     0.00027932    -0.00003612
     6
  Step:    24            Position(A)                                  Velocity(au)
C        -0.04317557     0.00778450    -0.06307707     0.00002005     0.00004093    -0.00100576
N        -0.04741370    -0.05318388     1.36970687     0.00003201     0.00003606     0.00083046
H         0.93600005     0.00301695    -0.52845113    -0.00090295    -0.00049045    -0.00003993
H         0.88331136    -0.10200432     1.89332226    -0.00070033     0.00012861     0.00022664
H        -0.87115406    -0.09340695     1.88493718     0.00029583    -0.00091223     0.00021584
H        -0.98774329     0.16891730    -0.64008018     0.00062357     0.00028522     0.00004176
     6
  Step:    25            Position(A)                                  Velocity(au)
C        -0.04307954     0.00801999    -0.06873146     0.00001403     0.00004305    -0.00101214
N        -0.04715981    -0.05299049     1.37436172     0.00005791     0.00003337     0.00083092
H         0.93107062     0.00020973    -0.52874570    -0.00084884    -0.00051253    -0.00007031
H         0.87895783    -0.10115684     1.89430220    -0.00084361     0.00017217     0.00013080
H        -0.87017896    -0.09855343     1.88650954     0.00005287    -0.00092798     0.00034624
H        -0.98410814     0.17052997    -0.63964576     0.00066767     0.00029164     0.00010712
     6
  Step:    26            Position(A)                                  Velocity(au)
C        -0.04301863     0.00826623    -0.07440212     0.00000761     0.00004483    -0.00101309
N        -0.04676575    -0.05281055     1.37900424     0.00008178     0.00003126     0.00082742
H         0.92650224    -0.00271783    -0.52923786    -0.00077556    -0.00053433    -0.00011035
H         0.87387208    -0.10007783     1.89478576    -0.00096173     0.00021179     0.00005013
H        -0.87056246    -0.10379029     1.88881135    -0.00018553    -0.00094558     0.00047440
H        -0.98027258     0.17218057    -0.63888158     0.00069566     0.00029945     0.00015966
     6
  Step:    27            Position(A)                                  Velocity(au)
C        -0.04299448     0.00852129    -0.08005998     0.00000100     0.00004629    -0.00100947
N        -0.04624532    -0.05264089     1.38361405     0.00010287     0.00002970     0.00082089
H         0.92239813    -0.00576527    -0.52997966    -0.00068491    -0.00055648    -0.00015936
H         0.86820358    -0.09878854     1.89486277    -0.00105236     0.00024791    -0.00001387
H        -0.87225355    -0.10912706     1.89181436    -0.00041129    -0.00096506     0.00059547
H        -0.97632911     0.17387852    -0.63786046     0.00070711     0.00030933     0.00019923
     6
  Step:    28            Position(A)                                  Velocity(au)
C        -0.04300749     0.00878341    -0.08568091    -0.00000558     0.00004744    -0.00100182
N        -0.04561638    -0.05247871     1.38817601     0.00012047     0.00002860     0.00081195
H         0.91884976    -0.00893538    -0.53101839    -0.00057890    -0.00057932    -0.00021637
H         0.86211406    -0.09730798     1.89463076    -0.00111313     0.00028082    -0.00005995
H        -0.87515773    -0.11457289     1.89546451    -0.00061711    -0.00098596     0.00070506
H        -0.97237211     0.17563673    -0.63665561     0.00070151     0.00032176     0.00022579
     6
  Step:    29            Position(A)                                  Velocity(au)
C        -0.04305675     0.00905087    -0.09124374    -0.00001187     0.00004828    -0.00099038
N        -0.04490048    -0.05232164     1.39267820     0.00013394     0.00002787     0.00080091
H         0.91593557    -0.01223249    -0.53239509    -0.00045992    -0.00060299    -0.00028012
H         0.85577721    -0.09565367     1.89419356    -0.00114173     0.00031074    -0.00008703
H        -0.87914265    -0.12013375     1.89968527    -0.00079670    -0.00100743     0.00079937
H        -0.96849787     0.17747051    -0.63533984     0.00067844     0.00033705     0.00023940
     6
  Step:    30            Position(A)                                  Velocity(au)
C        -0.04313990     0.00932200    -0.09672877    -0.00001762     0.00004881    -0.00097525
N        -0.04412224    -0.05216781     1.39711030     0.00014278     0.00002742     0.00078790
H         0.91371927    -0.01566186    -0.53414313    -0.00033080    -0.00062748    -0.00034905
H         0.84937788    -0.09384163     1.89365995    -0.00113622     0.00033785    -0.00009434
H        -0.88404503    -0.12581098     1.90438167    -0.00094493    -0.00102846     0.00087536
H        -0.96480395     0.17939655    -0.63398503     0.00063773     0.00035533     0.00024026
     6
  Step:    31            Position(A)                                  Velocity(au)
C        -0.04325316     0.00959508    -0.10211695    -0.00002255     0.00004902    -0.00095653
N        -0.04330864    -0.05201587     1.40146254     0.00014662     0.00002717     0.00077296
H         0.91224743    -0.01922828    -0.53628669    -0.00019492    -0.00065261    -0.00042137
H         0.84310941    -0.09188697     1.89314178    -0.00109544     0.00036227    -0.00008153
H        -0.88967772    -0.13160017     1.90944472    -0.00105807    -0.00104798     0.00093086
H        -0.96138775     0.18143211    -0.63266114     0.00057959     0.00037664     0.00022879
     6
  Step:    32            Position(A)                                  Velocity(au)
C        -0.04339121     0.00986833    -0.10738976    -0.00002641     0.00004889    -0.00093438
N        -0.04248809    -0.05186498     1.40572526     0.00014532     0.00002702     0.00075615
H         0.91154684    -0.02293545    -0.53883952    -0.00005608    -0.00067816    -0.00049511
H         0.83716874    -0.08980396     1.89275122    -0.00101941     0.00038416    -0.00004888
H        -0.89583771    -0.13749121     1.91475655    -0.00113401    -0.00106505     0.00096476
H        -0.95834421     0.18359432    -0.63143510     0.00050479     0.00040088     0.00020568
     6
  Step:    33            Position(A)                                  Velocity(au)
C        -0.04354745     0.01013995    -0.11252970    -0.00002898     0.00004844    -0.00090909
N        -0.04168925    -0.05171471     1.40988901     0.00013894     0.00002691     0.00073756
H         0.91162250    -0.02678563    -0.54180422     0.00008165    -0.00070386    -0.00056825
H         0.83174914    -0.08760586     1.89259704    -0.00090962     0.00040374     0.00000260
H        -0.90231510    -0.14346906     1.92019593    -0.00117230    -0.00107893     0.00097694
H        -0.95576240     0.18589948    -0.63036903     0.00041479     0.00042786     0.00017200
     6
  Step:    34            Position(A)                                  Velocity(au)
C        -0.04371416     0.01040814    -0.11752083    -0.00003010     0.00004766    -0.00088105
N        -0.04093972    -0.05156504     1.41394478     0.00012780     0.00002678     0.00071738
H         0.91245676    -0.03077945    -0.54517218     0.00021419    -0.00072948    -0.00063882
H         0.82703171    -0.08530460     1.89278022    -0.00076917     0.00042130     0.00007110
H        -0.90890202    -0.14951504     1.92564374    -0.00117407    -0.00108917     0.00096826
H        -0.95372174     0.18836243    -0.62951827     0.00031171     0.00045727     0.00012915
     6
  Step:    35            Position(A)                                  Velocity(au)
C        -0.04388288     0.01067119    -0.12234944    -0.00002967     0.00004660    -0.00085077
N        -0.04026488    -0.05141628     1.41788451     0.00011240     0.00002656     0.00069584
H         0.91400979    -0.03491598    -0.54892416     0.00033772    -0.00075475    -0.00070505
H         0.82317642    -0.08291028     1.89338948    -0.00060270     0.00043721     0.00015398
H        -0.91540062    -0.15560831     1.93098767    -0.00114176    -0.00109555     0.00094034
H        -0.95228830     0.19099598    -0.62892957     0.00019826     0.00048873     0.00007883
     6
  Step:    36            Position(A)                                  Velocity(au)
C        -0.04404488     0.01092756    -0.12700458    -0.00002768     0.00004527    -0.00081879
N        -0.03968675    -0.05126896     1.42170151     0.00009344     0.00002623     0.00067327
H         0.91622146    -0.03919283    -0.55303153     0.00044887    -0.00077946    -0.00076542
H         0.82031328    -0.08043091     1.89449671    -0.00041630     0.00045189     0.00024790
H        -0.92162946    -0.16172736     1.93612591    -0.00107883    -0.00109812     0.00089534
H        -0.95151173     0.19381039    -0.62863957     0.00007762     0.00052175     0.00002295
     6
  Step:    37            Position(A)                                  Velocity(au)
C        -0.04419152     0.01117586    -0.13147820    -0.00002420     0.00004371    -0.00078567
N        -0.03922310    -0.05112379     1.42539080     0.00007173     0.00002577     0.00064999
H         0.91901424    -0.04360627    -0.55745786     0.00054486    -0.00080342    -0.00081871
H         0.81853502    -0.07787214     1.89615335    -0.00021715     0.00046577     0.00034894
H        -0.92742855    -0.16785131     1.94096983    -0.00098945    -0.00109712     0.00083579
H        -0.95142296     0.19681295    -0.62867374    -0.00004673     0.00055577    -0.00003643
     6
  Step:    38            Position(A)                                  Velocity(au)
C        -0.04431474     0.01141497    -0.13576527    -0.00001936     0.00004198    -0.00075193
N        -0.03888689    -0.05098160     1.42894925     0.00004817     0.00002516     0.00062635
H         0.92229697    -0.04815142    -0.56216070     0.00062363    -0.00082642    -0.00086405
H         0.81789197    -0.07523725     1.89838766    -0.00001304     0.00047927     0.00045287
H        -0.93266241    -0.17396092     1.94544552    -0.00087814    -0.00109292     0.00076440
H        -0.95203275     0.20000759    -0.62904578    -0.00017111     0.00059019    -0.00009719
     6
  Step:    39            Position(A)                                  Velocity(au)
C        -0.04440742     0.01164405    -0.13986355    -0.00001335     0.00004013    -0.00071805
N        -0.03868598    -0.05084324     1.43237570     0.00002365     0.00002440     0.00060269
H         0.92596884    -0.05282234    -0.56709352     0.00068383    -0.00084831    -0.00090084
H         0.81838957    -0.07252738     1.90120359     0.00018800     0.00049274     0.00055533
H        -0.93722132    -0.18003935     1.94949422    -0.00074952    -0.00108600     0.00068384
H        -0.95333117     0.20339463    -0.62975761    -0.00029190     0.00062435    -0.00015728
     6
  Step:    40            Position(A)                                  Velocity(au)
C        -0.04446365     0.01186252    -0.14377326    -0.00000641     0.00003820    -0.00068441
N        -0.03862313    -0.05070952     1.43567073    -0.00000093     0.00002350     0.00057930
H         0.92992337    -0.05761214    -0.57220735     0.00072477    -0.00086891    -0.00092881
H         0.81998867    -0.06974194     1.90458098     0.00037828     0.00050645     0.00065217
H        -0.94102138    -0.18607254     1.95307208    -0.00060815    -0.00107687     0.00059674
H        -0.95528818     0.20697060    -0.63079986    -0.00040562     0.00065756    -0.00021477
     6
  Step:    41            Position(A)                                  Velocity(au)
C        -0.04447895     0.01207012    -0.14749668     0.00000119     0.00003625    -0.00065135
N        -0.03869631    -0.05058116     1.43883649    -0.00002475     0.00002248     0.00055642
H         0.93405205    -0.06251314    -0.57745239     0.00074638    -0.00088809    -0.00094791
H         0.82260845    -0.06687909     1.90847718     0.00055080     0.00052055     0.00073963
H        -0.94400391    -0.19204954     1.95614952    -0.00045842    -0.00106610     0.00050554
H        -0.95785502     0.21072831    -0.63215287    -0.00050912     0.00068919    -0.00026793
     6
  Step:    42            Position(A)                                  Velocity(au)
C        -0.04445035     0.01226685    -0.15103772     0.00000920     0.00003433    -0.00061912
N        -0.03889911    -0.05045874     1.44187639    -0.00004708     0.00002139     0.00053424
H         0.93824767    -0.06751696    -0.58277932     0.00074915    -0.00090574    -0.00095834
H         0.82613166    -0.06393633     1.91282995     0.00069967     0.00053511     0.00081452
H        -0.94613410    -0.19796261     1.95871032    -0.00030446    -0.00105425     0.00041255
H        -0.96096639     0.21465703    -0.63378800    -0.00059969     0.00071861    -0.00031529
     6
  Step:    43            Position(A)                                  Velocity(au)
C        -0.04437637     0.01245297    -0.15440155     0.00001734     0.00003247    -0.00058789
N        -0.03922141    -0.05034263     1.44479473    -0.00006734     0.00002025     0.00051289
H         0.94240718    -0.07261469    -0.58814054     0.00073405    -0.00092179    -0.00096048
H         0.83041165    -0.06091108     1.91756129     0.00082034     0.00055012     0.00087442
H        -0.94739952    -0.20380731     1.96075057    -0.00015013    -0.00104192     0.00031987
H        -0.96454325     0.21874277    -0.63566927    -0.00067515     0.00074529    -0.00035572
     6
  Step:    44            Position(A)                                  Velocity(au)
C        -0.04425700     0.01262900    -0.15759415     0.00002537     0.00003072    -0.00055780
N        -0.03965006    -0.05023295     1.44759631    -0.00008503     0.00001911     0.00049242
H         0.94643408    -0.07779711    -0.59349107     0.00070239    -0.00093619    -0.00095489
H         0.83528048    -0.05780112     1.92258184     0.00090978     0.00056547     0.00091771
H        -0.94780836    -0.20958257     1.96227765     0.00000106    -0.00102972     0.00022943
H        -0.96849600     0.22296886    -0.63775515    -0.00073392     0.00076881    -0.00038837
     6