    14
  Step:     0            Position(A)                                  Velocity(au)
C        -6.04282698    -0.74845165    -0.17464382    -0.00057072    -0.00009131     0.00001534
C        -4.70410265    -0.72620665     0.18502633     0.00020543     0.00009650    -0.00008042
H        -6.56875153     0.06799029    -0.62659226     0.00067614    -0.00050852    -0.00008020
H        -6.54795586    -1.72722727    -0.00991973    -0.00020817     0.00008566    -0.00064799
H        -4.20294892    -1.64715898     0.50058085    -0.00023864     0.00088653     0.00035944
C        -3.89897158     0.42359651    -0.02643850     0.00009078    -0.00009603    -0.00007478
C        -2.53110448     0.49569287     0.19021140    -0.00014873    -0.00022320     0.00016420
H        -4.41597734     1.27451986    -0.42240756     0.00030709     0.00098665     0.00048725
H        -2.04566891    -0.36890461     0.61474515     0.00190270    -0.00044419     0.00083643
C        -1.82892874     1.70527394     0.04883672     0.00057016     0.00015018    -0.00008741
H        -2.44332676     2.59842078    -0.21915298    -0.00110246    -0.00079411     0.00024038
N        -0.52262997     1.79431891     0.13409808    -0.00016748     0.00007870     0.00008873
H        -0.11072836     2.70929958     0.10543923    -0.00060090     0.00001054    -0.00027854
H         0.10043915     1.09712149     0.55042229    -0.00015919     0.00063639    -0.00139824
    14
  Step:     1            Position(A)                                  Velocity(au)
C        -6.04910993    -0.74965614    -0.17441665    -0.00057222    -0.00012941     0.00002757
C        -4.70172259    -0.72508733     0.18410772     0.00022496     0.00010973    -0.00008862
H        -6.56165082     0.06303283    -0.62763398     0.00060050    -0.00037067    -0.00012628
H        -6.55042347    -1.72525137    -0.01740028    -0.00025019     0.00026105    -0.00071401
H        -4.20584326    -1.63734249     0.50479014    -0.00027671     0.00088250     0.00041580
C        -3.89845926     0.42242853    -0.02731877     0.00000167    -0.00011585    -0.00008670
C        -2.53233576     0.49332298     0.19212044    -0.00007030    -0.00021112     0.00018641
H        -4.41284427     1.28623394    -0.41732057     0.00027627     0.00113049     0.00045158
H        -2.02433302    -0.37420779     0.62376060     0.00195967    -0.00048429     0.00079015
C        -1.82306012     1.70686049     0.04783579     0.00049549     0.00013598    -0.00009545
H        -2.45430973     2.58920353    -0.21644813    -0.00089483    -0.00088117     0.00025261
N        -0.52417741     1.79522914     0.13511828    -0.00011483     0.00009087     0.00009629
H        -0.11689475     2.71001031     0.10226786    -0.00051867     0.00012774    -0.00030139
H         0.09802718     1.10400048     0.53483004    -0.00024892     0.00058186    -0.00142991
    14
  Step:     2            Position(A)                                  Velocity(au)
C        -6.05534534    -0.75128269    -0.17404056    -0.00056292    -0.00016726     0.00004196
C        -4.69918118    -0.72380608     0.18308770     0.00023561     0.00012634    -0.00009883
H        -6.55561452     0.05988128    -0.62935478     0.00048713    -0.00018604    -0.00020032
H        -6.55342917    -1.72151632    -0.02554001    -0.00030870     0.00040116    -0.00076760
H        -4.20900251    -1.62785251     0.50967726    -0.00028671     0.00082761     0.00048341
C        -3.89893494     0.42106213    -0.02833527    -0.00009004    -0.00013243    -0.00009963
C        -2.53264250     0.49107417     0.19428939     0.00001998    -0.00020052     0.00021141
H        -4.40993342     1.29925141    -0.41252832     0.00026691     0.00122196     0.00043382
H        -2.00279732    -0.37949943     0.63203125     0.00194210    -0.00044777     0.00070277
C        -1.81808898     1.70824879     0.04674859     0.00040769     0.00011364    -0.00010298
H        -2.46290294     2.57914351    -0.21362674    -0.00067081    -0.00094384     0.00026007
N        -0.52514219     1.79630696     0.13620466    -0.00006189     0.00010981     0.00010083
H        -0.12207531     2.71209403     0.09884567    -0.00042328     0.00025497    -0.00032405
H         0.09499362     1.10985070     0.51914020    -0.00026974     0.00044691    -0.00141646
    14
  Step:     3            Position(A)                                  Velocity(au)
C        -6.06142479    -0.75331526    -0.17349880    -0.00054503    -0.00020224     0.00005706
C        -4.69656821    -0.72232335     0.18194561     0.00023914     0.00014665    -0.00011069
H        -6.55099382     0.05896290    -0.63201644     0.00034913     0.00002656    -0.00029224
H        -6.55717678    -1.71647523    -0.03419303    -0.00038747     0.00049474    -0.00080729
H        -4.21211549    -1.61923703     0.51536576    -0.00026937     0.00072602     0.00056135
C        -3.90042896     0.41953144    -0.02949833    -0.00018454    -0.00014624    -0.00011334
C        -2.53189871     0.48893616     0.19674555     0.00012111    -0.00019023     0.00023851
H        -4.40700500     1.31296661    -0.40782985     0.00027856     0.00125742     0.00043381
H        -1.98184597    -0.38400356     0.63913503     0.00185770    -0.00034799     0.00058064
C        -1.81414102     1.70934656     0.04558292     0.00031044     0.00008271    -0.00010957
H        -2.46898498     2.56855521    -0.21075871    -0.00044133    -0.00097387     0.00025960
N        -0.52553144     1.79763146     0.13732409    -0.00001044     0.00013603     0.00010252
H        -0.12615490     2.71558824     0.09517854    -0.00032012     0.00037887    -0.00034575
H         0.09212618     1.11377743     0.50384236    -0.00022049     0.00023422    -0.00136170
    14
  Step:     4            Position(A)                                  Velocity(au)
C        -6.06726885    -0.75570712    -0.17279221    -0.00052144    -0.00023158     0.00007124
C        -4.69394950    -0.72059779     0.18066622     0.00023793     0.00017050    -0.00012357
H        -6.54797674     0.06046225    -0.63574819     0.00020203     0.00024321    -0.00038884
H        -6.56190582    -1.71069285    -0.04320092    -0.00048896     0.00053342    -0.00083236
H        -4.21489543    -1.61196945     0.52195779    -0.00022847     0.00058723     0.00064650
C        -3.90297217     0.41786278    -0.03081470    -0.00028132    -0.00015800    -0.00012739
C        -2.52999291     0.48691248     0.19950720     0.00023114    -0.00017917     0.00026679
H        -4.40383949     1.32675991    -0.40303783     0.00030826     0.00123755     0.00044944
H        -1.96215647    -0.38711230     0.64473383     0.00171737    -0.00020083     0.00043198
C        -1.81129754     1.71005831     0.04435149     0.00020798     0.00004318    -0.00011480
H        -2.47255782     2.55783825    -0.20794751    -0.00021772    -0.00096411     0.00024837
N        -0.52537063     1.79928285     0.13844753     0.00003819     0.00016909     0.00010193
H        -0.12907861     2.72038263     0.09128182    -0.00021445     0.00048676    -0.00036554
H         0.09016996     1.11497467     0.48935042    -0.00011088    -0.00004183    -0.00127552
    14
  Step:     5            Position(A)                                  Velocity(au)
C        -6.07283221    -0.75838149    -0.17194040    -0.00049507    -0.00025281     0.00008290
C        -4.69136304    -0.71859345     0.17924227     0.00023412     0.00019677    -0.00013668
H        -6.54657396     0.06428363    -0.64052315     0.00006131     0.00043894    -0.00047600
H        -6.56787369    -1.70480561    -0.05240256    -0.00061361     0.00051319    -0.00084308
H        -4.21711379    -1.60639022     0.52950918    -0.00017052     0.00042549     0.00073367
C        -3.90658334     0.41607479    -0.03228532    -0.00037814    -0.00016803    -0.00014120
C        -2.52684214     0.48501647     0.20258216     0.00034640    -0.00016683     0.00029525
H        -4.40026123     1.34004046    -0.39799745     0.00035132     0.00116647     0.00047711
H        -1.94427525    -0.38839711     0.64858536     0.00153369    -0.00002269     0.00026573
C        -1.80959107     1.71029125     0.04307144     0.00010479    -0.00000425    -0.00011832
H        -2.47374802     2.54746357    -0.20532506    -0.00001110    -0.00090898     0.00022422
N        -0.52469599     1.80133061     0.13955407     0.00008350     0.00020746     0.00009993
H        -0.13084640     2.72623700     0.08718166    -0.00011085     0.00056827    -0.00038244
H         0.08970048     1.11286233     0.47593803     0.00003846    -0.00035500    -0.00117269
    14
  Step:     6            Position(A)                                  Velocity(au)
C        -6.07809945    -0.76123784    -0.17097865    -0.00046807    -0.00026428     0.00009092
C        -4.68882778    -0.71629300     0.17767605     0.00022855     0.00022310    -0.00014914
H        -6.54663543     0.07006501    -0.64616157    -0.00006023     0.00059212    -0.00054106
H        -6.57532978    -1.69946589    -0.06164498    -0.00075912     0.00043590    -0.00084065
H        -4.21862595    -1.60266105     0.53800821    -0.00010381     0.00025816     0.00081616
C        -3.91124481     0.41418683    -0.03390376    -0.00047056    -0.00017568    -0.00015407
C        -2.52241475     0.48326265     0.20596638     0.00046129    -0.00015352     0.00032274
H        -4.39615372     1.35227873    -0.39260010     0.00040195     0.00105081     0.00051230
H        -1.92860412    -0.38760863     0.65054719     0.00132009     0.00017042     0.00009096
C        -1.80900502     1.70996538     0.04176290     0.00000516    -0.00005795    -0.00011996
H        -2.47280062     2.53795265    -0.20304216     0.00016855    -0.00080521     0.00018598
N        -0.52354394     1.80382144     0.14063369     0.00012589     0.00024867     0.00009753
H        -0.13150360     2.73281461     0.08291529    -0.00001289     0.00061652    -0.00039548
H         0.09101142     1.10720842     0.46369561     0.00019910    -0.00067033    -0.00107026
    14
  Step:     7            Position(A)                                  Velocity(au)
C        -6.08307220    -0.76416303    -0.16995127    -0.00044141    -0.00026545     0.00009482
C        -4.68636305    -0.71371269     0.17597958     0.00022045     0.00024607    -0.00016010
H        -6.54789166     0.07723735    -0.65235984    -0.00015410     0.00068772    -0.00057478
H        -6.58448094    -1.69526956    -0.07079345    -0.00091981     0.00031033    -0.00082707
H        -4.21938474    -1.60074245     0.54736419    -0.00003713     0.00010335     0.00088672
C        -3.91687775     0.41223143    -0.03565594    -0.00055277    -0.00017947    -0.00016536
C        -2.51675050     0.48165797     0.20964278     0.00056928    -0.00013997     0.00034809
H        -4.39146787     1.36302888    -0.38678992     0.00045390     0.00089896     0.00055014
H        -1.91539570    -0.38466890     0.65057537     0.00109036     0.00036302    -0.00008350
C        -1.80947828     1.70902339     0.04044699    -0.00008720    -0.00011567    -0.00011969
H        -2.47006061     2.52984796    -0.20125643     0.00031354    -0.00065267     0.00013354
N        -0.52194187     1.80677081     0.14168779     0.00016629     0.00028976     0.00009570
H        -0.13112829     2.73972447     0.07852986     0.00007711     0.00062859    -0.00040393
H         0.09405615     1.09819761     0.45252401     0.00034064    -0.00095023    -0.00098407
    14
  Step:     8            Position(A)                                  Velocity(au)
C        -6.08775625    -0.76704501    -0.16890438    -0.00041527    -0.00025703     0.00009464
C        -4.68400507    -0.71090971     0.17417351     0.00020810     0.00026213    -0.00016885
H        -6.55000677     0.08511014    -0.65873588    -0.00021657     0.00071876    -0.00057237
H        -6.59545244    -1.69267672    -0.07973866    -0.00108660     0.00015204    -0.00080473
H        -4.21943825    -1.60039997     0.55740689     0.00002155    -0.00002269     0.00093852
C        -3.92333779     0.41026068    -0.03752142    -0.00061956    -0.00017775    -0.00017460
C        -2.50996063     0.48020057     0.21358151     0.00066467    -0.00012675     0.00037020
H        -4.38622371     1.37194516    -0.38056464     0.00050094     0.00072072     0.00058592
H        -1.90475042    -0.37966697     0.64872050     0.00085848     0.00053992    -0.00024912
C        -1.81091262     1.70743490     0.03914435    -0.00016925    -0.00017496    -0.00011760
H        -2.46594123     2.52367424    -0.20012072     0.00041958    -0.00045508     0.00006786
N        -0.51990607     1.81016040     0.14272722     0.00020545     0.00032779     0.00009512
H        -0.12981662     2.74656630     0.07407854     0.00015817     0.00060556    -0.00040751
H         0.09846363     1.08642043     0.44216730     0.00043736    -0.00116163    -0.00092567
    14
  Step:     9            Position(A)                                  Velocity(au)
C        -6.09215692    -0.76978611    -0.16788080    -0.00038964    -0.00024079     0.00009082
C        -4.68181049    -0.70797813     0.17228568     0.00018984     0.00026836    -0.00017480
H        -6.55262955     0.09296151    -0.66488145    -0.00024800     0.00068574    -0.00053340
H        -6.60825233    -1.69194333    -0.08839857    -0.00124769    -0.00001850    -0.00077606
H        -4.21891324    -1.60123874     0.56789605     0.00006625    -0.00010781     0.00096602
C        -3.93043192     0.40834280    -0.03947557    -0.00066750    -0.00016939    -0.00018147
C        -2.50220960     0.47888499     0.21774169     0.00074351    -0.00011394     0.00038818
H        -4.38050889     1.37879606    -0.37397174     0.00053715     0.00052698     0.00061526
H        -1.89661485    -0.37285712     0.64512538     0.00063864     0.00068588    -0.00039757
C        -1.81318093     1.70519574     0.03787434    -0.00023875    -0.00023345    -0.00011384
H        -2.46088150     2.51989232    -0.19977193     0.00048664    -0.00022079    -0.00000898
N        -0.51744737     1.81394177     0.14376867     0.00024347     0.00036037     0.00009613
H        -0.12766810     2.75297232     0.06961488     0.00023056     0.00055194    -0.00040644
H         0.10362414     1.07278478     0.43227319     0.00047307    -0.00128176    -0.00090070
    14
  Step:    10            Position(A)                                  Velocity(au)
C        -6.09628039    -0.77231277    -0.16691744    -0.00036472    -0.00021915     0.00008396
C        -4.67985192    -0.70503882     0.17034943     0.00016449     0.00026284    -0.00017755
H        -6.55543233     0.10011200    -0.67040500    -0.00025170     0.00059496    -0.00046090
H        -6.62274805    -1.69308148    -0.09671644    -0.00139006    -0.00017899    -0.00074304
H        -4.21798886    -1.60275841     0.57854048     0.00009352    -0.00014525     0.00096570
C        -3.93794059     0.40655490    -0.04149146    -0.00069495    -0.00015390    -0.00018584
C        -2.49369487     0.47770791     0.22207364     0.00080346    -0.00010117     0.00040130
H        -4.37447247     1.38347392    -0.36710471     0.00055730     0.00032934     0.00063419
H        -1.89077900    -0.36466197     0.64002288     0.00044517     0.00078540    -0.00052068
C        -1.81613581     1.70232774     0.03665396    -0.00029426    -0.00028868    -0.00010870
H        -2.45529504     2.51884399    -0.20031727     0.00051932     0.00003684    -0.00009359
N        -0.51457973     1.81804417     0.14483032     0.00027974     0.00038588     0.00009872
H        -0.12477273     2.75864103     0.06518691     0.00029556     0.00047483    -0.00040145
H         0.10881292     1.05837952     0.42246278     0.00044287    -0.00130063    -0.00090888
    14
  Step:    11            Position(A)                                  Velocity(au)
C        -6.10013596    -0.77458042    -0.16604406    -0.00034083    -0.00019475     0.00007471
C        -4.67821199    -0.70222799     0.16840145     0.00013138     0.00024466    -0.00017690
H        -6.55813597     0.10597747    -0.67496451    -0.00023273     0.00045665    -0.00036032
H        -6.63866247    -1.69585903    -0.10465397    -0.00150130    -0.00030889    -0.00070697
H        -4.21686741    -1.60441639     0.58902252     0.00010237    -0.00013378     0.00093626
C        -3.94563535     0.40497583    -0.04354123    -0.00070171    -0.00013143    -0.00018766
C        -2.48463239     0.47667175     0.22652093     0.00084328    -0.00008787     0.00040906
H        -4.36831692     1.38600102    -0.36009771     0.00055696     0.00013977     0.00063922
H        -1.88687594    -0.35567504     0.63373455     0.00029200     0.00082321    -0.00061072
C        -1.81961845     1.69888028     0.03549626    -0.00033511    -0.00033806    -0.00010262
H        -2.44952043     2.52069817    -0.20181939     0.00052615     0.00030014    -0.00018134
N        -0.51132743     1.82238360     0.14592825     0.00031314     0.00040349     0.00010256
H        -0.12120206     2.76336018     0.06083246     0.00035512     0.00038295    -0.00039362
H         0.11331272     1.04433112     0.41238968     0.00035190    -0.00122044    -0.00094541
    14
  Step:    12            Position(A)                                  Velocity(au)
C        -6.10373668    -0.77657326    -0.16528310    -0.00031827    -0.00017003     0.00006372
C        -4.67697781    -0.69968637     0.16647941     0.00009032     0.00021386    -0.00017287
H        -6.56052384     0.11010214    -0.67828766    -0.00019700     0.00028318    -0.00023850
H        -6.65559176    -1.69983900    -0.11218268    -0.00157146    -0.00039260    -0.00066835
H        -4.21574923    -1.60568502     0.59902305     0.00009392    -0.00007695     0.00087864
C        -3.95329192     0.40367965    -0.04559687    -0.00068858    -0.00010266    -0.00018692
C        -2.47524661     0.47578568     0.23102255     0.00086252    -0.00007346     0.00041114
H        -4.36228797     1.38653169    -0.35312055     0.00053267    -0.00002979     0.00062740
H        -1.88439083    -0.34665272     0.62666221     0.00019160     0.00078560    -0.00066114
C        -1.82346690     1.69493211     0.03440901    -0.00036131    -0.00037889    -0.00009611
H        -2.44378444     2.52541012    -0.20428435     0.00051805     0.00054885    -0.00026680
N        -0.50772911     1.82687131     0.14707406     0.00034232     0.00041309     0.00010722
H        -0.11700371     2.76701871     0.05657575     0.00041148     0.00028558    -0.00038430
H         0.11651141     1.03168008     0.40178020     0.00021257    -0.00105308    -0.00100276
    14
  Step:    13            Position(A)                                  Velocity(au)
C        -6.10709862    -0.77830006    -0.16465000    -0.00029721    -0.00014695     0.00005162
C        -4.67623597    -0.69754931     0.16461951     0.00004161     0.00017136    -0.00016571
H        -6.56244572     0.11217262    -0.68018205    -0.00015062     0.00008787    -0.00010292
H        -6.67304116    -1.70444800    -0.11927530    -0.00159433    -0.00042133    -0.00062702
H        -4.21481263    -1.60609984     0.60824453     0.00007078     0.00001787     0.00079567
C        -3.96069938     0.40272995    -0.04763055    -0.00065713    -0.00006882    -0.00018366
C        -2.46576320     0.47506459     0.23551533     0.00086143    -0.00005764     0.00040751
H        -4.35666373     1.38534940    -0.34637210     0.00048205    -0.00016794     0.00059638
H        -1.88268425    -0.33848848     0.61927078     0.00015300     0.00066295    -0.00066781
C        -1.82752276     1.69059127     0.03339364    -0.00037338    -0.00040863    -0.00008977
H        -2.43818711     2.53270542    -0.20765612     0.00050612     0.00076267    -0.00034444
N        -0.50383857     1.83142074     0.14827392     0.00036594     0.00041511     0.00011220
H        -0.11220006     2.76960788     0.05242526     0.00046688     0.00019172    -0.00037494
H         0.11796315     1.02129302     0.39045232     0.00004145    -0.00081693    -0.00107242
    14
  Step:    14            Position(A)                                  Velocity(au)
C        -6.11023877    -0.77978816    -0.16415381    -0.00027765    -0.00012697     0.00003897
C        -4.67606753    -0.69593760     0.16285421    -0.00001404     0.00011883    -0.00015584
H        -6.56381898     0.11202455    -0.68053926    -0.00009973    -0.00011560     0.00003869
H        -6.69047071    -1.70905638    -0.12589988    -0.00156778    -0.00039320    -0.00058242
H        -4.21420083    -1.60529407     0.61642987     0.00003646     0.00014083     0.00069165
C        -3.96766796     0.40217414    -0.04961471    -0.00060956    -0.00003158    -0.00017787
C        -2.45640125     0.47452460     0.23993765     0.00084100    -0.00004064     0.00039853
H        -4.35174225     1.38285768    -0.34007358     0.00040397    -0.00026468     0.00054454
H        -1.88104356    -0.33214948     0.61205256     0.00017925     0.00045321    -0.00063060
C        -1.83163534     1.68599250     0.03244519    -0.00037213    -0.00042509    -0.00008414
H        -2.43271201     2.54209506    -0.21181966     0.00049959     0.00092404    -0.00040938
N        -0.49972349     1.83595271     0.14952868     0.00038286     0.00041043     0.00011704
H        -0.10678990     2.77121290     0.04837318     0.00052321     0.00010915    -0.00036701
H         0.11741829     1.01380810     0.37831890    -0.00014311    -0.00053433    -0.00114599
    14
  Step:    15            Position(A)                                  Velocity(au)
C        -6.11317271    -0.78107773    -0.16379751    -0.00025933    -0.00011102     0.00002631
C        -4.67654323    -0.69494968     0.16121026    -0.00007553     0.00005860    -0.00014386
H        -6.56462741     0.10964372    -0.67933555    -0.00005030    -0.00031358     0.00017863
H        -6.70733936    -1.71304990    -0.13201688    -0.00149346    -0.00031222    -0.00053385
H        -4.21401496    -1.60301899     0.62337560    -0.00000504     0.00028059     0.00057189
C        -3.97403476     0.40203912    -0.05152190    -0.00054849     0.00000709    -0.00016959
C        -2.44736481     0.47417562     0.24423400     0.00080302    -0.00002345     0.00038500
H        -4.34782610     1.37955895    -0.33445922     0.00029882    -0.00031261     0.00047127
H        -1.87876289    -0.32857367     0.60547511     0.00026500     0.00016540    -0.00055470
C        -1.83566373     1.68129154     0.03155293    -0.00035849    -0.00042673    -0.00007969
H        -2.42725770     2.55292052    -0.21661205     0.00050428     0.00102050    -0.00045802
N        -0.49546270     1.84039972     0.15083434     0.00039222     0.00040029     0.00012132
H        -0.10075378     2.77199574     0.04439619     0.00058179     0.00004379    -0.00036181
H         0.11483227     1.00960357     0.36538149    -0.00032248    -0.00022980    -0.00121586
    14
  Step:    16            Position(A)                                  Velocity(au)
C        -6.11591221    -0.78221688    -0.16357820    -0.00024183    -0.00009966     0.00001418
C        -4.67771999    -0.69465559     0.15970707    -0.00014149    -0.00000654    -0.00013049
H        -6.56491937     0.10516438    -0.67663134    -0.00000813    -0.00049267     0.00030931
H        -6.72314292    -1.71588683    -0.13757892    -0.00137605    -0.00018685    -0.00048066
H        -4.21431114    -1.59915564     0.62894107    -0.00004955     0.00042506     0.00044244
C        -3.97966733     0.40232925    -0.05332489    -0.00047682     0.00004514    -0.00015885
C        -2.43883373     0.47401149     0.24836025     0.00075010    -0.00000803     0.00036816
H        -4.34520490     1.37601866    -0.32976357     0.00016869    -0.00030819     0.00037722
H        -1.87524617    -0.32853095     0.59991741     0.00039555    -0.00017861    -0.00045088
C        -1.83947798     1.67665686     0.03070174    -0.00033345    -0.00041281    -0.00007675
H        -2.42167986     2.56442050    -0.22183966     0.00052222     0.00104601    -0.00048841
N        -0.49114283     1.84470976     0.15218289     0.00039343     0.00038626     0.00012473
H        -0.09406208     2.77217087     0.04045779     0.00064305    -0.00000092    -0.00036039
H         0.11036332     1.00878086     0.35171958    -0.00047854     0.00007098    -0.00127550
    14
  Step:    17            Position(A)                                  Velocity(au)
C        -6.11846319    -0.78325809    -0.16348719    -0.00022454    -0.00009320     0.00000311
C        -4.67963851    -0.69509274     0.15835549    -0.00021037    -0.00007351    -0.00011656
H        -6.56480534     0.09886553    -0.67256890     0.00002127    -0.00064000     0.00042345
H        -6.73744316    -1.71713754    -0.14253222    -0.00122243    -0.00002826    -0.00042236
H        -4.21509899    -1.59372004     0.63305477    -0.00009281     0.00056189     0.00030978
C        -3.98446607     0.40302664    -0.05499701    -0.00039756     0.00008068    -0.00014572
C        -2.43095497     0.47400004     0.25228816     0.00068550     0.00000301     0.00034956
H        -4.34413566     1.37281668    -0.32620679     0.00001755    -0.00025291     0.00026448
H        -1.87010944    -0.33248109     0.59561115     0.00054826    -0.00054572    -0.00033423
C        -1.84295859     1.67226058     0.02987384    -0.00029798    -0.00038341    -0.00007547
H        -2.41583321     2.57580399    -0.22729698     0.00055201     0.00100085    -0.00050025
N        -0.48685562     1.84884979     0.15356297     0.00038615     0.00037020     0.00012697
H        -0.08668594     2.77197565     0.03651202     0.00070635    -0.00002433    -0.00036337
H         0.10436324     1.01115633     0.33747752    -0.00059428     0.00034200    -0.00131966
    14
  Step:    18            Position(A)                                  Velocity(au)
C        -6.12082438    -0.78425577    -0.16351012    -0.00020676    -0.00009170    -0.00000641
C        -4.68232233    -0.69626383     0.15715700    -0.00028065    -0.00013915    -0.00010294
H        -6.56445411     0.09116318    -0.66736758     0.00003286    -0.00074367     0.00051440
H        -6.74988595    -1.71650513    -0.14681894    -0.00104085     0.00015089    -0.00035870
H        -4.21634160    -1.58686332     0.63571805    -0.00013062     0.00067894     0.00018062
C        -3.98836482     0.40409425    -0.05651278    -0.00031377     0.00011221    -0.00013037
C        -2.42383702     0.47407737     0.25600751     0.00061280     0.00000682     0.00033079
H        -4.34482102     1.37048572    -0.32397764    -0.00014864    -0.00015418     0.00013672
H        -1.86325201    -0.34046963     0.59260546     0.00069660    -0.00089691    -0.00022130
C        -1.84599688     1.66826912     0.02905068    -0.00025309    -0.00033946    -0.00007584
H        -2.40960357     2.58631603    -0.23278363     0.00058982     0.00089083    -0.00049466
N        -0.48269505     1.85280867     0.15496062     0.00037031     0.00035419     0.00012786
H        -0.07860937     2.77163872     0.03250831     0.00076997    -0.00002858    -0.00037094
H         0.09736239     1.01626274     0.32284959    -0.00065457     0.00055826    -0.00134460
    14
  Step:    19            Position(A)                                  Velocity(au)
C        -6.12298643    -0.78526412    -0.16362735    -0.00018775    -0.00009502    -0.00001394
C        -4.68577818    -0.69813700     0.15610351    -0.00035083    -0.00020041    -0.00009047
H        -6.56408644     0.08259625    -0.66131537     0.00002242    -0.00079360     0.00057657
H        -6.76021365    -1.71383659    -0.15037956    -0.00084049     0.00033724    -0.00028963
H        -4.21795651    -1.57886683     0.63700610    -0.00015892     0.00076481     0.00006160
C        -3.99133045     0.40548134    -0.05784902    -0.00022838     0.00013876    -0.00011305
C        -2.41754887     0.47414927     0.25952492     0.00053540     0.00000106     0.00031320
H        -4.34738735     1.36944373    -0.32321573    -0.00032204    -0.00002519    -0.00000087
H        -1.85486988    -0.35210281     0.59076987     0.00081567    -0.00119496    -0.00012669
C        -1.84849539     1.66483423     0.02821479    -0.00019982    -0.00028267    -0.00007767
H        -2.40292976     2.59529270    -0.23811871     0.00063033     0.00072604    -0.00047389
N        -0.47875448     1.85659841     0.15636016     0.00034610     0.00034027     0.00012729
H        -0.06984131     2.77135050     0.02839689     0.00083118    -0.00001821    -0.00038279
H         0.09004333     1.02336930     0.30806184    -0.00064751     0.00069793    -0.00134843
    14
  Step:    20            Position(A)                                  Velocity(au)
C        -6.12493174    -0.78633455    -0.16381501    -0.00016680    -0.00010275    -0.00001918
C        -4.68999731    -0.70064829     0.15517776    -0.00041959    -0.00025457    -0.00007995
H        -6.56396369     0.07380166    -0.65475408    -0.00001285    -0.00078282     0.00060618
H        -6.76827337    -1.70912728    -0.15315505    -0.00063120     0.00051722    -0.00021525
H        -4.21981833    -1.57013154     0.63706560    -0.00017404     0.00080938    -0.00004106
C        -3.99336102     0.40712998    -0.05898595    -0.00014411     0.00015998    -0.00009413
C        -2.41212416     0.47410055     0.26285931     0.00045622    -0.00001551     0.00029760
H        -4.35186624     1.36993474    -0.32399657    -0.00049348     0.00011644    -0.00014200
H        -1.84540766    -0.36661162     0.58983387     0.00088684    -0.00141148    -0.00006042
C        -1.85036839     1.66208524     0.02735148    -0.00013931    -0.00021537    -0.00008065
H        -2.39581400     2.60219958    -0.24315092     0.00066766     0.00051937    -0.00044093
N        -0.47512336     1.86025274     0.15774526     0.00031412     0.00033018     0.00012526