|===============================================================================
|
|  DFTB+ release 20.1
|
|  Copyright (C) 2006 - 2020  DFTB+ developers group
|
|===============================================================================
|
|  When publishing results obtained with DFTB+, please cite the following
|  reference:
|
|  * DFTB+, a software package for efficient approximate density functional
|    theory based atomistic simulations, J. Chem. Phys. 152, 124101 (2020).
|    [doi: 10.1063/1.5143190]
|
|  You should also cite additional publications crediting the parametrization
|  data you use. Please consult the documentation of the SK-files for the
|  references.
|
|===============================================================================

Reading input file 'dftb_in.hsd'
Parser version: 8

--------------------------------------------------------------------------------
Reading SK-files:
Done.


Processed input in HSD format written to 'dftb_pin.hsd'

Starting initialization...
--------------------------------------------------------------------------------
OpenMP threads:              1
Chosen random seed:          500841584
Mode:                        Static calculation
Self consistent charges:     Yes
SCC-tolerance:                 0.100000E-05
Max. scc iterations:                   1000
Shell resolved Hubbard:      No
Spin polarisation:           No
Nr. of up electrons:            16.000000
Nr. of down electrons:          16.000000
Periodic boundaries:         No
Electronic solver:           Relatively robust
Maximal SCC-cycles:                    1000
Initial charges:             Set automatically (system chrg:   0.100E+01)
Included shells:             C:  s, p
                             H:  s
                             N:  s, p
Spin coupling constants:     C   1(s)-1(s):  -0.455900E-01
                             C   1(s)-2(p):  -0.293000E-01
                             C   2(p)-1(s):  -0.293000E-01
                             C   2(p)-2(p):  -0.275500E-01
                             H   1(s)-1(s):  -0.792500E-01
                             N   1(s)-1(s):  -0.468700E-01
                             N   1(s)-2(p):  -0.317000E-01
                             N   2(p)-1(s):  -0.317000E-01
                             N   2(p)-2(p):  -0.307200E-01
Range separated hybrid:      Yes
  Screening parameter omega:   0.300000E+00
  Range separated algorithm:   MatrixBased
Extra options:
                             Mulliken analysis
                             Force calculation
Force type                   original
                             Eigenvector printing


REKS Calcuation:             Yes
SSR(2,2) Calcuation:         Yes
Energy Functional:           (PPS+OSS)/2
Number of Core Orbitals:                 15
Number of Active Orbitals:                2
Number of Basis:                         32
Number of States:                         2
State-Averaging Weight:          0.500000
                                 0.500000
State of Interest:                        1
Initial Guess:               Diagonalize H0 matrix
Newton-Raphson for FON opt:  Yes
NR max. Iterations:                      50
Level Shifting:              Yes
Shift Value:                     0.300000
W Scale Factor:              C  =    3.200000
                             H  =    3.200000
                             N  =    3.200000
Transition Dipole:           No
Gradient of Microstate:      No
CP-REKS Solver:              Preconditioned Conjugate-Gradient
CG max. Iterations:                     100
CG Tolerance:                  0.100000E-07
Memory for A and Hxc:        Direct Updating Without Saving
Non-Adiabatic Coupling:      Yes

--------------------------------------------------------------------------------

***  Geometry step: 0

  iSCC       reks energy        Diff energy         x_a       SCC error   
    1      -16.4039637409       0.0000000000     0.999975    1.21291820
    2      -16.4147595136      -0.0107957727     0.999998    0.03766351
    3      -16.4171840977      -0.0024245840     0.999999    0.01457459
    4      -16.4180448502      -0.0008607526     1.000000    0.00729000
    5      -16.4184666691      -0.0004218189     1.000000    0.00422651
    6      -16.4187350622      -0.0002683931     1.000000    0.00332209
    7      -16.4189409711      -0.0002059089     1.000000    0.00274509
    8      -16.4191177902      -0.0001768191     1.000000    0.00235451
    9      -16.4192790460      -0.0001612558     1.000000    0.00207763
   10      -16.4194306050      -0.0001515590     1.000000    0.00192321
   11      -16.4195751230      -0.0001445180     1.000000    0.00189698
   12      -16.4197138175      -0.0001386944     1.000000    0.00185717
   13      -16.4198472237      -0.0001334063     1.000000    0.00180861
   14      -16.4199755387      -0.0001283150     1.000000    0.00176246
   15      -16.4200987860      -0.0001232473     1.000000    0.00171861
   16      -16.4202169007      -0.0001181147     1.000000    0.00166935
   17      -16.4203297768      -0.0001128761     1.000000    0.00161577
   18      -16.4204372957      -0.0001075189     1.000000    0.00155865
   19      -16.4205393450      -0.0001020493     1.000000    0.00149856
   20      -16.4206358315      -0.0000964865     1.000000    0.00143604
   21      -16.4207266911      -0.0000908596     1.000000    0.00139875
   22      -16.4208118952      -0.0000852041     1.000000    0.00137154
   23      -16.4208914551      -0.0000795599     1.000000    0.00134032
   24      -16.4209654240      -0.0000739689     1.000000    0.00130547
   25      -16.4210338974      -0.0000684733     1.000000    0.00126743
   26      -16.4210970108      -0.0000631134     1.000000    0.00122664
   27      -16.4211549372      -0.0000579264     1.000000    0.00118357
   28      -16.4212078824      -0.0000529452     1.000000    0.00113870
   29      -16.4212560795      -0.0000481971     1.000000    0.00109249
   30      -16.4212997836      -0.0000437041     1.000000    0.00104541
   31      -16.4213392655      -0.0000394819     1.000000    0.00099787
   32      -16.4213748058      -0.0000355403     1.000000    0.00095027
   33      -16.4214066897      -0.0000318839     1.000000    0.00090297
   34      -16.4214352019      -0.0000285121     1.000000    0.00085627
   35      -16.4214606219      -0.0000254201     1.000000    0.00081045
   36      -16.4214832213      -0.0000225993     1.000000    0.00076574
   37      -16.4215032598      -0.0000200385     1.000000    0.00072233
   38      -16.4215209839      -0.0000177242     1.000000    0.00068036
   39      -16.4215366252      -0.0000156413     1.000000    0.00063995
   40      -16.4215503991      -0.0000137739     1.000000    0.00060119
   41      -16.4215625048      -0.0000121057     1.000000    0.00056413
   42      -16.4215731250      -0.0000106202     1.000000    0.00052879
   43      -16.4215824265      -0.0000093015     1.000000    0.00049519
   44      -16.4215905605      -0.0000081340     1.000000    0.00046332
   45      -16.4215976634      -0.0000071029     1.000000    0.00043315
   46      -16.4216038578      -0.0000061945     1.000000    0.00040465
   47      -16.4216092536      -0.0000053957     1.000000    0.00037778
   48      -16.4216139484      -0.0000046948     1.000000    0.00035247
   49      -16.4216180292      -0.0000040808     1.000000    0.00032867
   50      -16.4216215730      -0.0000035438     1.000000    0.00030633
   51      -16.4216246479      -0.0000030749     1.000000    0.00028537
   52      -16.4216273139      -0.0000026659     1.000000    0.00026573
   53      -16.4216296235      -0.0000023097     1.000000    0.00024735
   54      -16.4216316232      -0.0000019997     1.000000    0.00023016
   55      -16.4216333535      -0.0000017303     1.000000    0.00021409
   56      -16.4216348498      -0.0000014963     1.000000    0.00019909
   57      -16.4216361432      -0.0000012933     1.000000    0.00018509
   58      -16.4216372606      -0.0000011174     1.000000    0.00017203
   59      -16.4216382255      -0.0000009649     1.000000    0.00015985
   60      -16.4216390584      -0.0000008329     1.000000    0.00014851
   61      -16.4216397772      -0.0000007187     1.000000    0.00013795
   62      -16.4216403972      -0.0000006200     1.000000    0.00012811
   63      -16.4216409318      -0.0000005346     1.000000    0.00011896
   64      -16.4216413927      -0.0000004609     1.000000    0.00011044
   65      -16.4216417900      -0.0000003972     1.000000    0.00010252
   66      -16.4216421323      -0.0000003423     1.000000    0.00009516
   67      -16.4216424271      -0.0000002949     1.000000    0.00008831
   68      -16.4216426811      -0.0000002540     1.000000    0.00008195
   69      -16.4216428998      -0.0000002187     1.000000    0.00007604
   70      -16.4216430881      -0.0000001883     1.000000    0.00007055
   71      -16.4216432502      -0.0000001621     1.000000    0.00006545
   72      -16.4216433897      -0.0000001395     1.000000    0.00006071
   73      -16.4216435097      -0.0000001201     1.000000    0.00005632
   74      -16.4216436130      -0.0000001033     1.000000    0.00005224
   75      -16.4216437019      -0.0000000889     1.000000    0.00004845
   76      -16.4216437784      -0.0000000765     1.000000    0.00004493
   77      -16.4216438441      -0.0000000658     1.000000    0.00004167
   78      -16.4216439007      -0.0000000566     1.000000    0.00003864
   79      -16.4216439494      -0.0000000486     1.000000    0.00003583
   80      -16.4216439912      -0.0000000418     1.000000    0.00003323
   81      -16.4216440272      -0.0000000360     1.000000    0.00003081
   82      -16.4216440581      -0.0000000309     1.000000    0.00002857
   83      -16.4216440847      -0.0000000266     1.000000    0.00002649
   84      -16.4216441075      -0.0000000229     1.000000    0.00002456
   85      -16.4216441272      -0.0000000197     1.000000    0.00002277
   86      -16.4216441441      -0.0000000169     1.000000    0.00002111
   87      -16.4216441586      -0.0000000145     1.000000    0.00001957
   88      -16.4216441711      -0.0000000125     1.000000    0.00001814
   89      -16.4216441818      -0.0000000107     1.000000    0.00001682
   90      -16.4216441911      -0.0000000092     1.000000    0.00001559
   91      -16.4216441990      -0.0000000079     1.000000    0.00001445
   92      -16.4216442058      -0.0000000068     1.000000    0.00001340
   93      -16.4216442117      -0.0000000059     1.000000    0.00001242
   94      -16.4216442167      -0.0000000050     1.000000    0.00001151
   95      -16.4216442210      -0.0000000043     1.000000    0.00001067
   96      -16.4216442247      -0.0000000037     1.000000    0.00000989
   97      -16.4216442279      -0.0000000032     1.000000    0.00000917
   98      -16.4216442307      -0.0000000027     1.000000    0.00000850
   99      -16.4216442330      -0.0000000024     1.000000    0.00000788
  100      -16.4216442350      -0.0000000020     1.000000    0.00000730
  101      -16.4216442368      -0.0000000017     1.000000    0.00000677
  102      -16.4216442383      -0.0000000015     1.000000    0.00000628
  103      -16.4216442396      -0.0000000013     1.000000    0.00000582
  104      -16.4216442407      -0.0000000011     1.000000    0.00000539
  105      -16.4216442416      -0.0000000009     1.000000    0.00000500
  106      -16.4216442424      -0.0000000008     1.000000    0.00000463
  107      -16.4216442431      -0.0000000007     1.000000    0.00000429
  108      -16.4216442437      -0.0000000006     1.000000    0.00000398
  109      -16.4216442443      -0.0000000005     1.000000    0.00000369
  110      -16.4216442447      -0.0000000004     1.000000    0.00000342
  111      -16.4216442451      -0.0000000004     1.000000    0.00000317
  112      -16.4216442454      -0.0000000003     1.000000    0.00000294
  113      -16.4216442457      -0.0000000003     1.000000    0.00000272
  114      -16.4216442459      -0.0000000002     1.000000    0.00000252
  115      -16.4216442461      -0.0000000002     1.000000    0.00000234
  116      -16.4216442463      -0.0000000002     1.000000    0.00000217
  117      -16.4216442465      -0.0000000002     1.000000    0.00000201
  118      -16.4216442466      -0.0000000001     1.000000    0.00000186
  119      -16.4216442467      -0.0000000001     1.000000    0.00000173
  120      -16.4216442468      -0.0000000001     1.000000    0.00000160
  121      -16.4216442469      -0.0000000001     1.000000    0.00000148
  122      -16.4216442470      -0.0000000001     1.000000    0.00000137
  123      -16.4216442470      -0.0000000001     1.000000    0.00000127
  124      -16.4216442471      -0.0000000001     1.000000    0.00000118
  125      -16.4216442471      -0.0000000000     1.000000    0.00000109
  126      -16.4216442472      -0.0000000000     1.000000    0.00000101
  127      -16.4216442472      -0.0000000000     1.000000    0.00000094
  
--------------------------------------------------
 Final SA-REKS(2,2) energy:     -16.42164425
  
 State     Energy      FON(1)    FON(2)   Spin
  PPS  -16.48441221   2.000000  0.000000  0.00
  OSS  -16.35887628   1.000000  1.000000  0.00
 Trip  -16.37878802   1.000000  1.000000  1.00
--------------------------------------------------

 Lagrangian Wab:  -0.00042282 -0.00042298

--------------------------------------------------
 SSR: 2SI-2SA-REKS(2,2) Hamiltonian matrix
               PPS           OSS
   PPS   -16.48441221   -0.00059790
   OSS    -0.00059790  -16.35887628
--------------------------------------------------

----------------------------------------------------------------
 SSR: 2SI-2SA-REKS(2,2) states
                    E_n       C_{PPS}    C_{OSS}
 SSR state  1  -16.48441506  -0.999989  -0.004763
 SSR state  2  -16.35887343   0.004763  -0.999989
----------------------------------------------------------------

 unrelaxed SSR FONs for S0:  1.999977  0.000023

Total Energy:                      -16.4844150601 H         -448.5638 eV
Extrapolated to 0:                 -16.4844150601 H         -448.5638 eV

----------------------------------------------------------------------------------
 Solving CP-REKS equation for  1 state vector...
----------------------------------------------------------------------------------
  CG solver: Constructing Y initial guess
  CG solver: Iteration    1    eps =    0.000162594890
  CG solver: Iteration    2    eps =    0.000030690454
  CG solver: Iteration    3    eps =    0.000010444129
  CG solver: Iteration    4    eps =    0.000003283947
  CG solver: Iteration    5    eps =    0.000001808292
  CG solver: Iteration    6    eps =    0.000000478152
  CG solver: Iteration    7    eps =    0.000000039619
  CG solver: Iteration    8    eps =    0.000000005973
  Convergence reached in CG solver after    8 iterations
  CG solver: Calculating converged R, Z, Q2 matrix
----------------------------------------------------------------------------------

----------------------------------------------------------------------------------
 Solving CP-REKS equation for SI between  1 and  2 state vectors...
----------------------------------------------------------------------------------
  CG solver: Constructing Y initial guess
  CG solver: Iteration    1    eps =    0.000857463458
  CG solver: Iteration    2    eps =    0.000272100396
  CG solver: Iteration    3    eps =    0.000035771042
  CG solver: Iteration    4    eps =    0.000032586027
  CG solver: Iteration    5    eps =    0.000016721949
  CG solver: Iteration    6    eps =    0.000001796471
  CG solver: Iteration    7    eps =    0.000000467260
  CG solver: Iteration    8    eps =    0.000000073526
  CG solver: Iteration    9    eps =    0.000000010979
  CG solver: Iteration   10    eps =    0.000000001399
  Convergence reached in CG solver after   10 iterations
  CG solver: Calculating converged R, Z, Q2 matrix
----------------------------------------------------------------------------------

--------------------------------------------------
 Gradient Information
--------------------------------------------------
           1 st state (SSR)
     0.05734584    -0.06975023    -0.07113359
    -0.08622579     0.02646659     0.05899233
    -0.01332835     0.03046235    -0.01693296
     0.01224520     0.01109255     0.01909219
     0.00034503    -0.02180263    -0.00540666
     0.04768547    -0.01906432     0.00811491
    -0.03564276     0.02416885    -0.01039224
    -0.00496233     0.01737344     0.00287618
    -0.00422054    -0.00906116     0.01063713
    -0.00707726     0.04002704     0.00179203
     0.02200103    -0.00735347    -0.01696588
     0.00693642    -0.00793345     0.01803224
     0.00167405     0.00460606     0.00489534
     0.00322399    -0.01923160    -0.00360101

           2 st state (SSR)
     0.07469151    -0.08147778    -0.09313520
    -0.09198757     0.02782860     0.09806296
     0.00507589     0.03288231    -0.01090767
    -0.00605321     0.00363186     0.00599129
     0.01041026    -0.01816557     0.00541888
     0.02751913     0.01044154     0.00417807
    -0.05650084     0.01116461    -0.03137173
     0.00769016     0.01836217    -0.00092743
    -0.00510349    -0.00653954     0.01380141
     0.07727754     0.03740369     0.00674985
     0.02052483     0.00268203    -0.00834938
    -0.07403472    -0.03001089     0.00786897
     0.00484528     0.00056511     0.00742449
     0.00564521    -0.00876813    -0.00480450
--------------------------------------------------
 Coupling Information
--------------------------------------------------
 between  1 and  2 states
--------------------------------------------------
 g vector - difference gradient
    -0.00865522     0.00585136     0.01090432
     0.00280355    -0.00075807    -0.01945376
    -0.00921063    -0.00120428    -0.00302090
     0.00917152     0.00373758     0.00655743
    -0.00501622    -0.00181745    -0.00540736
     0.01010265    -0.01463427     0.00196701
     0.01043848     0.00645162     0.01048183
    -0.00633823    -0.00049648     0.00192412
     0.00044040    -0.00125818    -0.00158276
    -0.04215660     0.00131526    -0.00248850
     0.00073034    -0.00502126    -0.00430842
     0.04048539     0.01104470     0.00508986
    -0.00158523     0.00202508    -0.00126367
    -0.00121020    -0.00523560     0.00060080

 h vector - derivative coupling
    -0.00189033     0.00133155     0.01018106
     0.00813247     0.00808656    -0.00865485
     0.00084951    -0.00060417     0.00085176
    -0.00229930    -0.00074083    -0.00070206
    -0.00174534    -0.00012159    -0.00059334
    -0.00199685    -0.01252749     0.00015763
    -0.00094134     0.00533272     0.00088118
     0.00122821     0.00022011    -0.00233384
     0.00011447    -0.00028244     0.00005778
    -0.00238441    -0.00037017     0.00099446
     0.00081812     0.00034432    -0.00000225
     0.00021212    -0.00057547    -0.00083870
    -0.00004798    -0.00047447    -0.00010048
    -0.00004934     0.00038136     0.00010165

 G vector - GDV
    -0.00867284     0.00586377     0.01100080
     0.00288089    -0.00068101    -0.01953531
    -0.00920212    -0.00120998    -0.00301265
     0.00914920     0.00373035     0.00655045
    -0.00503261    -0.00181853    -0.00541277
     0.01008317    -0.01475293     0.00196842
     0.01042904     0.00650212     0.01048974
    -0.00632624    -0.00049437     0.00190181
     0.00044147    -0.00126081    -0.00158214
    -0.04217740     0.00131168    -0.00247891
     0.00073810    -0.00501775    -0.00430825
     0.04048557     0.01103872     0.00508164
    -0.00158562     0.00202047    -0.00126457
    -0.00121061    -0.00523173     0.00060175

 H vector - DCV - non-adiabatic coupling
    -0.01439998     0.01016204     0.08026605
     0.06456342     0.06446796    -0.06746093
     0.00746531    -0.00472090     0.00701361
    -0.01901010    -0.00618435    -0.00608950
    -0.01352127    -0.00083061    -0.00431577
    -0.01667168    -0.09867265     0.00110631
    -0.00828992     0.04198627     0.00622345
     0.01026373     0.00179090    -0.01873535
     0.00087833    -0.00215423     0.00058031
    -0.01579364    -0.00304824     0.00810984
     0.00646102     0.00312352     0.00030896
    -0.00138218    -0.00542165    -0.00706657
    -0.00026186    -0.00393287    -0.00070446
    -0.00030118     0.00343481     0.00076403
--------------------------------------------------


--------------------------------------------------------------------------------
DFTB+ running times                          cpu [s]             wall clock [s]
--------------------------------------------------------------------------------
SCC                                    +     0.18  ( 39.8%)      0.19  ( 39.9%)
      Dense to sparse                        0.03  (  7.5%)      0.04  (  7.5%)
      Range separated Hamiltonian            0.02  (  3.5%)      0.02  (  3.9%)
  Density matrix creation                    0.02  (  4.3%)      0.02  (  3.9%)
Post-SCC processing                    +     0.27  ( 59.8%)      0.28  ( 59.3%)
  Force calculation                          0.27  ( 59.8%)      0.27  ( 59.1%)
--------------------------------------------------------------------------------
Missing                                +     0.00  (  0.3%)      0.00  (  0.9%)
Total                                  =     0.46  (100.0%)      0.46  (100.0%)
--------------------------------------------------------------------------------
