     6
  Step:     0            Position(A)                                  Velocity(au)
C        -0.04006387     0.01935044     0.02485817    -0.00011914     0.00006604    -0.00034033
N        -0.05229920    -0.03832334     1.29695603     0.00011619    -0.00008701     0.00037283
H         0.95232308    -0.06406899    -0.55249403     0.00027186    -0.00019522     0.00052810
H         0.91719108    -0.17042926     1.86477192     0.00010999     0.00035925    -0.00036470
H        -0.89350858    -0.15820005     1.80851926    -0.00048626     0.00030652    -0.00049823
H        -0.98477117     0.02489299    -0.54792480    -0.00009050    -0.00004840    -0.00079076
     6
  Step:     1            Position(A)                                  Velocity(au)
C        -0.04068557     0.01971717     0.02282241    -0.00010842     0.00006800    -0.00040188
N        -0.05157811    -0.03880172     1.29915651     0.00014718    -0.00008785     0.00042971
H         0.95356235    -0.06513718    -0.54959722     0.00018215    -0.00019535     0.00052964
H         0.91699395    -0.16837839     1.86238840    -0.00018008     0.00039004    -0.00050398
H        -0.89660611    -0.15665522     1.80619701    -0.00064468     0.00025898    -0.00035119
H        -0.98532796     0.02464302    -0.55243630    -0.00011079    -0.00004312    -0.00085703
     6
  Step:     2            Position(A)                                  Velocity(au)
C        -0.04124987     0.02009429     0.02046192    -0.00009819     0.00006979    -0.00045854
N        -0.05068911    -0.03928441     1.30165670     0.00017713    -0.00008853     0.00048197
H         0.95431569    -0.06620592    -0.54670022     0.00009484    -0.00019537     0.00052751
H         0.91522115    -0.16616252     1.85925880    -0.00046368     0.00041909    -0.00063579
H        -0.90056090    -0.15536697     1.80467754    -0.00079645     0.00021297    -0.00020648
H        -0.98598308     0.02442134    -0.55730003    -0.00012621    -0.00003802    -0.00091885
     6
  Step:     3            Position(A)                                  Velocity(au)
C        -0.04175996     0.02048081     0.01780492    -0.00008858     0.00007135    -0.00050947
N        -0.04963985    -0.03977049     1.30443035     0.00020518    -0.00008899     0.00052891
H         0.95460012    -0.06727497    -0.54382500     0.00001143    -0.00019530     0.00052075
H         0.91192024    -0.16379262     1.85543142    -0.00073540     0.00044556    -0.00075673
H        -0.90532113    -0.15432478     1.80393765    -0.00093538     0.00016919    -0.00006786
H        -0.98670894     0.02422701    -0.56249067    -0.00013635    -0.00003306    -0.00097527
     6
  Step:     4            Position(A)                                  Velocity(au)
C        -0.04221974     0.02087543     0.01488400    -0.00007974     0.00007261    -0.00055382
N        -0.04844265    -0.04025869     1.30744750     0.00023042    -0.00008914     0.00056978
H         0.95444081    -0.06834415    -0.54099873    -0.00006649    -0.00019514     0.00050844
H         0.90716955    -0.16128427     1.85097373    -0.00098891     0.00046854    -0.00086297
H        -0.91080199    -0.15351457     1.80393457    -0.00105551     0.00012827     0.00006114
H        -0.98747591     0.02405940    -0.56797777    -0.00014088    -0.00002819    -0.00102522
     6
  Step:     5            Position(A)                                  Velocity(au)
C        -0.04263375     0.02127644     0.01173604    -0.00007177     0.00007350    -0.00059080
N        -0.04711486    -0.04074729     1.31067420     0.00025190    -0.00008890     0.00060382
H         0.95387145    -0.06941332    -0.53825338    -0.00013730    -0.00019489     0.00048979
H         0.90108354    -0.15865825     1.84597474    -0.00121689     0.00048702    -0.00095033
H        -0.91688773    -0.15291915     1.80460766    -0.00115149     0.00009076     0.00017740
H        -0.98825275     0.02391812    -0.57372533    -0.00013957    -0.00002337    -0.00106766
     6
  Step:     6            Position(A)                                  Velocity(au)
C        -0.04300719     0.02168186     0.00840192    -0.00006480     0.00007398    -0.00061976
N        -0.04567889    -0.04123408     1.31407235     0.00026872    -0.00008819     0.00063028
H         0.95293443    -0.07048241    -0.53562495    -0.00019939    -0.00019458     0.00046421
H         0.89381827    -0.15594090     1.84054711    -0.00141139     0.00050000    -0.00101443
H        -0.92343567    -0.15251876     1.80588097    -0.00121896     0.00005710     0.00027836
H        -0.98900725     0.02380298    -0.57969175    -0.00013234    -0.00001858    -0.00110162
     6
  Step:     7            Position(A)                                  Velocity(au)
C        -0.04334576     0.02208939     0.00492590    -0.00005891     0.00007401    -0.00064020
N        -0.04416207    -0.04171638     1.31759991     0.00028005    -0.00008693     0.00064855
H         0.95168053    -0.07155146    -0.53315242    -0.00025130    -0.00019425     0.00043139
H         0.88557462    -0.15316412     1.83482780    -0.00156423     0.00050654    -0.00105105
H        -0.93028211    -0.15229167     1.80766643    -0.00125492     0.00002760     0.00036218
H        -0.98970696     0.02371393    -0.58583035    -0.00011927    -0.00001381    -0.00112632
     6
  Step:     8            Position(A)                                  Velocity(au)
C        -0.04365567     0.02249656     0.00135458    -0.00005418     0.00007356    -0.00065191
N        -0.04259607    -0.04219102     1.32121158     0.00028524    -0.00008505     0.00065822
H         0.95016813    -0.07262070    -0.53087619    -0.00029183    -0.00019395     0.00039130
H         0.87659911    -0.15036487     1.82897712    -0.00166769     0.00050590    -0.00105644
H        -0.93724984    -0.15221491     1.80986788    -0.00125795     0.00000241     0.00042784
H        -0.99032014     0.02365101    -0.59209035    -0.00010063    -0.00000903    -0.00114130
     6
  Step:     9            Position(A)                                  Velocity(au)
C        -0.04394341     0.02290079    -0.00226458    -0.00005067     0.00007265    -0.00065501
N        -0.04101594    -0.04265452     1.32485992     0.00028385    -0.00008253     0.00065916
H         0.94846169    -0.07369074    -0.52883642    -0.00032016    -0.00019380     0.00034427
H         0.86718028    -0.14758412     1.82317541    -0.00171530     0.00049760    -0.00102781
H        -0.94415707    -0.15226506     1.81238548    -0.00122839    -0.00001848     0.00047523
H        -0.99081685     0.02361431    -0.59841868    -0.00007688    -0.00000426    -0.00114651
     6
  Step:    10            Position(A)                                  Velocity(au)
C        -0.04421566     0.02329958    -0.00588494    -0.00004837     0.00007132    -0.00064995
N        -0.03945879    -0.04310318     1.32849699     0.00027575    -0.00007936     0.00065160
H         0.94662953    -0.07476265    -0.52707112    -0.00033596    -0.00019390     0.00029094
H         0.85764066    -0.14486514     1.81761727    -0.00170270     0.00048153    -0.00096365
H        -0.95082663    -0.15241914     1.81512036    -0.00116820    -0.00003525     0.00050507
H        -0.99116991     0.02360392    -0.60476216    -0.00004867     0.00000051    -0.00114237
     6
  Step:    11            Position(A)                                  Velocity(au)
C        -0.04447907     0.02369061    -0.00946260    -0.00004726     0.00006961    -0.00063752
N        -0.03796209    -0.04353335     1.33207620     0.00026110    -0.00007557     0.00063611
H         0.94474100    -0.07583814    -0.52561438    -0.00033945    -0.00019442     0.00023220
H         0.84832334    -0.14225128     1.81250331    -0.00162828     0.00045802    -0.00086407
H        -0.95709453    -0.15265540     1.81797898    -0.00108072    -0.00004821     0.00051885
H        -0.99135585     0.02361994    -0.61107010    -0.00001672     0.00000528    -0.00112978
     6
  Step:    12            Position(A)                                  Velocity(au)
C        -0.04474004     0.02407191    -0.01295812    -0.00004729     0.00006762    -0.00061879
N        -0.03656191    -0.04394165     1.33555444     0.00024040    -0.00007126     0.00061359
H         0.94286345    -0.07691967    -0.52449488    -0.00033135    -0.00019552     0.00016914
H         0.83957521    -0.13978352     1.80803061    -0.00149363     0.00042780    -0.00073090
H        -0.96281694    -0.15295400     1.82087685    -0.00097026    -0.00005780     0.00051862
H        -0.99135544     0.02366245    -0.61729685     0.00001817     0.00001005    -0.00111006
     6
  Step:    13            Position(A)                                  Velocity(au)
C        -0.04500455     0.02444193    -0.01633804    -0.00004837     0.00006543    -0.00059497
N        -0.03529102    -0.04432517     1.33889391     0.00021438    -0.00006653     0.00058522
H         0.94105929    -0.07801058    -0.52373504    -0.00031287    -0.00019738     0.00010287
H         0.83172741    -0.13749798     1.80438224    -0.00130355     0.00039197    -0.00056756
H        -0.96787515    -0.15329768     1.82374147    -0.00084162    -0.00006456     0.00050683
H        -0.99115394     0.02373162    -0.62340406     0.00005525     0.00001486    -0.00108477
     6
  Step:    14            Position(A)                                  Velocity(au)
C        -0.04527799     0.02479963    -0.01957566    -0.00004848     0.00006492    -0.00061684
N        -0.03417746    -0.04468166     1.34206344     0.00018338    -0.00006222     0.00059056
H         0.93938363    -0.07911506    -0.52335076    -0.00032860    -0.00024265     0.00007267
H         0.82507665    -0.13542384     1.80171802    -0.00108190     0.00039373    -0.00038691
H        -0.97217781    -0.15367211     1.82651406    -0.00067605    -0.00012098     0.00047071
H        -0.99074090     0.02382772    -0.62936209     0.00011586     0.00006100    -0.00101281
     6
  Step:    15            Position(A)                                  Velocity(au)
C        -0.04554403     0.02516438    -0.02320277    -0.00004705     0.00006611    -0.00068580
N        -0.03325018    -0.04501765     1.34546617     0.00014802    -0.00005861     0.00063133
H         0.93740231    -0.08071098    -0.52292631    -0.00037961    -0.00031960     0.00007873
H         0.81968710    -0.13311618     1.80007632    -0.00083824     0.00042326    -0.00019806
H        -0.97539887    -0.15464410     1.82897993    -0.00047600    -0.00021517     0.00041345
H        -0.98986457     0.02441052    -0.63467546     0.00019763     0.00013815    -0.00089536
     6
  Step:    16            Position(A)                                  Velocity(au)
C        -0.04580180     0.02553557    -0.02721032    -0.00004563     0.00006713    -0.00075104
N        -0.03252964    -0.04533409     1.34909178     0.00010973    -0.00005506     0.00066866
H         0.93515761    -0.08267304    -0.52247426    -0.00042166    -0.00037940     0.00008135
H         0.81574491    -0.13071188     1.79951306    -0.00056534     0.00043397     0.00000001
H        -0.97747693    -0.15606750     1.83111680    -0.00026932    -0.00028888     0.00035399
H        -0.98854072     0.02536567    -0.63932974     0.00027528     0.00019953    -0.00077783
     6
  Step:    17            Position(A)                                  Velocity(au)
C        -0.04605214     0.02591182    -0.03156543    -0.00004439     0.00006789    -0.00080984
N        -0.03202838    -0.04563074     1.35291153     0.00006987    -0.00005147     0.00070059
H         0.93270721    -0.08493549    -0.52202055    -0.00045280    -0.00042943     0.00007883
H         0.81339218    -0.12828406     1.80007640    -0.00027264     0.00043413     0.00020411
H        -0.97839765    -0.15786068     1.83292155    -0.00006305    -0.00035024     0.00029529
H        -0.98679944     0.02663228    -0.64333640     0.00034656     0.00025178    -0.00066375
     6
  Step:    18            Position(A)                                  Velocity(au)
C        -0.04629617     0.02629153    -0.03622861    -0.00004335     0.00006836    -0.00086137
N        -0.03175157    -0.04590721     1.35689345     0.00002975    -0.00004782     0.00072686
H         0.93011529    -0.08745506    -0.52159644    -0.00047210    -0.00047282     0.00007046
H         0.81270881    -0.12587750     1.80178599     0.00002811     0.00042804     0.00040864
H        -0.97817907    -0.15996770     1.83440507     0.00013743    -0.00040302     0.00023965
H        -0.98468147     0.02816944    -0.64672119     0.00040968     0.00029769    -0.00055532
     6
  Step:    19            Position(A)                                  Velocity(au)
C        -0.04653487     0.02667310    -0.04115792    -0.00004245     0.00006855    -0.00090531
N        -0.03169706    -0.04616326     1.36100607    -0.00000934    -0.00004414     0.00074765
H         0.92744974    -0.09020098    -0.52123587    -0.00047905    -0.00051145     0.00005588
H         0.81370523    -0.12351729     1.80462714     0.00032438     0.00041875     0.00060730
H        -0.97686719    -0.16234880     1.83559035     0.00032740    -0.00044967     0.00018911
H        -0.98223711     0.02994747    -0.64952068     0.00046300     0.00033894    -0.00045425
     6
  Step:    20            Position(A)                                  Velocity(au)
C        -0.04676894     0.02705492    -0.04631075    -0.00004164     0.00006845    -0.00094159
N        -0.03185563    -0.04639879     1.36521985    -0.00004618    -0.00004046     0.00076334
H         0.92478025    -0.09315096    -0.52097409    -0.00047347    -0.00054660     0.00003497
H         0.81632134    -0.12121403     1.80854932     0.00060385     0.00040852     0.00079382
H        -0.97453297    -0.16497557     1.83651108     0.00050254    -0.00049201     0.00014547
H        -0.97952513     0.03194412    -0.65178003     0.00050508     0.00037665    -0.00036192
     6
  Step:    21            Position(A)                                  Velocity(au)
C        -0.04699862     0.02743545    -0.05164459    -0.00004082     0.00006808    -0.00097024
N        -0.03221143    -0.04661386     1.36950758    -0.00007965    -0.00003679     0.00077432
H         0.92217659    -0.09628863    -0.52084644    -0.00045549    -0.00057915     0.00000780
H         0.82043044    -0.11896747     1.81346806     0.00085528     0.00039904     0.00096245
H        -0.97127029    -0.16782847     1.83721048     0.00065888    -0.00053146     0.00011036
H        -0.97661187     0.03414229    -0.65355146     0.00053462     0.00041160    -0.00027947
     6
  Step:    22            Position(A)                                  Velocity(au)
C        -0.04722365     0.02781319    -0.05711757    -0.00003990     0.00006744    -0.00099140
N        -0.03274277    -0.04680858     1.37384450    -0.00010877    -0.00003314     0.00078101
H         0.91970682    -0.09960168    -0.52088721    -0.00042557    -0.00060971    -0.00002533
H         0.82584769    -0.11676944     1.81926937     0.00106927     0.00039145     0.00110844
H        -0.96719413    -0.17089517     1.83774030     0.00079275    -0.00056920     0.00008524
H        -0.97357032     0.03652861    -0.65489290     0.00055050     0.00044435    -0.00020787
     6
  Step:    23            Position(A)                                  Velocity(au)
C        -0.04744313     0.02818669    -0.06268891    -0.00003876     0.00006653    -0.00100532
N        -0.03342310    -0.04698301     1.37820806    -0.00013278    -0.00002948     0.00078377
H         0.91743565    -0.10308083    -0.52112857    -0.00038451    -0.00063874    -0.00006392
H         0.83234215    -0.11460672     1.82581611     0.00123882     0.00038648     0.00122829
H        -0.96243894    -0.17416943     1.83816006     0.00090087    -0.00060627     0.00007139
H        -0.97047925     0.03909244    -0.65586716     0.00055183     0.00047535    -0.00014788
     6
  Step:    24            Position(A)                                  Velocity(au)
C        -0.04765554     0.02855453    -0.06831929    -0.00003729     0.00006538    -0.00101229
N        -0.03422222    -0.04713705     1.38257763    -0.00015115    -0.00002579     0.00078294
H         0.91542244    -0.10671883    -0.52159949    -0.00033344    -0.00066653    -0.00010734
H         0.83965117    -0.11246308     1.83295558     0.00135962     0.00038447     0.00131995
H        -0.95715616    -0.17765057     1.83853582     0.00098054    -0.00064359     0.00006983
H        -0.96742162     0.04182521    -0.65654065     0.00053804     0.00050493    -0.00010000
     6
  Step:    25            Position(A)                                  Velocity(au)
C        -0.04785870     0.02891535    -0.07397134    -0.00003536     0.00006398    -0.00101275
N        -0.03510772    -0.04727042     1.38693431    -0.00016361    -0.00002202     0.00077885
H         0.91371927    -0.11050961    -0.52232488    -0.00027388    -0.00069326    -0.00015475
H         0.84749576    -0.11032160     1.84052756     0.00143008     0.00038544     0.00138277
H        -0.95151040    -0.18134247     1.83893836     0.00102980    -0.00068193     0.00008123
H        -0.96448260     0.04472005    -0.65698169     0.00050896     0.00053336    -0.00006444
     6
  Step:    26            Position(A)                                  Velocity(au)
C        -0.04804980     0.02926783    -0.07961017    -0.00003289     0.00006235    -0.00100720
N        -0.03604623    -0.04738257     1.39126081    -0.00017011    -0.00001814     0.00077177
H         0.91236907    -0.11444782    -0.52332476    -0.00020759    -0.00071902    -0.00020523
H         0.85559471    -0.10816595     1.84837177     0.00145101     0.00038919     0.00141739
H        -0.94567517    -0.18525320     1.83944140     0.00104756    -0.00072200     0.00010591
H        -0.96174736     0.04777149    -0.65725902     0.00046484     0.00056091    -0.00004112
     6
  Step:    27            Position(A)                                  Velocity(au)
C        -0.04822549     0.02961067    -0.08520375    -0.00002977     0.00006049    -0.00099621
N        -0.03700479    -0.04747270     1.39554126    -0.00017084    -0.00001409     0.00076200
H         0.91140420    -0.11852821    -0.52461363    -0.00013660    -0.00074386    -0.00025775
H         0.86367762    -0.10598126     1.85633449     0.00142535     0.00039541     0.00142551
H        -0.93982786    -0.18939431     1.84011947     0.00103374    -0.00076440     0.00014375
H        -0.95929867     0.05097538    -0.65744022     0.00040635     0.00058780    -0.00002965
     6
  Step:    28            Position(A)                                  Velocity(au)
C        -0.04838192     0.02994264    -0.09072335    -0.00002595     0.00005842    -0.00098045
N        -0.03795202    -0.04753974     1.39976129    -0.00016619    -0.00000983     0.00074983
H         0.91084529    -0.12274584    -0.52620012    -0.00006305    -0.00076780    -0.00031127
H         0.87149507    -0.10375496     1.86427390     0.00135757     0.00040364     0.00140964
H        -0.93414336    -0.19378043     1.84104498     0.00098943    -0.00080960     0.00019411
H        -0.95721440     0.05432868    -0.65758979     0.00033462     0.00061422    -0.00002932
     6
  Step:    29            Position(A)                                  Velocity(au)
C        -0.04851500     0.03026258    -0.09614387    -0.00002137     0.00005615    -0.00096057
N        -0.03885914    -0.04758243     1.40390808    -0.00015669    -0.00000534     0.00073554
H         0.91070069    -0.12709560    -0.52808684     0.00001086    -0.00079083    -0.00036473
H         0.87882577    -0.10147733     1.87206371     0.00125317     0.00041345     0.00137282
H        -0.92878750    -0.19842805     1.84228545     0.00091689    -0.00085787     0.00025586
H        -0.95556489     0.05782906    -0.65776738     0.00025124     0.00064037    -0.00003911
     6
  Step:    30            Position(A)                                  Velocity(au)
C        -0.04862046     0.03056932    -0.10144392    -0.00001605     0.00005368    -0.00093728
N        -0.03970080    -0.04759938     1.40797041    -0.00014303    -0.00000060     0.00071946
H         0.91096645    -0.13157199    -0.53027069     0.00008297    -0.00081287    -0.00041715
H         0.88548125    -0.09914064     1.87959536     0.00111824     0.00042446     0.00131831
H        -0.92391033    -0.20335472     1.84390057     0.00081951    -0.00090929     0.00032735
H        -0.95441045     0.06147562    -0.65802624     0.00015819     0.00066647    -0.00005772
     6
  Step:    31            Position(A)                                  Velocity(au)
C        -0.04869414     0.03086173    -0.10660595    -0.00001001     0.00005100    -0.00091122
N        -0.04045572    -0.04758917     1.41193883    -0.00012597     0.00000438     0.00070188
H         0.91162683    -0.13616906    -0.53274319     0.00015128    -0.00083384    -0.00046764
H         0.89130785    -0.09673945     1.88677902     0.00095899     0.00043628     0.00124947
H        -0.91963992    -0.20857772     1.84593936     0.00070173    -0.00096370     0.00040644
H        -0.95379915     0.06526830    -0.65841167     0.00005782     0.00069264    -0.00008363
     6
  Step:    32            Position(A)                                  Velocity(au)
C        -0.04873217     0.03113867    -0.11161603    -0.00000331     0.00004813    -0.00088304
N        -0.04110705    -0.04755049     1.41580557    -0.00010632     0.00000958     0.00068311
H         0.91265521    -0.14088030    -0.53549100     0.00021396    -0.00085363    -0.00051538
H         0.89618663    -0.09427035     1.89354336     0.00078152     0.00044859     0.00116952
H        -0.91607687    -0.21411268     1.84843769     0.00056881    -0.00102070     0.00049060
H        -0.95376501     0.06920769    -0.65895982    -0.00004726     0.00071899    -0.00011513
     6
  Step:    33            Position(A)                                  Velocity(au)
C        -0.04873115     0.03139906    -0.11646364     0.00000393     0.00004507    -0.00085328
N        -0.04164265    -0.04748219     1.41956461    -0.00008493     0.00001497     0.00066343
H         0.91401536    -0.14569851    -0.53849659     0.00026944    -0.00087211    -0.00055969
H         0.90003225    -0.09173166     1.89983484     0.00059161     0.00046109     0.00108151
H        -0.91329003    -0.21997219     1.85141618     0.00042667    -0.00107960     0.00057701
H        -0.95432674     0.07329469    -0.65969691    -0.00015427     0.00074554    -0.00015042
     6
  Step:    34            Position(A)                                  Velocity(au)
C        -0.04868831     0.03164184    -0.12114131     0.00001160     0.00004183    -0.00082245
N        -0.04205517    -0.04738343     1.42321158    -0.00006264     0.00002047     0.00064313
H         0.91566300    -0.15061582    -0.54173894     0.00031642    -0.00088914    -0.00060001
H         0.90279089    -0.08912314     1.90561641     0.00039467     0.00047354     0.00098824
H        -0.91131389    -0.22616442     1.85487893     0.00028150    -0.00113950     0.00066265
H        -0.95548710     0.07753024    -0.66063892    -0.00026034     0.00077225    -0.00018765
     6
  Step:    35            Position(A)                                  Velocity(au)
C        -0.04860168     0.03186598    -0.12564422     0.00001954     0.00003841    -0.00079095
N        -0.04234186    -0.04725374     1.42674351    -0.00004025     0.00002601     0.00062241
H         0.91754740    -0.15562356    -0.54519420     0.00035390    -0.00090456    -0.00063587
H         0.90443777    -0.08644574     1.91086608     0.00019565     0.00048574     0.00089225
H        -0.91014777    -0.23269193     1.85881296     0.00013950    -0.00119930     0.00074448
H        -0.95723275     0.08191491    -0.66179157    -0.00036263     0.00079901    -0.00022504
     6
  Step:    36            Position(A)                                  Velocity(au)
C        -0.04847017     0.03207053    -0.12996970     0.00002760     0.00003482    -0.00075913
N        -0.04250439    -0.04709312     1.43015872    -0.00001851     0.00003151     0.00060147
H         0.91961309    -0.16071227    -0.54883639     0.00038116    -0.00091821    -0.00066695
H         0.90497465    -0.08370140     1.91557548    -0.00000091     0.00049753     0.00079585
H        -0.90975682    -0.23955074     1.86318858     0.00000654    -0.00125777     0.00081960
H        -0.95953466     0.08644858    -0.66315071    -0.00045842     0.00082566    -0.00026087
     6
  Step:    37            Position(A)                                  Velocity(au)
C        -0.04829362     0.03225459    -0.13411691     0.00003561     0.00003108    -0.00072728
N        -0.04254848    -0.04690206     1.43345652     0.00000188     0.00003688     0.00058047
H         0.92180158    -0.16587175    -0.55263805     0.00039782    -0.00092997    -0.00069302
H         0.90442759    -0.08089282     1.91974858    -0.00019082     0.00050877     0.00070116
H        -0.91007478    -0.24672987     1.86796052    -0.00011213    -0.00131360     0.00088539
H        -0.96234917     0.09113011    -0.66470314    -0.00054522     0.00085198    -0.00029362
     6
  Step:    38            Position(A)                                  Velocity(au)
C        -0.04807280     0.03241736    -0.13808644     0.00004339     0.00002720    -0.00069561
N        -0.04248345    -0.04668153     1.43663699     0.00002032     0.00004203     0.00055950
H         0.92405294    -0.17109113    -0.55657085     0.00040375    -0.00093971    -0.00071398
H         0.90284505    -0.07802331     1.92340070    -0.00037021     0.00051937     0.00061012
H        -0.91100828    -0.25421115     1.87306995    -0.00021213    -0.00136556     0.00093964
H        -0.96561953     0.09595705    -0.66642762    -0.00062084     0.00087772    -0.00032196
     6
  Step:    39            Position(A)                                  Velocity(au)
C        -0.04780939     0.03255816    -0.14187996     0.00005080     0.00002322    -0.00066430
N        -0.04232167    -0.04643302     1.43970065     0.00003633     0.00004687     0.00053865
H         0.92630744    -0.17635906    -0.56060617     0.00039910    -0.00094738    -0.00072983
H         0.90029597    -0.07509659     1.92655756    -0.00053556     0.00052927     0.00052453
H        -0.91244223    -0.26196972     1.87844706    -0.00029012    -0.00141250     0.00098065
H        -0.96927786     0.10092556    -0.66829623    -0.00068351     0.00090262    -0.00034482
     6
  Step:    40            Position(A)                                  Velocity(au)
C        -0.04750591     0.03267645    -0.14550004     0.00005769     0.00001914    -0.00063350
N        -0.04207804    -0.04615844     1.44264835     0.00004949     0.00005134     0.00051794
H         0.92850694    -0.18166393    -0.56471576     0.00038429    -0.00095295    -0.00074067
H         0.89686811    -0.07211659     1.92925451    -0.00068367     0.00053846     0.00044607
H        -0.91424603    -0.26997482     1.88401412    -0.00034388    -0.00145350     0.00100731
H        -0.97324757     0.10603035    -0.67027583    -0.00073189     0.00092643    -0.00036141
     6
  Step:    41            Position(A)                                  Velocity(au)
C        -0.04716557     0.03277181    -0.14894995     0.00006395     0.00001501    -0.00060333
N        -0.04176935    -0.04586007     1.44548100     0.00005953     0.00005537     0.00049739
H         0.93059618    -0.18699424    -0.56887222     0.00035993    -0.00095650    -0.00074673
H         0.89266610    -0.06908721     1.93153581    -0.00081167     0.00054698     0.00037627
H        -0.91628005    -0.27819105     1.88968881    -0.00037238    -0.00148785     0.00101908
H        -0.97744593     0.11126478    -0.67232962    -0.00076514     0.00094896    -0.00037122
     6
  Step:    42            Position(A)                                  Velocity(au)
C        -0.04679215     0.03284401    -0.15223348     0.00006950     0.00001086    -0.00057389
N        -0.04141371    -0.04554045     1.44819945     0.00006625     0.00005894     0.00047698
H         0.93252387    -0.19233886    -0.57304956     0.00032681    -0.00095813    -0.00074830
H         0.88780952    -0.06601209     1.93345381    -0.00091713     0.00055489     0.00031649
H        -0.91840194    -0.28657989     1.89538745    -0.00037563    -0.00151519     0.00101601
H        -0.98178683     0.11662112    -0.67441879    -0.00078290     0.00097003    -0.00037403
     6
  Step:    43            Position(A)                                  Velocity(au)
C        -0.04638987     0.03289298    -0.15535486     0.00007428     0.00000670    -0.00054525
N        -0.04102996    -0.04520231     1.45080438     0.00006958     0.00006201     0.00045669
H         0.93424350    -0.19768745    -0.57722364     0.00028585    -0.00095803    -0.00074577
H         0.88243052    -0.06289431     1.93506803    -0.00099805     0.00056235     0.00026793
H        -0.92047221    -0.29510133     1.90102801    -0.00035458    -0.00153541     0.00099866
H        -0.98618349     0.12209085    -0.67650399    -0.00078529     0.00098957    -0.00036988
     6
  Step:    44            Position(A)                                  Velocity(au)
C        -0.04596316     0.03291880    -0.15831863     0.00007826     0.00000257    -0.00051747
N        -0.04063715    -0.04484844     1.45329620     0.00006954     0.00006458     0.00043646
H         0.93571400    -0.20303079    -0.58137254     0.00023806    -0.00095645    -0.00073956
H         0.87667098    -0.05973615     1.93644400    -0.00105302     0.00056951     0.00023152
H        -0.92235910    -0.30371548     1.90653277    -0.00031097    -0.00154870     0.00096799
H        -0.99055094     0.12766505    -0.67854672    -0.00077285     0.00100756    -0.00035902
     6