    14
  Step:   600            Position(A)                                  Velocity(au)
C        -5.09603122    -0.87256207    -0.78023408     0.00018193     0.00051441     0.00036069
C        -4.62265747    -0.40860971     0.37367992     0.00080265     0.00034622    -0.00047400
H        -5.37959219    -0.08032812    -1.52813670    -0.00231167     0.00004336     0.00176347
H        -5.30480780    -1.88362439    -0.93848066    -0.00011743     0.00027777     0.00060632
H        -4.28886503    -0.82301040     1.32487238     0.00375838     0.00043360    -0.00154201
C        -4.28986040     1.02326342     0.47175563    -0.00068951    -0.00000099    -0.00032327
C        -3.04580925     1.52411230     0.17335387    -0.00033081    -0.00082127     0.00042338
H        -5.03628296     1.55995311     0.93260241     0.00107423     0.00008137     0.00092371
H        -3.00454458     2.59524280     0.24191237     0.00327902     0.00090780    -0.00286372
C        -1.90591724     0.75832192    -0.05621816     0.00036585    -0.00017429    -0.00023568
H        -1.91995951     0.00976458    -0.90612746     0.00220182    -0.00075003     0.00203863
N        -0.63756480     1.10051964     0.19773442    -0.00086473     0.00005516     0.00012683
H         0.04601632     0.41099252    -0.17494788    -0.00035580     0.00071595     0.00105191
H        -0.29363282     1.43374537     1.14132232     0.00055451    -0.00085685    -0.00077511
