|===============================================================================
|
|  DFTB+ release 20.1
|
|  Copyright (C) 2006 - 2020  DFTB+ developers group
|
|===============================================================================
|
|  When publishing results obtained with DFTB+, please cite the following
|  reference:
|
|  * DFTB+, a software package for efficient approximate density functional
|    theory based atomistic simulations, J. Chem. Phys. 152, 124101 (2020).
|    [doi: 10.1063/1.5143190]
|
|  You should also cite additional publications crediting the parametrization
|  data you use. Please consult the documentation of the SK-files for the
|  references.
|
|===============================================================================

Reading input file 'dftb_in.hsd'
Parser version: 8

--------------------------------------------------------------------------------
Reading SK-files:
Done.


Processed input in HSD format written to 'dftb_pin.hsd'

Starting initialization...
--------------------------------------------------------------------------------
WARNING!
-> Excited state forces are not implemented yet for fractional occupations, kT=  0.3158E-02K
OpenMP threads:              1
Chosen random seed:          435692325
Mode:                        Static calculation
Self consistent charges:     Yes
SCC-tolerance:                 0.100000E-05
Max. scc iterations:                    100
Shell resolved Hubbard:      No
Spin polarisation:           No
Nr. of up electrons:             6.000000
Nr. of down electrons:           6.000000
Periodic boundaries:         No
Electronic solver:           Relatively robust
Mixer:                       Broyden mixer
Mixing parameter:                  0.200000
Maximal SCC-cycles:                     100
Nr. of chrg. vec. in memory:              0
Electronic temperature:        0.100000E-07 H      0.272114E-06 eV
Initial charges:             Set automatically (system chrg:   0.100E+01)
Included shells:             C:  s, p
                             N:  s, p
                             H:  s
Extra options:
                             Mulliken analysis
                             Force calculation
Force type                   original
                             Eigenvector printing

--------------------------------------------------------------------------------

***  Geometry step: 0

 iSCC Total electronic   Diff electronic      SCC error    
    1   -0.54298472E+01    0.00000000E+00    0.76286775E+00
    2   -0.54343553E+01   -0.45081573E-02    0.52971797E+00
    3   -0.54379129E+01   -0.35575619E-02    0.63559956E-01
    4   -0.54380692E+01   -0.15635857E-03    0.50592547E-01
    5   -0.54381581E+01   -0.88850905E-04    0.83745971E-02
    6   -0.54381586E+01   -0.50872335E-06    0.21297192E-02
    7   -0.54381587E+01   -0.63316770E-07    0.23590467E-04
    8   -0.54381587E+01   -0.14604318E-10    0.32257805E-04
    9   -0.54381587E+01   -0.32208014E-10    0.50349931E-06
>> Charges saved for restart in charges.bin

Total Energy:                       -5.0955315237 H         -138.6565 eV
Extrapolated to 0:                  -5.2176493225 H         -141.9795 eV
Total Mermin free energy:           -5.0955315237 H         -138.6565 eV
Force related energy:               -5.2176493225 H         -141.9795 eV

--------------------------------------------------------------------------------
DFTB+ running times                          cpu [s]             wall clock [s]
--------------------------------------------------------------------------------
SCC                                    +     0.01  ( 46.6%)      0.03  ( 54.0%)
Post-SCC processing                    +     0.01  ( 46.8%)      0.02  ( 38.0%)
--------------------------------------------------------------------------------
Missing                                +     0.00  (  6.6%)      0.00  (  8.0%)
Total                                  =     0.02  (100.0%)      0.05  (100.0%)
--------------------------------------------------------------------------------
