     6
  Step:   300            Position(A)                                  Velocity(au)
C        -0.02265499     0.00142243     0.01889723    -0.00006705    -0.00008291     0.00013370
N        -0.04829795    -0.05126568     1.29646845     0.00020869     0.00001669    -0.00013534
H         0.21197452    -0.87516871    -0.59140861    -0.00092446     0.00021967    -0.00068160
H        -0.05394842     0.82805587     1.82190023    -0.00222756    -0.00013810     0.00031103
H        -0.21213950    -0.91651703     1.81362054    -0.00003015     0.00051095     0.00044117
H        -0.21770909     0.98929968    -0.39344647     0.00108113     0.00016349     0.00021694
