    14
  Step:   600            Position(A)                                  Velocity(au)
C        -5.92165724    -0.63330122    -0.16805387     0.00044819     0.00022136    -0.00011042
C        -4.72238761    -0.78484338     0.57280277     0.00031834    -0.00025409    -0.00008077
H        -6.17687752     0.38405027    -0.33652898    -0.00089117    -0.00009317     0.00142174
H        -6.68365640    -1.39483349    -0.51542560     0.00089819     0.00060480    -0.00155211
H        -4.44334140    -1.85563791     0.73245105     0.00354204     0.00230431    -0.00067036
C        -3.86165214     0.24354569     0.08429363    -0.00016862     0.00057768     0.00014824
C        -2.52363829     0.56186448    -0.04874666    -0.00014622    -0.00011461     0.00059472
H        -4.38833701     0.95790456    -0.64934585    -0.00183401     0.00054192     0.00046014
H        -1.82348901    -0.06301710     0.53183513    -0.00127274    -0.00397105     0.00045770
C        -1.76944255     1.75839968    -0.40509908    -0.00031818    -0.00032981    -0.00040077
H        -1.86472907     2.39959284    -1.36445117     0.00236531     0.00041733    -0.00074861
N        -0.70812557     1.80161839     0.34450670    -0.00016115    -0.00012857    -0.00007330
H        -0.11505207     2.57550015     0.50079392    -0.00087126     0.00038097     0.00011978
H        -0.63042680     0.95011700     0.90710913    -0.00128787     0.00040366    -0.00026900
