    14
  Step:     0            Position(A)                                  Velocity(au)
C        -6.03599106    -0.68788203    -0.23130155    -0.00034144     0.00011221    -0.00022292
C        -4.74986447    -0.76595346     0.21428675     0.00045411     0.00014654     0.00000332
H        -6.46406158     0.30333074    -0.60825369    -0.00032340     0.00019519    -0.00001117
H        -6.77068688    -1.48820782    -0.07252315     0.00099206    -0.00136946     0.00058713
H        -4.38485186    -1.67720249     0.75355272    -0.00059991     0.00013097     0.00065474
C        -3.87158448     0.35450998     0.02309609     0.00007571    -0.00005542     0.00013051
C        -2.49828967     0.42886252     0.25218376    -0.00022693    -0.00027820    -0.00006285
H        -4.32162983     1.34507235    -0.35369173     0.00037812    -0.00031223     0.00038442
H        -1.91597861    -0.38026695     0.66000096    -0.00078521     0.00052416     0.00035715
C        -1.82713446     1.61368476    -0.07057799     0.00023945     0.00023601     0.00006157
H        -2.30671988     2.44759098    -0.64001143     0.00052878    -0.00082051     0.00121440
N        -0.52729556     1.91875121     0.16166459    -0.00020196    -0.00004017    -0.00012496
H        -0.19546272     2.86898328    -0.02899685     0.00024695     0.00033243    -0.00053167
H        -0.08559995     1.31845505     0.82066126    -0.00002485    -0.00004241     0.00015827
    14
  Step:     1            Position(A)                                  Velocity(au)
C        -6.04000020    -0.68653388    -0.23376553    -0.00038645     0.00013230    -0.00022536
C        -4.74466570    -0.76433210     0.21438754     0.00049013     0.00014964     0.00001382
H        -6.46677683     0.30379108    -0.60811142    -0.00017929    -0.00011021     0.00003572
H        -6.75949302    -1.50307798    -0.06633785     0.00105302    -0.00133349     0.00053753
H        -4.39161819    -1.67499990     0.75994397    -0.00063045     0.00026981     0.00051303
C        -3.87121605     0.35395904     0.02444453    -0.00000734    -0.00004536     0.00011609
C        -2.50040135     0.42590859     0.25154508    -0.00015824    -0.00025794    -0.00005476
H        -4.31711082     1.33974951    -0.34912721     0.00043945    -0.00064733     0.00044310
H        -1.92451995    -0.37513852     0.66420662    -0.00075878     0.00038945     0.00042154
C        -1.82457544     1.61643037    -0.07003338     0.00022666     0.00026005     0.00004045
H        -2.30130599     2.43751763    -0.62613113     0.00043731    -0.00097932     0.00129224
N        -0.52951340     1.91831325     0.16028764    -0.00020010    -0.00003876    -0.00012550
H        -0.19270969     2.87195463    -0.03450685     0.00024680     0.00018658    -0.00047057
H        -0.08453383     1.31770813     0.82314866     0.00020931    -0.00008100     0.00027935
    14
  Step:     2            Position(A)                                  Velocity(au)
C        -6.04444545    -0.68498763    -0.23623183    -0.00042080     0.00014783    -0.00022314
C        -4.73914198    -0.76267989     0.21458900     0.00051355     0.00015270     0.00002148
H        -6.46798379     0.30091970    -0.60747229    -0.00005175    -0.00040459     0.00007624
H        -6.74765016    -1.51738053    -0.06076373     0.00110886    -0.00126740     0.00047593
H        -4.39864424    -1.67129998     0.76477624    -0.00064522     0.00039961     0.00037259
C        -3.87174506     0.35351765     0.02563586    -0.00008807    -0.00003637     0.00010209
C        -2.50175145     0.42321959     0.25098568    -0.00008742    -0.00022998    -0.00004825
H        -4.31201599     1.33091075    -0.34399807     0.00047916    -0.00094513     0.00048408
H        -1.93257843    -0.37174691     0.66922304    -0.00069976     0.00021205     0.00050391
C        -1.82217585     1.61937388    -0.06969306     0.00021074     0.00027112     0.00002481
H        -2.29715290     2.42616649    -0.61174124     0.00029459    -0.00104549     0.00130300
N        -0.53167309     1.91790318     0.15891902    -0.00019125    -0.00003600    -0.00012289
H        -0.19006358     2.87306511    -0.03929140     0.00023028     0.00000165    -0.00040129
H        -0.08102082     1.31668293     0.82677266     0.00041643    -0.00008815     0.00035890
    14
  Step:     3            Position(A)                                  Velocity(au)
C        -6.04920603    -0.68329980    -0.23864717    -0.00044406     0.00015764    -0.00021595
C        -4.73343091    -0.76099156     0.21485752     0.00052488     0.00015686     0.00002593
H        -6.46790907     0.29493981    -0.60644347     0.00005098    -0.00066893     0.00010351
H        -6.73523462    -1.53080481    -0.05592592     0.00115581    -0.00117518     0.00040355
H        -4.40573366    -1.66625758     0.76809507    -0.00064022     0.00051041     0.00023902
C        -3.87314285     0.35316339     0.02667800    -0.00016616    -0.00003062     0.00008913
C        -2.50231384     0.42087728     0.25048961    -0.00001365    -0.00019497    -0.00004293
H        -4.30662831     1.31907293    -0.33853713     0.00048867    -0.00118525     0.00049997
H        -1.93982852    -0.37049951     0.67523051    -0.00061569     0.00000546     0.00059986
C        -1.81996511     1.62236153    -0.06949067     0.00019258     0.00026739     0.00001562
H        -2.29486131     2.41464545    -0.59762562     0.00009524    -0.00100564     0.00124026
N        -0.53369742     1.91752558     0.15759921    -0.00017561    -0.00003362    -0.00011628
H        -0.18767196     2.87199065    -0.04328586     0.00020366    -0.00020251    -0.00032869
H        -0.07542372     1.31577974     0.83100035     0.00058659    -0.00005677     0.00038606
    14
  Step:     4            Position(A)                                  Velocity(au)
C        -6.05416001    -0.68153897    -0.24095623    -0.00045650     0.00016069    -0.00020375
C        -4.72765919    -0.75924832     0.21515629     0.00052566     0.00016345     0.00002699
H        -6.46686860     0.28628560    -0.60520781     0.00012091    -0.00088394     0.00011071
H        -6.72236456    -1.54308983    -0.05193541     0.00119011    -0.00106185     0.00032173
H        -4.41265031    -1.66013383     0.77000517    -0.00061227     0.00059297     0.00011746
C        -3.87538009     0.35284777     0.02758566    -0.00024176    -0.00003065     0.00007782
C        -2.50205006     0.41895421     0.25004643     0.00006436    -0.00015392    -0.00003821
H        -4.30132532     1.30498119    -0.33306021     0.00045961    -0.00134709     0.00048322
H        -1.94604780    -0.37162737     0.68234602    -0.00051719    -0.00021245     0.00070249
C        -1.81796287     1.62522361    -0.06935127     0.00017295     0.00024807     0.00001333
H        -2.29506935     2.40416617    -0.58460816    -0.00016045    -0.00085702     0.00110484
N        -0.53551493     1.91716770     0.15637514    -0.00015404    -0.00003300    -0.00010536
H        -0.18560802     2.86863474    -0.04648205     0.00017402    -0.00040496    -0.00025805
H        -0.06818801     1.31544098     0.83521849     0.00071474     0.00001378     0.00035706
    14
  Step:     5            Position(A)                                  Velocity(au)
C        -6.05919287    -0.67978440    -0.24310450    -0.00045919     0.00015610    -0.00018674
C        -4.72193099    -0.75741567     0.21544802     0.00051837     0.00017390     0.00002476
H        -6.46526398     0.27560202    -0.60402152     0.00015064    -0.00103100     0.00009155
H        -6.70919879    -1.55403488    -0.04888748     0.00120814    -0.00093335     0.00023197
H        -4.41912818    -1.65328513     0.77066469    -0.00055922     0.00063949     0.00001244
C        -3.87843177     0.35249284     0.02838037    -0.00031520    -0.00003909     0.00006878
C        -2.50090593     0.41751003     0.24965369     0.00014778    -0.00010820    -0.00003329
H        -4.29657342     1.28960281    -0.32796581     0.00038459    -0.00141179     0.00042666
H        -1.95114309    -0.37514716     0.69059890    -0.00041624    -0.00042171     0.00080317
C        -1.81618142     1.62778855    -0.06919909     0.00015231     0.00021389     0.00001752
H        -2.29837152     2.39589643    -0.57345506    -0.00046341    -0.00061223     0.00090742
N        -0.53706742     1.91680362     0.15529433    -0.00012801    -0.00003515    -0.00009029
H        -0.18386504     2.86313136    -0.04893127     0.00014860    -0.00058521    -0.00019475
H        -0.05978748     1.31608123     0.83881170     0.00080055     0.00011833     0.00027482
    14
  Step:     6            Position(A)                                  Velocity(au)
C        -6.06420573    -0.67812390    -0.24504146    -0.00045372     0.00014326    -0.00016540
C        -4.71631887    -0.75544389     0.21569787     0.00050585     0.00018925     0.00001957
H        -6.46357302     0.26373058    -0.60320500     0.00013417    -0.00109400     0.00004088
H        -6.69593410    -1.56350875    -0.04686072     0.00120660    -0.00079637     0.00013593
H        -4.42488432    -1.64614374     0.77027740    -0.00048033     0.00064447    -0.00007234
C        -3.88227560     0.35199256     0.02909027    -0.00038601    -0.00005790     0.00006260
C        -2.49881711     0.41658720     0.24931806     0.00023656    -0.00005972    -0.00002738
H        -4.29291157     1.27409550    -0.32372616     0.00025880    -0.00136577     0.00032484
H        -1.95515377    -0.38085303     0.69991691    -0.00032400    -0.00060316     0.00089243
C        -1.81463071     1.62990290    -0.06896806     0.00013064     0.00016765     0.00002676
H        -2.30520735     2.39077244    -0.56475651    -0.00079412    -0.00030089     0.00066905
N        -0.53831542     1.91639871     0.15439986    -0.00009931    -0.00004067    -0.00007165
H        -0.18235702     2.85583211    -0.05074267     0.00013421    -0.00072478    -0.00014373
H        -0.05067444     1.31802971     0.84123075     0.00084769     0.00024740     0.00014765
    14
  Step:     7            Position(A)                                  Velocity(au)
C        -6.06911892    -0.67665028    -0.24672285    -0.00044159     0.00012198    -0.00014031
C        -4.71086455    -0.75327541     0.21587613     0.00049011     0.00020946     0.00001197
H        -6.46232883     0.25166861    -0.60312718     0.00006815    -0.00106240    -0.00004430
H        -6.68280218    -1.57145689    -0.04591377     0.00118248    -0.00065814     0.00003556
H        -4.42963635    -1.63918605     0.76908209    -0.00037654     0.00060576    -0.00013438
C        -3.88687657     0.35122609     0.02974989    -0.00045177    -0.00008716     0.00005975
C        -2.49573071     0.41620349     0.24905475     0.00032820    -0.00001112    -0.00001981
H        -4.29091167     1.25972388    -0.32085929     0.00008205    -0.00120566     0.00017597
H        -1.95823126    -0.38834243     0.71012251    -0.00024895    -0.00074126     0.00096102
C        -1.81332340     1.63145622    -0.06861368     0.00010741     0.00011418     0.00003869
H        -2.31574432     2.38931396    -0.55881836    -0.00112406     0.00003407     0.00041832
N        -0.53923999     1.91591385     0.15372682    -0.00006964    -0.00004976    -0.00005028
H        -0.18092890     2.84727534    -0.05207568     0.00013629    -0.00080881    -0.00010892
H        -0.04124258     1.32149366     0.84204191     0.00086268     0.00038908    -0.00001225
    14
  Step:     8            Position(A)                                  Velocity(au)
C        -6.07386643    -0.67545543    -0.24811108    -0.00042355     0.00009278    -0.00011205
C        -4.70559673    -0.75086149     0.21595964     0.00047122     0.00023293     0.00000254
H        -6.46208215     0.24048852    -0.60417424    -0.00004643    -0.00093517    -0.00016376
H        -6.67006514    -1.57790685    -0.04608271     0.00113325    -0.00052626    -0.00006688
H        -4.43312177    -1.63289167     0.76733763    -0.00025045     0.00052517    -0.00017303
C        -3.89215886     0.35008570     0.03039738    -0.00050807    -0.00012426     0.00006028
C        -2.49163711     0.41634395     0.24888476     0.00041792     0.00003458    -0.00001020
H        -4.29111647     1.24771942    -0.31987647    -0.00013919    -0.00094281    -0.00001595
H        -1.96059995    -0.39706957     0.72094114    -0.00019572    -0.00082586     0.00100120
C        -1.81228098     1.63240074    -0.06812165     0.00008168     0.00005938     0.00005050
H        -2.32979834     2.39151787    -0.55560495    -0.00142090     0.00034551     0.00018562
N        -0.53983890     1.91531020     0.15329993    -0.00004028    -0.00006213    -0.00002720
H        -0.17937535     2.83813795    -0.05312553     0.00015815    -0.00082780    -0.00009274
H        -0.03180169     1.32654159     0.84096276     0.00085386     0.00053048    -0.00019010
    14
  Step:     9            Position(A)                                  Velocity(au)
C        -6.07838483    -0.67462056    -0.24917411    -0.00039964     0.00005721    -0.00008117
C        -4.70055572    -0.74817952     0.21593163     0.00044756     0.00025686    -0.00000811
H        -6.46334468     0.23121000    -0.60670971    -0.00020295    -0.00072420    -0.00031304
H        -6.65801018    -1.58296977    -0.04737689     0.00105699    -0.00040822    -0.00016890
H        -4.43511535    -1.62769698     0.76529680    -0.00010610     0.00040888    -0.00019052
C        -3.89799159     0.34850759     0.03106855    -0.00055053    -0.00016427     0.00006355
C        -2.48658791     0.41696002     0.24883159     0.00050053     0.00007474     0.00000155
H        -4.29395676     1.23909821    -0.32120821    -0.00039086    -0.00060537    -0.00023985
H        -1.96251294    -0.40640964     0.73202576    -0.00016517    -0.00085247     0.00100814
C        -1.81153657     1.63275533    -0.06750898     0.00005247     0.00000868     0.00005967
H        -2.34682915     2.39687264    -0.55475763    -0.00165544     0.00059286    -0.00000345
N        -0.54012112     1.91455466     0.15313185    -0.00001209    -0.00007699    -0.00000358
H        -0.17746904     2.82916555    -0.05410458     0.00020031    -0.00077943    -0.00009588
H        -0.02256270     1.33309891     0.83788306     0.00083076     0.00065858    -0.00036985
    14
  Step:    10            Position(A)                                  Velocity(au)
C        -6.08260923    -0.67420375    -0.24988673    -0.00036994     0.00001795    -0.00004846
C        -4.69580552    -0.74524208     0.21578232     0.00041703     0.00027797    -0.00001926
H        -6.46652213     0.22464527    -0.61102255    -0.00038877    -0.00045521    -0.00048274
H        -6.64694145    -1.58683750    -0.04977781     0.00095271    -0.00031098    -0.00026805
H        -4.43544300    -1.62394663     0.76316964     0.00005136     0.00026721    -0.00019228
C        -3.90420274     0.34649204     0.03178769    -0.00057655    -0.00020100     0.00006817
C        -2.48068702     0.41797910     0.24891864     0.00057214     0.00010769     0.00001536
H        -4.29966736     1.23447585    -0.32512355    -0.00065240    -0.00023563    -0.00047816
H        -1.96421332    -0.41571906     0.74299619    -0.00015512    -0.00082153     0.00098062
C        -1.81113313     1.63259071    -0.06681627     0.00001927    -0.00003418     0.00006459
H        -2.36601434     2.40448772    -0.55568053    -0.00180761     0.00075010    -0.00013279
N        -0.54010349     1.91362598     0.15322163     0.00001423    -0.00009298     0.00001928
H        -0.17499329     2.82108634    -0.05522308     0.00026014    -0.00066952    -0.00011725
H        -0.01362717     1.34094927     0.83287162     0.00080365     0.00076072    -0.00053545
    14
  Step:    11            Position(A)                                  Velocity(au)
C        -6.08647792    -0.67422798    -0.25023432    -0.00033507    -0.00002153    -0.00001509
C        -4.69143232    -0.74209838     0.21551030     0.00037793     0.00029301    -0.00003009
H        -6.47184972     0.22125146    -0.61727061    -0.00058640    -0.00016482    -0.00065888
H        -6.63716784    -1.58977299    -0.05324096     0.00082063    -0.00024020    -0.00036215
H        -4.43399168    -1.62185132     0.76109040     0.00021606     0.00011358    -0.00018609
C        -3.91060478     0.34411027     0.03255993    -0.00058560    -0.00022819     0.00007224
C        -2.47407117     0.41931606     0.24916753     0.00063049     0.00013271     0.00003100
H        -4.30822916     1.23394344    -0.33166879    -0.00090026     0.00011786    -0.00070973
H        -1.96590650    -0.42438215     0.75347875    -0.00016127    -0.00073741     0.00092061
C        -1.81111511     1.63200754    -0.06609585    -0.00001764    -0.00006735     0.00006470
H        -2.38637408     2.41328259    -0.55766272    -0.00186884     0.00080791    -0.00019704
N        -0.53980978     1.91252057     0.15355369     0.00003812    -0.00010829     0.00004004
H        -0.17177797     2.81451844    -0.05666957     0.00033185    -0.00051203    -0.00015396
H        -0.00498140     1.34974107     0.82616912     0.00078292     0.00082535    -0.00067209
    14
  Step:    12            Position(A)                                  Velocity(au)
C        -6.08993959    -0.67467466    -0.25021693    -0.00029623    -0.00005749     0.00001754
C        -4.68753747    -0.73883186     0.21512399     0.00032924     0.00029909    -0.00003970
H        -6.47935072     0.22103956    -0.62543691    -0.00077626     0.00010615    -0.00082492
H        -6.62898867    -1.59209235    -0.05770054     0.00066240    -0.00019950    -0.00044959
H        -4.43071632    -1.62146174     0.75909857     0.00038169    -0.00003715    -0.00018073
C        -3.91701388     0.34149984     0.03336817    -0.00057847    -0.00024047     0.00007384
C        -2.46689382     0.42088230     0.24959686     0.00067450     0.00014970     0.00004817
H        -4.31936233     1.23705423    -0.34065024    -0.00111266     0.00041066    -0.00091404
H        -1.96774140    -0.43185137     0.76313625    -0.00017802    -0.00060765     0.00083240
C        -1.81151896     1.63111736    -0.06540085    -0.00005713    -0.00009038     0.00006024
H        -2.40689887     2.42216237    -0.55999114    -0.00184101     0.00077072    -0.00019964
N        -0.53926948     1.91125689     0.15409762     0.00005914    -0.00012084     0.00005741
H        -0.16773335     2.80988477    -0.05859119     0.00040696    -0.00032749    -0.00020148
H         0.00350081     1.35900542     0.81816843     0.00077820     0.00084315    -0.00076748
    14
  Step:    13            Position(A)                                  Velocity(au)
C        -6.09295852    -0.67548559    -0.24985061    -0.00025491    -0.00008679     0.00004806
C        -4.68422953    -0.73555514     0.21464176     0.00027064     0.00029392    -0.00004725
H        -6.48883182     0.22357372    -0.63531725    -0.00094007     0.00032097    -0.00096484
H        -6.62267649    -1.59413753    -0.06307650     0.00048137    -0.00018964    -0.00052944
H        -4.42564147    -1.62266404     0.75713657     0.00054208    -0.00017080    -0.00018447
C        -3.92325993     0.33884950     0.03417529    -0.00055657    -0.00023417     0.00007140
C        -2.45931520     0.42259110     0.25022139     0.00070384     0.00015900     0.00006650
H        -4.33257067     1.24292749    -0.35166519    -0.00127345     0.00061142    -0.00107508
H        -1.96980094    -0.43767559     0.77168916    -0.00019928    -0.00044183     0.00072182
C        -1.81236502     1.63003020    -0.06477800    -0.00009755    -0.00010373     0.00005196
H        -2.42664966     2.43014353    -0.56203014    -0.00173333     0.00065180    -0.00014957
N        -0.53851602     1.90987704     0.15480956     0.00007703    -0.00012856     0.00007030
H        -0.16287502     2.80735397    -0.06107724     0.00047545    -0.00013996    -0.00025414
H         0.01204313     1.36818667     0.80937910     0.00079690     0.00080829    -0.00081341
    14
  Step:    14            Position(A)                                  Velocity(au)
C        -6.09551632    -0.67657326    -0.24916551    -0.00021267    -0.00010747     0.00007539
C        -4.68161676    -0.73240191     0.21409037     0.00020248     0.00027606    -0.00005209
H        -6.49991652     0.22806144    -0.64654459    -0.00106381     0.00045377    -0.00106612
H        -6.61845783    -1.59624105    -0.06928307     0.00028265    -0.00020784    -0.00060161
H        -4.41885732    -1.62519840     0.75506304     0.00069158    -0.00027574    -0.00020381
C        -3.92918996     0.33637698     0.03493029    -0.00052154    -0.00020774     0.00006402
C        -2.45149590     0.42436067     0.25105159     0.00071868     0.00016115     0.00008556
H        -4.34722143     1.25043028    -0.36416971    -0.00137401     0.00070572    -0.00118348
H        -1.97210102    -0.44151717     0.77892751    -0.00021904    -0.00025085     0.00059558
C        -1.81365309     1.62884799    -0.06426404    -0.00013699    -0.00010826     0.00004082
H        -2.44481888     2.43642173    -0.56326318    -0.00155897     0.00046851    -0.00005824
N        -0.53758425     1.90844439     0.15563553     0.00009182    -0.00012982     0.00007804
H        -0.15733202     2.80682297    -0.06415098     0.00052750     0.00002705    -0.00030600
H         0.02093455     1.37668828     0.80037355     0.00084272     0.00071973    -0.00080736
    14
  Step:    15            Position(A)                                  Velocity(au)
C        -6.09761101    -0.67783664    -0.24820137    -0.00017090    -0.00011904     0.00009888
C        -4.67979979    -0.72951589     0.21350217     0.00012580     0.00024516    -0.00005388
H        -6.51210471     0.23350087    -0.65864068    -0.00113916     0.00049247    -0.00112138
H        -6.61649291    -1.59868454    -0.07623788     0.00007317    -0.00024765    -0.00066674
H        -4.41051177    -1.62869632     0.75267777     0.00082545    -0.00034419    -0.00024275
C        -3.93466968     0.33430479     0.03557578    -0.00047515    -0.00016174     0.00005142
C        -2.44359280     0.42611647     0.25209320     0.00071947     0.00015690     0.00010492
H        -4.36262974     1.25836657    -0.37755613    -0.00141280     0.00069484    -0.00123656
H        -1.97459278    -0.44316342     0.78471855    -0.00023158    -0.00004647     0.00046093
C        -1.81536184     1.62766190    -0.06388490    -0.00017356    -0.00010496     0.00002778
H        -2.46075518     2.44039305    -0.56330415    -0.00133240     0.00023903     0.00006261
N        -0.53650731     1.90703705     0.15651691     0.00010379    -0.00012370     0.00008053
H        -0.15133490     2.80794571    -0.06777150     0.00055515     0.00015433    -0.00035171
H         0.03047932     1.38393218     0.79171653     0.00091413     0.00058216    -0.00075364
    14
  Step:    16            Position(A)                                  Velocity(au)
C        -6.09925501    -0.67917748    -0.24700228    -0.00013081    -0.00012237     0.00011836
C        -4.67886475    -0.72703848     0.21291155     0.00004218     0.00020203    -0.00005261
H        -6.52483790     0.23883526    -0.67107686    -0.00116344     0.00043796    -0.00112855
H        -6.61685719    -1.60165883    -0.08386926    -0.00013875    -0.00029935    -0.00072598
H        -4.40079910    -1.63272824     0.74975232     0.00093997    -0.00037280    -0.00030250
C        -3.93958487     0.33283863     0.03605509    -0.00041936    -0.00009846     0.00003391
C        -2.43575609     0.42779316     0.25334687     0.00070693     0.00014719     0.00012409
H        -4.37812919     1.26563118    -0.39122189    -0.00139354     0.00059126    -0.00123693
H        -1.97716729    -0.44253376     0.78901122    -0.00023167     0.00015906     0.00032545
C        -1.81745008     1.62655171    -0.06365621    -0.00020558    -0.00009492     0.00001374
H        -2.47396768     2.44165094    -0.56189342    -0.00106807    -0.00001909     0.00020182
N        -0.53531362     1.90573831     0.15739718     0.00011352    -0.00011021     0.00007825
H        -0.14518709     2.81019917    -0.07184537     0.00055349     0.00022964    -0.00038731
H         0.04093293     1.38942403     0.78388630     0.00100360     0.00040599    -0.00066350
    14
  Step:    17            Position(A)                                  Velocity(au)
C        -6.10047272    -0.68051369    -0.24561196    -0.00009340    -0.00011930     0.00013401
C        -4.67887708    -0.72509601     0.21235123    -0.00004624     0.00014855    -0.00004856
H        -6.53755725     0.24308197    -0.68332987    -0.00113846     0.00030071    -0.00108995
H        -6.61952841    -1.60523334    -0.09212000    -0.00034396    -0.00035120    -0.00078062
H        -4.38994809    -1.63685200     0.74605991     0.00103252    -0.00036229    -0.00038180
C        -3.94384397     0.33215084     0.03631762    -0.00035637    -0.00002145     0.00001222
C        -2.42812726     0.42933647     0.25480781     0.00068193     0.00013311     0.00014255
H        -4.39311604     1.27130159    -0.40461632    -0.00132292     0.00041346    -0.00119049
H        -1.97966092    -0.43968371     0.79183846    -0.00021456     0.00035324     0.00019684
C        -1.81985939     1.62558543    -0.06358423    -0.00023161    -0.00007923    -0.00000048
H        -2.48412122     2.43997549    -0.55888903    -0.00077997    -0.00028921     0.00034898
N        -0.53402386     1.90462601     0.15822884     0.00012180    -0.00009028     0.00007230
H        -0.13922621     2.81296941    -0.07624454     0.00052124     0.00024864    -0.00041053
H         0.05243502     1.39281391     0.77720127     0.00109806     0.00020636    -0.00055385
    14
  Step:    18            Position(A)                                  Velocity(au)
C        -6.10129839    -0.68178738    -0.24407061    -0.00005948    -0.00011218     0.00014621
C        -4.67987641    -0.72378862     0.21184916    -0.00013696     0.00008750    -0.00004229
H        -6.54974382     0.24541386    -0.69492169    -0.00106897     0.00009683    -0.00101084
H        -6.62438189    -1.60934203    -0.10094674    -0.00053332    -0.00039110    -0.00083169
H        -4.37821067    -1.64065401     0.74139973     0.00110149    -0.00031679    -0.00047743
C        -3.94738121     0.33236940     0.03632236    -0.00028866     0.00006493    -0.00001269
C        -2.42083762     0.43070513     0.25646532     0.00064543     0.00011593     0.00015974
H        -4.40707065     1.27467643    -0.41726608    -0.00120901     0.00018201    -0.00110487
H        -1.98186121    -0.43480598     0.79331755    -0.00017612     0.00052369     0.00008270
C        -1.82251690     1.62481834    -0.06366660    -0.00025042    -0.00005915    -0.00001410
H        -2.49103093     2.43532391    -0.55425882    -0.00048174    -0.00055534     0.00049426
N        -0.53264907     1.90376322     0.15897880     0.00012952    -0.00006555     0.00006409
H        -0.13378398     2.81563858    -0.08082650     0.00046055     0.00021441    -0.00042094
H         0.06495507     1.39393864     0.77176967     0.00118082     0.00000096    -0.00044451
    14
  Step:    19            Position(A)                                  Velocity(au)
C        -6.10177406    -0.68296785    -0.24241334    -0.00002966    -0.00010344     0.00015546
C        -4.68187324    -0.72318168     0.21142603    -0.00022725     0.00002230    -0.00003453
H        -6.56094300     0.24520038    -0.70544402    -0.00096142    -0.00015516    -0.00089816
H        -6.63119585    -1.61378942    -0.11031488    -0.00069864    -0.00040836    -0.00087965
H        -4.36585094    -1.64378230     0.73561531     0.00114619    -0.00024295    -0.00058481
C        -3.95015896     0.33357136     0.03604003    -0.00021883     0.00015593    -0.00003970
C        -2.41400726     0.43187262     0.25830247     0.00059850     0.00009705     0.00017510
H        -4.41956552     1.27528335    -0.42878743    -0.00106021    -0.00008269    -0.00098839
H        -1.98351379    -0.42822696     0.79364774    -0.00011288     0.00065862    -0.00000975
C        -1.82533788     1.62429142    -0.06389266    -0.00026104    -0.00003608    -0.00002636
H        -2.49466028     2.42782647    -0.54807605    -0.00018718    -0.00080147     0.00062801
N        -0.53119040     1.90319201     0.15963095     0.00013750    -0.00003805     0.00005516
H        -0.12915078     2.81766013    -0.08545351     0.00037643     0.00013602    -0.00041971
H         0.07826774     1.39283489     0.76747682     0.00123469    -0.00019283    -0.00035456
    14
  Step:    20            Position(A)                                  Velocity(au)
C        -6.10194717    -0.68405040    -0.24066970    -0.00000429    -0.00009531     0.00016225
C        -4.68484793    -0.72330083     0.21109379    -0.00031443    -0.00004339    -0.00002610
H        -6.57077673     0.24201938    -0.71457060    -0.00082310    -0.00043632    -0.00075966
H        -6.63966608    -1.61827569    -0.12019070    -0.00083339    -0.00039521    -0.00092415
H        -4.35313546    -1.64596909     0.72860592     0.00116682    -0.00014908    -0.00069860
C        -3.95216853     0.33578075     0.03545395    -0.00014947     0.00024675    -0.00006763
C        -2.40774436     0.43282826     0.26029597     0.00054226     0.00007792     0.00018806
H        -4.43026468     1.27286751    -0.43888896    -0.00088485    -0.00036128    -0.00084959
H        -1.98433065    -0.42039751     0.79310436    -0.00002236     0.00074761    -0.00007418
C        -1.82822759     1.62402892    -0.06424326    -0.00026258    -0.00001170    -0.00003645
H        -2.49512586     2.41779031    -0.54052001     0.00008926    -0.00101099     0.00074031
N        -0.52964109     1.90293086     0.16018556     0.00014628    -0.00000989     0.00004686