 Fermi distribution function

Calculation with static geometry


********************************************************************************
 iSCC Total electronic   Diff electronic      SCC error    
    9   -0.53964186E+01   -0.39958348E-09    0.88487217E-06
********************************************************************************

 Total charge:     1.00000000

 Atomic gross charges (e)
 Atom           Charge
    1       0.24561851
    2      -0.12815362
    3       0.16168417
    4       0.29702858
    5       0.26567328
    6       0.15814908

Nr. of electrons (up):     12.00000000
Atom populations (up)
 Atom       Population
    1       3.75438149
    2       5.12815362
    3       0.83831583
    4       0.70297142
    5       0.73432672
    6       0.84185092

l-shell populations (up)
 Atom Sh.   l       Population
    1   1   0       1.29793096
    1   2   1       2.45645053
    2   1   0       1.42485183
    2   2   1       3.70330178
    3   1   0       0.83831583
    4   1   0       0.70297142
    5   1   0       0.73432672
    6   1   0       0.84185092

Orbital populations (up)
 Atom Sh.   l   m       Population  Label
    1   1   0   0       1.29793096  s
    1   2   1  -1       0.56790522  p_y
    1   2   1   0       0.89533265  p_z
    1   2   1   1       0.99321267  p_x
    2   1   0   0       1.42485183  s
    2   2   1  -1       1.34834875  p_y
    2   2   1   0       1.10913810  p_z
    2   2   1   1       1.24581493  p_x
    3   1   0   0       0.83831583  s
    4   1   0   0       0.70297142  s
    5   1   0   0       0.73432672  s
    6   1   0   0       0.84185092  s

Fermi level:                        -0.4915494522 H          -13.3757 eV
Band energy:                        -8.9108564846 H         -242.4767 eV
TS:                                  0.0000000000 H            0.0000 eV
Band free energy (E-TS):            -8.9108564846 H         -242.4767 eV
Extrapolated E(0K):                 -8.9108564846 H         -242.4767 eV
Input / Output electrons (q):     12.0000000000     12.0000000000

Energy H0:                          -5.5314179156 H         -150.5175 eV
Energy SCC:                          0.1349993216 H            3.6735 eV
Total Electronic energy:            -5.3964185940 H         -146.8440 eV
Repulsive energy:                    0.1958383542 H            5.3290 eV
Total energy:                       -5.2005802397 H         -141.5150 eV
Extrapolated to 0:                  -5.2005802397 H         -141.5150 eV
Total Mermin free energy:           -5.2005802397 H         -141.5150 eV
Force related energy:               -5.2005802397 H         -141.5150 eV

SCC converged

Excitation Energy:                   0.1142794082 H            3.1097 eV

Total Forces
    1     -0.019552974070      0.004934261600      0.005417362881
    2      0.004627142538      0.011771624145     -0.008994550731
    3      0.002180091804     -0.013910920069      0.003255733774
    4     -0.002581102044      0.007218952354      0.007566881771
    5      0.008856164111     -0.016342414736     -0.006228415353
    6      0.006470677661      0.006328496706     -0.001017012342

Maximal derivative component:        0.195530E-01 au


