|===============================================================================
|
|  DFTB+ release 20.1
|
|  Copyright (C) 2006 - 2020  DFTB+ developers group
|
|===============================================================================
|
|  When publishing results obtained with DFTB+, please cite the following
|  reference:
|
|  * DFTB+, a software package for efficient approximate density functional
|    theory based atomistic simulations, J. Chem. Phys. 152, 124101 (2020).
|    [doi: 10.1063/1.5143190]
|
|  You should also cite additional publications crediting the parametrization
|  data you use. Please consult the documentation of the SK-files for the
|  references.
|
|===============================================================================

Reading input file 'dftb_in.hsd'
Parser version: 8

--------------------------------------------------------------------------------
Reading SK-files:
Done.


Processed input in HSD format written to 'dftb_pin.hsd'

Starting initialization...
--------------------------------------------------------------------------------
WARNING!
-> Excited state forces are not implemented yet for fractional occupations, kT=  0.3158E-02K
OpenMP threads:              1
Chosen random seed:          506587284
Mode:                        Static calculation
Self consistent charges:     Yes
SCC-tolerance:                 0.100000E-05
Max. scc iterations:                    100
Shell resolved Hubbard:      No
Spin polarisation:           No
Nr. of up electrons:             6.000000
Nr. of down electrons:           6.000000
Periodic boundaries:         No
Electronic solver:           Relatively robust
Mixer:                       Broyden mixer
Mixing parameter:                  0.200000
Maximal SCC-cycles:                     100
Nr. of chrg. vec. in memory:              0
Electronic temperature:        0.100000E-07 H      0.272114E-06 eV
Initial charges:             Set automatically (system chrg:   0.100E+01)
Included shells:             C:  s, p
                             N:  s, p
                             H:  s
Extra options:
                             Mulliken analysis
                             Force calculation
Force type                   original
                             Eigenvector printing

--------------------------------------------------------------------------------

***  Geometry step: 0

 iSCC Total electronic   Diff electronic      SCC error    
    1   -0.53857606E+01    0.00000000E+00    0.79378719E+00
    2   -0.53918514E+01   -0.60908069E-02    0.53786238E+00
    3   -0.53960106E+01   -0.41591513E-02    0.90256510E-01
    4   -0.53960109E+01   -0.30801061E-06    0.92895718E-01
    5   -0.53964141E+01   -0.40316281E-03    0.14978549E-01
    6   -0.53964181E+01   -0.40237272E-05    0.48522403E-02
    7   -0.53964186E+01   -0.49877332E-06    0.15835819E-03
    8   -0.53964186E+01   -0.73192741E-09    0.99575812E-04
    9   -0.53964186E+01   -0.39958348E-09    0.88487217E-06
>> Charges saved for restart in charges.bin

Total Energy:                       -5.0863008315 H         -138.4053 eV
Extrapolated to 0:                  -5.2005802397 H         -141.5150 eV
Total Mermin free energy:           -5.0863008315 H         -138.4053 eV
Force related energy:               -5.2005802397 H         -141.5150 eV

--------------------------------------------------------------------------------
DFTB+ running times                          cpu [s]             wall clock [s]
--------------------------------------------------------------------------------
SCC                                    +     0.01  ( 55.0%)      0.03  ( 64.6%)
Post-SCC processing                    +     0.00  ( 35.9%)      0.01  ( 27.1%)
--------------------------------------------------------------------------------
Missing                                +     0.00  (  9.1%)      0.00  (  8.3%)
Total                                  =     0.01  (100.0%)      0.05  (100.0%)
--------------------------------------------------------------------------------
