|===============================================================================
|
|  DFTB+ release 20.1
|
|  Copyright (C) 2006 - 2020  DFTB+ developers group
|
|===============================================================================
|
|  When publishing results obtained with DFTB+, please cite the following
|  reference:
|
|  * DFTB+, a software package for efficient approximate density functional
|    theory based atomistic simulations, J. Chem. Phys. 152, 124101 (2020).
|    [doi: 10.1063/1.5143190]
|
|  You should also cite additional publications crediting the parametrization
|  data you use. Please consult the documentation of the SK-files for the
|  references.
|
|===============================================================================

Reading input file 'dftb_in.hsd'
Parser version: 8

--------------------------------------------------------------------------------
Reading SK-files:
Done.


Processed input in HSD format written to 'dftb_pin.hsd'

Starting initialization...
--------------------------------------------------------------------------------
OpenMP threads:              1
Chosen random seed:          500431589
Mode:                        Static calculation
Self consistent charges:     Yes
SCC-tolerance:                 0.100000E-05
Max. scc iterations:                   1000
Shell resolved Hubbard:      No
Spin polarisation:           No
Nr. of up electrons:            16.000000
Nr. of down electrons:          16.000000
Periodic boundaries:         No
Electronic solver:           Relatively robust
Maximal SCC-cycles:                    1000
Initial charges:             Set automatically (system chrg:   0.100E+01)
Included shells:             C:  s, p
                             H:  s
                             N:  s, p
Spin coupling constants:     C   1(s)-1(s):  -0.455900E-01
                             C   1(s)-2(p):  -0.293000E-01
                             C   2(p)-1(s):  -0.293000E-01
                             C   2(p)-2(p):  -0.275500E-01
                             H   1(s)-1(s):  -0.792500E-01
                             N   1(s)-1(s):  -0.468700E-01
                             N   1(s)-2(p):  -0.317000E-01
                             N   2(p)-1(s):  -0.317000E-01
                             N   2(p)-2(p):  -0.307200E-01
Range separated hybrid:      Yes
  Screening parameter omega:   0.300000E+00
  Range separated algorithm:   MatrixBased
Extra options:
                             Mulliken analysis
                             Force calculation
Force type                   original
                             Eigenvector printing


REKS Calcuation:             Yes
SSR(2,2) Calcuation:         Yes
Energy Functional:           (PPS+OSS)/2
Number of Core Orbitals:                 15
Number of Active Orbitals:                2
Number of Basis:                         32
Number of States:                         2
State-Averaging Weight:          0.500000
                                 0.500000
State of Interest:                        1
Initial Guess:               Diagonalize H0 matrix
Newton-Raphson for FON opt:  Yes
NR max. Iterations:                      50
Level Shifting:              Yes
Shift Value:                     0.300000
W Scale Factor:              C  =    3.200000
                             H  =    3.200000
                             N  =    3.200000
Transition Dipole:           No
Gradient of Microstate:      No
CP-REKS Solver:              Preconditioned Conjugate-Gradient
CG max. Iterations:                     100
CG Tolerance:                  0.100000E-07
Memory for A and Hxc:        Direct Updating Without Saving
Non-Adiabatic Coupling:      Yes

--------------------------------------------------------------------------------

***  Geometry step: 0

  iSCC       reks energy        Diff energy         x_a       SCC error   
    1      -16.3988851227       0.0000000000     0.998130    1.15390741
    2      -16.4161830052      -0.0172978825     0.999819    0.04628964
    3      -16.4196068473      -0.0034238421     0.999940    0.01702306
    4      -16.4207185024      -0.0011116551     0.999968    0.00990209
    5      -16.4211830257      -0.0004645233     0.999979    0.00624125
    6      -16.4214041672      -0.0002211415     0.999984    0.00413574
    7      -16.4215185902      -0.0001144230     0.999987    0.00288259
    8      -16.4215816500      -0.0000630598     0.999988    0.00203949
    9      -16.4216183423      -0.0000366923     0.999989    0.00146724
   10      -16.4216407841      -0.0000224418     0.999990    0.00107474
   11      -16.4216551590      -0.0000143749     0.999990    0.00087640
   12      -16.4216647606      -0.0000096016     0.999991    0.00072856
   13      -16.4216714142      -0.0000066536     0.999991    0.00061245
   14      -16.4216761715      -0.0000047573     0.999991    0.00051969
   15      -16.4216796628      -0.0000034912     0.999991    0.00044451
   16      -16.4216822801      -0.0000026173     0.999991    0.00038281
   17      -16.4216842766      -0.0000019965     0.999991    0.00033160
   18      -16.4216858211      -0.0000015446     0.999991    0.00028869
   19      -16.4216870300      -0.0000012089     0.999991    0.00025241
   20      -16.4216879852      -0.0000009552     0.999991    0.00022149
   21      -16.4216887460      -0.0000007608     0.999991    0.00019497
   22      -16.4216893560      -0.0000006100     0.999991    0.00017208
   23      -16.4216898479      -0.0000004920     0.999991    0.00015711
   24      -16.4216902466      -0.0000003987     0.999991    0.00014447
   25      -16.4216905712      -0.0000003245     0.999992    0.00013269
   26      -16.4216908363      -0.0000002652     0.999992    0.00012176
   27      -16.4216910537      -0.0000002174     0.999992    0.00011165
   28      -16.4216912324      -0.0000001787     0.999992    0.00010232
   29      -16.4216913798      -0.0000001473     0.999992    0.00009372
   30      -16.4216915015      -0.0000001218     0.999992    0.00008582
   31      -16.4216916024      -0.0000001009     0.999992    0.00007856
   32      -16.4216916861      -0.0000000837     0.999992    0.00007190
   33      -16.4216917556      -0.0000000696     0.999992    0.00006579
   34      -16.4216918136      -0.0000000579     0.999992    0.00006020
   35      -16.4216918619      -0.0000000483     0.999992    0.00005508
   36      -16.4216919022      -0.0000000403     0.999992    0.00005040
   37      -16.4216919360      -0.0000000337     0.999992    0.00004611
   38      -16.4216919642      -0.0000000282     0.999992    0.00004219
   39      -16.4216919879      -0.0000000237     0.999992    0.00003861
   40      -16.4216920077      -0.0000000199     0.999992    0.00003533
   41      -16.4216920244      -0.0000000167     0.999992    0.00003234
   42      -16.4216920384      -0.0000000140     0.999992    0.00002960
   43      -16.4216920502      -0.0000000118     0.999992    0.00002710
   44      -16.4216920601      -0.0000000099     0.999992    0.00002481
   45      -16.4216920684      -0.0000000083     0.999992    0.00002272
   46      -16.4216920755      -0.0000000070     0.999992    0.00002081
   47      -16.4216920814      -0.0000000059     0.999992    0.00001906
   48      -16.4216920864      -0.0000000050     0.999992    0.00001746
   49      -16.4216920906      -0.0000000042     0.999992    0.00001600
   50      -16.4216920942      -0.0000000036     0.999992    0.00001466
   51      -16.4216920972      -0.0000000030     0.999992    0.00001343
   52      -16.4216920997      -0.0000000025     0.999992    0.00001231
   53      -16.4216921019      -0.0000000021     0.999992    0.00001129
   54      -16.4216921037      -0.0000000018     0.999992    0.00001035
   55      -16.4216921052      -0.0000000015     0.999992    0.00000949
   56      -16.4216921065      -0.0000000013     0.999992    0.00000871
   57      -16.4216921076      -0.0000000011     0.999992    0.00000799
   58      -16.4216921085      -0.0000000009     0.999992    0.00000733
   59      -16.4216921093      -0.0000000008     0.999992    0.00000672
   60      -16.4216921100      -0.0000000007     0.999992    0.00000617
   61      -16.4216921105      -0.0000000006     0.999992    0.00000566
   62      -16.4216921110      -0.0000000005     0.999992    0.00000520
   63      -16.4216921114      -0.0000000004     0.999992    0.00000477
   64      -16.4216921118      -0.0000000003     0.999992    0.00000438
   65      -16.4216921121      -0.0000000003     0.999992    0.00000402
   66      -16.4216921123      -0.0000000002     0.999992    0.00000369
   67      -16.4216921125      -0.0000000002     0.999992    0.00000339
   68      -16.4216921127      -0.0000000002     0.999992    0.00000312
   69      -16.4216921128      -0.0000000001     0.999992    0.00000286
   70      -16.4216921130      -0.0000000001     0.999992    0.00000263
   71      -16.4216921131      -0.0000000001     0.999992    0.00000242
   72      -16.4216921132      -0.0000000001     0.999992    0.00000222
   73      -16.4216921132      -0.0000000001     0.999992    0.00000204
   74      -16.4216921133      -0.0000000001     0.999992    0.00000188
   75      -16.4216921134      -0.0000000001     0.999992    0.00000172
   76      -16.4216921134      -0.0000000000     0.999992    0.00000158
   77      -16.4216921134      -0.0000000000     0.999992    0.00000146
   78      -16.4216921135      -0.0000000000     0.999992    0.00000134
   79      -16.4216921135      -0.0000000000     0.999992    0.00000123
   80      -16.4216921135      -0.0000000000     0.999992    0.00000113
   81      -16.4216921136      -0.0000000000     0.999992    0.00000104
   82      -16.4216921136      -0.0000000000     0.999992    0.00000096
  
--------------------------------------------------
 Final SA-REKS(2,2) energy:     -16.42169211
  
 State     Energy      FON(1)    FON(2)   Spin
  PPS  -16.48103136   1.999983  0.000017  0.00
  OSS  -16.36235287   1.000000  1.000000  0.00
 Trip  -16.39970592   1.000000  1.000000  1.00
--------------------------------------------------

 Lagrangian Wab:  -0.00465246 -0.00465240

--------------------------------------------------
 SSR: 2SI-2SA-REKS(2,2) Hamiltonian matrix
               PPS           OSS
   PPS   -16.48103136   -0.00656064
   OSS    -0.00656064  -16.36235287
--------------------------------------------------

----------------------------------------------------------------
 SSR: 2SI-2SA-REKS(2,2) states
                    E_n       C_{PPS}    C_{OSS}
 SSR state  1  -16.48139293  -0.998485  -0.055029
 SSR state  2  -16.36199129   0.055029  -0.998485
----------------------------------------------------------------

 unrelaxed SSR FONs for S0:  1.996955  0.003045

Total Energy:                      -16.4813929325 H         -448.4815 eV
Extrapolated to 0:                 -16.4813929325 H         -448.4815 eV

----------------------------------------------------------------------------------
 Solving CP-REKS equation for  1 state vector...
----------------------------------------------------------------------------------
  CG solver: Constructing Y initial guess
  CG solver: Iteration    1    eps =    0.000065093929
  CG solver: Iteration    2    eps =    0.000008146494
  CG solver: Iteration    3    eps =    0.000012218553
  CG solver: Iteration    4    eps =    0.000000517469
  CG solver: Iteration    5    eps =    0.000000256780
  CG solver: Iteration    6    eps =    0.000000107455
  CG solver: Iteration    7    eps =    0.000000017057
  CG solver: Iteration    8    eps =    0.000000003962
  Convergence reached in CG solver after    8 iterations
  CG solver: Calculating converged R, Z, Q2 matrix
----------------------------------------------------------------------------------

----------------------------------------------------------------------------------
 Solving CP-REKS equation for SI between  1 and  2 state vectors...
----------------------------------------------------------------------------------
  CG solver: Constructing Y initial guess
  CG solver: Iteration    1    eps =    0.042473597892
  CG solver: Iteration    2    eps =    0.003997696427
  CG solver: Iteration    3    eps =    0.001283829583
  CG solver: Iteration    4    eps =    0.000055486000
  CG solver: Iteration    5    eps =    0.000021513406
  CG solver: Iteration    6    eps =    0.000010684998
  CG solver: Iteration    7    eps =    0.000001843467
  CG solver: Iteration    8    eps =    0.000000309827
  CG solver: Iteration    9    eps =    0.000000168049
  CG solver: Iteration   10    eps =    0.000000036911
  CG solver: Iteration   11    eps =    0.000000004630
  Convergence reached in CG solver after   11 iterations
  CG solver: Calculating converged R, Z, Q2 matrix
----------------------------------------------------------------------------------

--------------------------------------------------
 Gradient Information
--------------------------------------------------
           1 st state (SSR)
    -0.04062929    -0.05894740     0.04528612
    -0.03868476     0.05281089    -0.01432133
     0.00245357     0.01196364    -0.01602589
     0.02334036     0.01215384    -0.00998027
    -0.02316089    -0.00499158     0.01663430
     0.02826776    -0.03177332     0.01023883
    -0.00033193    -0.00421075     0.06150766
     0.01666467    -0.00357160    -0.02996489
    -0.01366831    -0.01645825    -0.00209658
     0.04157236     0.01806247    -0.11166363
     0.01072549     0.01105555    -0.02043720
     0.01468692     0.02474705     0.05699208
     0.00102013    -0.01053607     0.00508164
    -0.02225607    -0.00030448     0.00874916

           2 st state (SSR)
    -0.03413226    -0.04987160     0.03469348
    -0.05309152     0.02617753    -0.00132102
     0.00711719     0.01231984    -0.00629676
     0.02124485     0.01003997    -0.01892752
    -0.01409539     0.00050960     0.02518036
     0.03948089    -0.00668549     0.00937465
    -0.00817500    -0.01047412     0.04998613
     0.01731991     0.00262914    -0.03188208
    -0.01777022    -0.00967050    -0.00429939
     0.05281128     0.03127569    -0.04378014
     0.01448557     0.01194127    -0.02124221
    -0.00204166    -0.01124564    -0.00786253
     0.00141413    -0.00122038     0.00354981
    -0.02456779    -0.00572532     0.01282721
--------------------------------------------------
 Coupling Information
--------------------------------------------------
 between  1 and  2 states
--------------------------------------------------
 g vector - difference gradient
    -0.00352620    -0.00409229     0.00555147
     0.00740623     0.01328124    -0.00692786
    -0.00209780    -0.00023345    -0.00448046
     0.00098020     0.00097618     0.00405200
    -0.00403838    -0.00228556    -0.00418428
    -0.01008452    -0.01593126    -0.00285961
     0.00943246     0.00693590     0.00843654
     0.00000949    -0.00360096     0.00119522
     0.00227339    -0.00360613     0.00111524
    -0.00768996    -0.00636804    -0.03215865
    -0.00182444    -0.00041347     0.00032352
     0.00823225     0.01722302     0.03101228
     0.00003056    -0.00475923     0.00087760
     0.00089672     0.00287405    -0.00195301

 h vector - derivative coupling
     0.00233257    -0.00428054    -0.00201583
    -0.00143775     0.00105442     0.00351021
    -0.00224511     0.00049082    -0.00374219
     0.00066877     0.00078862     0.00406004
    -0.00472132    -0.00435762    -0.00103819
     0.04019290     0.02994634     0.02979632
    -0.04962871    -0.03423553    -0.02388418
    -0.00306709     0.00435682    -0.00208736
    -0.00189887     0.00173278    -0.00006446
     0.01841738    -0.00252194    -0.01799828
    -0.00060650    -0.00029026     0.00073663
     0.00165519     0.00798635     0.01458565
    -0.00206904     0.00066031    -0.00096798
     0.00240757    -0.00133057    -0.00089038

 G vector - GDV
    -0.00324852    -0.00453790     0.00529632
     0.00720338     0.01331668    -0.00650016
    -0.00233181    -0.00017810    -0.00486456
     0.00104775     0.00105693     0.00447363
    -0.00453275    -0.00275059    -0.00427303
    -0.00560657    -0.01254391     0.00043209
     0.00392154     0.00313169     0.00576076
    -0.00032762    -0.00310037     0.00095859
     0.00205095    -0.00339387     0.00110140
    -0.00561946    -0.00660661    -0.03394175
    -0.00188004    -0.00044286     0.00040251
     0.00836429     0.01799635     0.03242730
    -0.00019700    -0.00465784     0.00076591
     0.00115586     0.00271042    -0.00203903

 H vector - DCV - non-adiabatic coupling
     0.02266253    -0.03186645    -0.02188981
    -0.01878470    -0.00344607     0.03559643
    -0.01675837     0.00430065    -0.02702779
     0.00466495     0.00566636     0.03006799
    -0.03558524    -0.03417094    -0.00479122
     0.34386197     0.26394685     0.25066744
    -0.42180901    -0.29137272    -0.20658540
    -0.02554031     0.03958194    -0.01847603
    -0.01789925     0.01774323    -0.00156297
     0.16039059    -0.01513273    -0.12022694
    -0.00336961    -0.00203571     0.00583424
     0.00620184     0.05063002     0.09287399
    -0.01725159     0.00987683    -0.00886555
     0.01921620    -0.01372128    -0.00561437
--------------------------------------------------


--------------------------------------------------------------------------------
DFTB+ running times                          cpu [s]             wall clock [s]
--------------------------------------------------------------------------------
SCC                                    +     0.11  ( 28.9%)      0.12  ( 29.2%)
      Dense to sparse                        0.02  (  5.5%)      0.02  (  5.1%)
      Range separated Hamiltonian            0.01  (  2.6%)      0.01  (  2.5%)
  Density matrix creation                    0.01  (  3.2%)      0.01  (  3.2%)
Post-SCC processing                    +     0.28  ( 70.7%)      0.28  ( 69.1%)
  Force calculation                          0.28  ( 70.7%)      0.28  ( 68.9%)
--------------------------------------------------------------------------------
Missing                                +     0.00  (  0.4%)      0.01  (  1.7%)
Total                                  =     0.40  (100.0%)      0.41  (100.0%)
--------------------------------------------------------------------------------
