     6
  Step:     0            Position(A)                                  Velocity(au)
C        -0.02952388     0.01872086    -0.00301579    -0.00003439    -0.00015241     0.00008344
N        -0.03812036    -0.06183461     1.31194170     0.00011957     0.00009944    -0.00011245
H         0.89083496    -0.01096861    -0.50002376     0.00016396     0.00071385     0.00040749
H         0.79419136    -0.09969597     1.83456391    -0.00147785    -0.00048719    -0.00033538
H        -0.98531418    -0.00526602     1.86867115     0.00012235    -0.00014285     0.00070041
H        -1.03110804     0.08234946    -0.50643725    -0.00006027     0.00035036    -0.00020408
     6
  Step:     1            Position(A)                                  Velocity(au)
C        -0.02976849     0.01789469    -0.00258312    -0.00005517    -0.00014990     0.00007430
N        -0.03755170    -0.06129315     1.31138203     0.00008708     0.00009877    -0.00009258
H         0.89232242    -0.00707843    -0.49833952     0.00037906     0.00071032     0.00020923
H         0.78669162    -0.10237586     1.83322350    -0.00124683    -0.00049509    -0.00014338
H        -0.98403467    -0.00607062     1.87222484     0.00034632    -0.00015143     0.00059710
H        -1.03136287     0.08426365    -0.50771274    -0.00003128     0.00034980    -0.00026170
     6
  Step:     2            Position(A)                                  Velocity(au)
C        -0.03012709     0.01708177    -0.00220337    -0.00007590    -0.00014780     0.00006409
N        -0.03716819    -0.06075463     1.31092937     0.00005238     0.00009851    -0.00007336
H         0.89497978    -0.00320155    -0.49773588     0.00058936     0.00071015     0.00001428
H         0.78055781    -0.10510958     1.83299617    -0.00098419    -0.00050760     0.00006894
H        -0.98152737    -0.00692178     1.87520011     0.00057045    -0.00016001     0.00049075
H        -1.03145011     0.08617436    -0.50929879     0.00000091     0.00034963    -0.00031821
     6
  Step:     3            Position(A)                                  Velocity(au)
C        -0.03059777     0.01627980    -0.00188287    -0.00009607    -0.00014614     0.00005261
N        -0.03697940    -0.06021682     1.31058054     0.00001633     0.00009865    -0.00005455
H         0.89876179     0.00068068    -0.49818354     0.00078888     0.00071347    -0.00017403
H         0.77593837    -0.10792188     1.83397673    -0.00069893    -0.00052454     0.00029572
H        -0.97780192    -0.00781890     1.87758676     0.00079168    -0.00016842     0.00038342
H        -1.03135294     0.08808367    -0.51118948     0.00003614     0.00034987    -0.00037388
     6
  Step:     4            Position(A)                                  Velocity(au)
C        -0.03117583     0.01548637    -0.00162899    -0.00011515    -0.00014489     0.00003968
N        -0.03698990    -0.05967764     1.31033380    -0.00002011     0.00009913    -0.00003586
H         0.90359186     0.00458732    -0.49963572     0.00097196     0.00072007    -0.00035263
H         0.77292767    -0.11083597     1.83622449    -0.00040122    -0.00054537     0.00052996
H        -0.97288466    -0.00876035     1.87938588     0.00100663    -0.00017640     0.00027711
H        -1.03105561     0.08999389    -0.51338035     0.00007418     0.00035047    -0.00042885
     6
  Step:     5            Position(A)                                  Velocity(au)
C        -0.03185394     0.01469924    -0.00144998    -0.00013265    -0.00014395     0.00002515
N        -0.03719876    -0.05913537     1.31018930    -0.00005588     0.00009984    -0.00001695
H         0.90936491     0.00853596    -0.50203036     0.00113332     0.00072941    -0.00051867
H         0.77156141    -0.11387139     1.83975803    -0.00010214    -0.00056914     0.00076359
H        -0.96682062    -0.00974328     1.88060980     0.00121121    -0.00018368     0.00017398
H        -1.03054368     0.09190691    -0.51586784     0.00011474     0.00035122    -0.00048310
     6
  Step:     6            Position(A)                                  Velocity(au)
C        -0.03262226     0.01391667    -0.00135470    -0.00014807    -0.00014322     0.00000897
N        -0.03759920    -0.05858893     1.31014903    -0.00008982     0.00010063     0.00000249
H         0.91594986     0.01254094    -0.50529137     0.00126811     0.00074062    -0.00066940
H         0.77181395    -0.11704197     1.84455087     0.00018677    -0.00059451     0.00098777
H        -0.95967740    -0.01076320     1.88128300     0.00140042    -0.00018988     0.00007651
H        -1.02980447     0.09382365    -0.51864818     0.00015736     0.00035185    -0.00053634
     6
  Step:     7            Position(A)                                  Velocity(au)
C        -0.03346853     0.01313761    -0.00135217    -0.00016096    -0.00014251    -0.00000882
N        -0.03817820    -0.05803810     1.31021648    -0.00012073     0.00010131     0.00002263
H         0.92319240     0.01661168    -0.50932954     0.00137205     0.00075258    -0.00080222
H         0.77359798    -0.12035393     1.85052876     0.00045401    -0.00061985     0.00119330
H        -0.95155036    -0.01181370     1.88144404     0.00156826    -0.00019459    -0.00001238
H        -1.02882786     0.09574349    -0.52171611     0.00020141     0.00035200    -0.00058803
     6
  Step:     8            Position(A)                                  Velocity(au)
C        -0.03437830     0.01236195    -0.00145091    -0.00017091    -0.00014165    -0.00002802
N        -0.03891633    -0.05748363     1.31039591    -0.00014738     0.00010170     0.00004348
H         0.93091855     0.02075134    -0.51404334     0.00144177     0.00076399    -0.00091472
H         0.77676706    -0.12380433     1.85756942     0.00068887    -0.00064333     0.00137124
H        -0.94256814    -0.01288610     1.88114796     0.00170787    -0.00019737    -0.00008929
H        -1.02760717     0.09766386    -0.52506340     0.00024607     0.00035127    -0.00063738
     6
  Step:     9            Position(A)                                  Velocity(au)
C        -0.03533515     0.01159055    -0.00165824    -0.00017758    -0.00014046    -0.00004831
N        -0.03978787    -0.05692737     1.31069132    -0.00016865     0.00010159     0.00006484
H         0.93893922     0.02495592    -0.51932007     0.00147499     0.00077351    -0.00100489
H         0.78112174    -0.12738034     1.86550530     0.00088223    -0.00066312     0.00151368
H        -0.93289715    -0.01396939     1.88046884     0.00181208    -0.00019781    -0.00015053
H        -1.02614029     0.09958004    -0.52867754     0.00029035     0.00034928    -0.00068346
     6
  Step:    10            Position(A)                                  Velocity(au)
C        -0.03632115     0.01082527    -0.00197950    -0.00018078    -0.00013878    -0.00006923
N        -0.04076143    -0.05637219     1.31110527    -0.00018360     0.00010082     0.00008632
H         0.94705587     0.02921407    -0.52503754     0.00147093     0.00077988    -0.00107132
H         0.78641921    -0.13105925     1.87413007     0.00102734    -0.00067753     0.00161452
H        -0.92274276    -0.01505026     1.87950102     0.00187415    -0.00019555    -0.00019243
H        -1.02443053     0.10148518    -0.53254085     0.00033314     0.00034569    -0.00072525
     6
  Step:    11            Position(A)                                  Velocity(au)
C        -0.03731750     0.01006880    -0.00241739    -0.00018046    -0.00013650    -0.00009022
N        -0.04180109    -0.05582181     1.31163783    -0.00019160     0.00009929     0.00010736
H         0.95506847     0.03350764    -0.53106743     0.00143048     0.00078210    -0.00111342
H         0.79238690    -0.13480970     1.88320912     0.00112048    -0.00068528     0.00167015
H        -0.91234643    -0.01611364     1.87835876     0.00188860    -0.00019037    -0.00021168
H        -1.02248726     0.10337064    -0.53663016     0.00037332     0.00034029    -0.00076186
     6
  Step:    12            Position(A)                                  Velocity(au)
C        -0.03830528     0.00932444    -0.00297147    -0.00017673    -0.00013359    -0.00011070
N        -0.04286800    -0.05528053     1.31228572    -0.00019238     0.00009693     0.00012734
H         0.96278366     0.03781309    -0.53727935     0.00135621     0.00077952    -0.00113162
H         0.79873860    -0.13859380     1.89249298     0.00116116    -0.00068561     0.00167976
H        -0.90197802    -0.01714334     1.87717363     0.00185213    -0.00018222    -0.00020585
H        -1.02032591     0.10522659    -0.54091736     0.00040989     0.00033301    -0.00079264
     6
  Step:    13            Position(A)                                  Velocity(au)
C        -0.03926638     0.00859571    -0.00363811    -0.00016990    -0.00013005    -0.00013011
N        -0.04392251    -0.05475290     1.31304200    -0.00018610     0.00009378     0.00014561
H         0.97002360     0.04210351    -0.54354602     0.00125224     0.00077194    -0.00112740
H         0.80519118    -0.14237005     1.90173215     0.00115205    -0.00067836     0.00164542
H        -0.89192265    -0.01812303     1.87608887     0.00176426    -0.00017124    -0.00017376
H        -1.01796736     0.10704281    -0.54537072     0.00044205     0.00032395    -0.00081728
     6
  Step:    14            Position(A)                                  Velocity(au)
C        -0.04018440     0.00788606    -0.00441059    -0.00016038    -0.00012597    -0.00014800
N        -0.04492634    -0.05424324     1.31389628    -0.00017329     0.00008993     0.00016169
H         0.97663396     0.04635106    -0.54974884     0.00112382     0.00075964    -0.00110318
H         0.81148076    -0.14609670     1.91069205     0.00109845    -0.00066397     0.00157167
H        -0.88246455    -0.01903737     1.87525183     0.00162760    -0.00015776    -0.00011576
H        -1.01543668     0.10880961    -0.54995681     0.00046934     0.00031336    -0.00083593
     6
  Step:    15            Position(A)                                  Velocity(au)
C        -0.04104529     0.00719842    -0.00527979    -0.00014870    -0.00012150    -0.00016406
N        -0.04584472    -0.05375536     1.31483549    -0.00015484     0.00008552     0.00017525
H         0.98248919     0.05052957    -0.55578266     0.00097678     0.00074333    -0.00106214
H         0.81737532    -0.14973497     1.91916533     0.00100744    -0.00064345     0.00146482
H        -0.87386907    -0.01987295     1.87480481     0.00144774    -0.00014225    -0.00003382
H        -1.01276134     0.11051868    -0.55464298     0.00049168     0.00030164    -0.00084919
     6
  Step:    16            Position(A)                                  Velocity(au)
C        -0.04183797     0.00653495    -0.00623497    -0.00013545    -0.00011682    -0.00017815
N        -0.04664815    -0.05329221     1.31584509    -0.00013183     0.00008075     0.00018623
H         0.98749581     0.05461686    -0.56155980     0.00081701     0.00072400    -0.00100788
H         0.82268352    -0.15325188     1.92698087     0.00088697    -0.00061814     0.00133214
H        -0.86636568    -0.02061917     1.87487570     0.00123268    -0.00012527     0.00006868
H        -1.00996919     0.11216381    -0.55939976     0.00050933     0.00028925    -0.00085804
     6
  Step:    17            Position(A)                                  Velocity(au)
C        -0.04255450     0.00589682    -0.00726465    -0.00012118    -0.00011212    -0.00019027
N        -0.04731350    -0.05285569     1.31691044    -0.00010545     0.00007580     0.00019479
H         0.99159213     0.05859623    -0.56701223     0.00064976     0.00070285    -0.00094402
H         0.82725775    -0.15662211     1.93400777     0.00074492    -0.00058954     0.00118094
H        -0.86013478    -0.02126862     1.87557002     0.00099183    -0.00010740     0.00018732
H        -1.00708649     0.11374148    -0.56420308     0.00052285     0.00027670    -0.00086373
     6
  Step:    18            Position(A)                                  Velocity(au)
C        -0.04318988     0.00528418    -0.00835766    -0.00010636    -0.00010757    -0.00020060
N        -0.04782453    -0.05244662     1.31801815    -0.00007688     0.00007085     0.00020127
H         0.99474454     0.06245779    -0.57209132     0.00047935     0.00068106    -0.00087388
H         0.83099384    -0.15982882     1.94015540     0.00058844    -0.00055916     0.00101787
H        -0.85530079    -0.02181736     1.87696547     0.00073507    -0.00008922     0.00031705
H        -1.00413625     0.11525067    -0.56903550     0.00053299     0.00026440    -0.00086756
     6
  Step:    19            Position(A)                                  Velocity(au)
C        -0.04374173     0.00469618    -0.00950372    -0.00009138    -0.00010332    -0.00020934
N        -0.04817167    -0.05206483     1.31915700    -0.00004721     0.00006607     0.00020613
H         0.99694255     0.06619818    -0.57676640     0.00030898     0.00065968    -0.00080021
H         0.83382588    -0.16286340     1.94536915     0.00042344    -0.00052829     0.00084843
H        -0.85192997    -0.02226452     1.87910886     0.00047198    -0.00007119     0.00045253
H        -1.00113727     0.11669274    -0.57388665     0.00054053     0.00025272    -0.00087073
     6
  Step:    20            Position(A)                                  Velocity(au)
C        -0.04420972     0.00413118    -0.01069382    -0.00007652    -0.00009947    -0.00021670
N        -0.04835134    -0.05170929     1.32031856    -0.00001734     0.00006156     0.00020986
H         0.99819276     0.06981977    -0.58102162     0.00014085     0.00063948    -0.00072512
H         0.83571936    -0.16572445     1.94962382     0.00025450    -0.00049795     0.00067681
H        -0.85003359    -0.02261186     1.88201563     0.00021126    -0.00005368     0.00058849
H        -0.99810405     0.11807094    -0.57875274     0.00054613     0.00024186    -0.00087421
     6
  Step:    21            Position(A)                                  Velocity(au)
C        -0.04459500     0.00358701    -0.01192020    -0.00006195    -0.00009607    -0.00022288
N        -0.04836503    -0.05137837     1.32149720     0.00001194     0.00005740     0.00021290
H         0.99851315     0.07332921    -0.58485237    -0.00002371     0.00062096    -0.00065004
H         0.83666390    -0.16841615     1.95291642     0.00008511    -0.00046888     0.00050604
H        -0.84957418    -0.02286308     1.88567128    -0.00003944    -0.00003693     0.00071989
H        -0.99504724     0.11938975    -0.58363513     0.00055033     0.00023193    -0.00087861
     6
  Step:    22            Position(A)                                  Velocity(au)
C        -0.04489966     0.00306120    -0.01317616    -0.00004778    -0.00009313    -0.00022798
N        -0.04821841    -0.05107003     1.32268982     0.00003996     0.00005362     0.00021563
H         0.99792865     0.07673594    -0.58826167    -0.00018385     0.00060435    -0.00057590
H         0.83666732    -0.17094675     1.95525997    -0.00008203    -0.00044157     0.00033831
H        -0.85047289    -0.02302323     1.89003365    -0.00027357    -0.00002114     0.00084200
H        -0.99197458     0.12065414    -0.58853850     0.00055344     0.00022292    -0.00088420
     6
  Step:    23            Position(A)                                  Velocity(au)
C        -0.04512637     0.00255121    -0.01445570    -0.00003408    -0.00009064    -0.00023205
N        -0.04792058    -0.05078201     1.32389534     0.00006618     0.00005026     0.00021829
H         0.99646840     0.08005068    -0.59125737    -0.00033894     0.00058968    -0.00050324
H         0.83575162    -0.17332722     1.95667902    -0.00024460    -0.00041634     0.00017534
H        -0.85261679    -0.02309819     1.89503577    -0.00048561    -0.00000640     0.00095051
H        -0.98889202     0.12186902    -0.59346896     0.00055559     0.00021473    -0.00089093
     6
  Step:    24            Position(A)                                  Velocity(au)
C        -0.04527815     0.00205461    -0.01575306    -0.00002091    -0.00008856    -0.00023507
N        -0.04748346    -0.05051194     1.32511397     0.00009011     0.00004730     0.00022105
H         0.99416473     0.08328437    -0.59385017    -0.00048831     0.00057684    -0.00043243
H         0.83395099    -0.17557027     1.95720710    -0.00040040    -0.00039342     0.00001866
H        -0.85586557    -0.02309433     1.90058905    -0.00067100     0.00000721     0.00104165
H        -0.98580476     0.12303872    -0.59843230     0.00055675     0.00020720    -0.00089850
     6
  Step:    25            Position(A)                                  Velocity(au)
C        -0.04535827     0.00156919    -0.01706241    -0.00000832    -0.00008682    -0.00023696
N        -0.04692138    -0.05025745     1.32634656     0.00011131     0.00004476     0.00022392
H         0.99105337     0.08644737    -0.59605265    -0.00063115     0.00056564    -0.00036376
H         0.83131149    -0.17768996     1.95688596    -0.00054708    -0.00037301    -0.00013012
H        -0.86005767    -0.02301822     1.90658686    -0.00082622     0.00001967     0.00111233
H        -0.98271811     0.12416673    -0.60343260     0.00055679     0.00020015    -0.00090642
     6
  Step:    26            Position(A)                                  Velocity(au)
C        -0.04537027     0.00109301    -0.01837752     0.00000364    -0.00008539    -0.00023763
N        -0.04625068    -0.05001616     1.32759397     0.00012942     0.00004264     0.00022685
H         0.98717442     0.08954913    -0.59787897    -0.00076641     0.00055591    -0.00029758
H         0.82789186    -0.17970152     1.95576598    -0.00068208    -0.00035535    -0.00026923
H        -0.86501635    -0.02287644     1.91290863    -0.00094883     0.00003098     0.00116029
H        -0.97963805     0.12525551    -0.60847133     0.00055554     0.00019339    -0.00091414
     6
  Step:    27            Position(A)                                  Velocity(au)
C        -0.04531805     0.00062441    -0.01969165     0.00001487    -0.00008421    -0.00023698
N        -0.04548946    -0.04978569     1.32885646     0.00014414     0.00004093     0.00022968
H         0.98257365     0.09259806    -0.59934514    -0.00089283     0.00054747    -0.00023432
H         0.82376480    -0.18162158     1.95390718    -0.00080263    -0.00034073    -0.00039668
H        -0.87055567    -0.02267544     1.91942448    -0.00103748     0.00004116     0.00118413
H        -0.97657155     0.12630644    -0.61354677     0.00055279     0.00018673    -0.00092104
     6
  Step:    28            Position(A)                                  Velocity(au)
C        -0.04520590     0.00016197    -0.02099746     0.00002528    -0.00008325    -0.00023490
N        -0.04465717    -0.04956363     1.33013328     0.00015522     0.00003965     0.00023222
H         0.97730366     0.09560177    -0.60046950    -0.00100900     0.00054023    -0.00017451
H         0.81901832    -0.18346851     1.95138044    -0.00090577    -0.00032956    -0.00051032
H        -0.87648632    -0.02242142     1.92599997    -0.00109198     0.00005027     0.00118345
H        -0.97352661     0.12731987    -0.61865397     0.00054841     0.00017999    -0.00092656
     6
  Step:    29            Position(A)                                  Velocity(au)
C        -0.04503868    -0.00029547    -0.02228715     0.00003478    -0.00008247    -0.00023132
N        -0.04377431    -0.04934754     1.33142239     0.00016252     0.00003882     0.00023421
H         0.97142471     0.09856732    -0.60127339    -0.00111348     0.00053417    -0.00011879
H         0.81375651    -0.18526309     1.94826839    -0.00098855    -0.00032231    -0.00060795
H        -0.88262148    -0.02211999     1.93250100    -0.00111323     0.00005838     0.00115874
H        -0.97051192     0.12829524    -0.62378482     0.00054228     0.00017304    -0.00093023
     6
  Step:    30            Position(A)                                  Velocity(au)
C        -0.04482173    -0.00074898    -0.02355245     0.00004326    -0.00008187    -0.00022619
N        -0.04286203    -0.04913488     1.33272021     0.00016596     0.00003845     0.00023539
H         0.96500488     0.10150183    -0.60178160    -0.00120488     0.00052937    -0.00006786
H         0.80809945    -0.18702848     1.94466540    -0.00104819    -0.00031946    -0.00068749
H        -0.88878230    -0.02177654     1.93879867    -0.00110310     0.00006558     0.00111136
H        -0.96753690     0.12923113    -0.62892871     0.00053437     0.00016574    -0.00093170
     6
  Step:    31            Position(A)                                  Velocity(au)
C        -0.04456094    -0.00119953    -0.02478486     0.00005063    -0.00008144    -0.00021951
N        -0.04194168    -0.04892298     1.33402166     0.00016554     0.00003857     0.00023550
H         0.95811980     0.10441289    -0.60202276    -0.00128195     0.00052600    -0.00002245
H         0.80218184    -0.18879069     1.94067678    -0.00108225    -0.00032158    -0.00074709
H        -0.89480251    -0.02139586     1.94477319    -0.00106425     0.00007196     0.00104330
H        -0.96461113     0.13012547    -0.63407310     0.00052471     0.00015802    -0.00093073
     6
  Step:    32            Position(A)                                  Velocity(au)
C        -0.04426274    -0.00164809    -0.02597585     0.00005680    -0.00008119    -0.00021128
N        -0.04103442    -0.04870906     1.33532024     0.00016134     0.00003921     0.00023434
H         0.95085179     0.10730902    -0.60202944    -0.00134359     0.00052430     0.00001671
H         0.79615106    -0.19057879     1.93641731    -0.00108877    -0.00032924    -0.00078528
H        -0.90053198    -0.02098208     1.95031699    -0.00099990     0.00007767     0.00095704
H        -0.96174399     0.13097566    -0.63920423     0.00051339     0.00014978    -0.00092722
     6
  Step:    33            Position(A)                                  Velocity(au)
C        -0.04393398    -0.00209568    -0.02711700     0.00006169    -0.00008113    -0.00020156
N        -0.04016080    -0.04849018     1.33660829     0.00015351     0.00004040     0.00023171
H         0.94328912     0.11020014    -0.60183832    -0.00138891     0.00052458     0.00004889
H         0.79016392    -0.19242489     1.93200876    -0.00106646    -0.00034299    -0.00080114
H        -0.90583947    -0.02053859     1.95533703    -0.00091360     0.00008284     0.00085533
H        -0.95894430     0.13177871    -0.64430780     0.00050057     0.00014097    -0.00092117
     6
  Step:    34            Position(A)                                  Velocity(au)
C        -0.04358195    -0.00254344    -0.02820017     0.00006525    -0.00008131    -0.00019041
N        -0.03934037    -0.04826328     1.33787726     0.00014228     0.00004215     0.00022752
H         0.93552472     0.11309792    -0.60148996    -0.00141726     0.00052721     0.00007343
H         0.78438239    -0.19436381     1.92757645    -0.00101483    -0.00036330    -0.00079438
H        -0.91061380    -0.02006794     1.95975585    -0.00080900     0.00008763     0.00074102
H        -0.95622004     0.13253130    -0.64936960     0.00048644     0.00013154    -0.00091267
     6
  Step:    35            Position(A)                                  Velocity(au)
C        -0.04321417    -0.00299264    -0.02921756     0.00006744    -0.00008174    -0.00017791
N        -0.03859129    -0.04802520     1.33911812     0.00012790     0.00004449     0.00022169
H         0.92765460     0.11601602    -0.60102830    -0.00142824     0.00053257     0.00008977
H         0.77896881    -0.19643265     1.92324559    -0.00093428    -0.00039055    -0.00076538
H        -0.91476397    -0.01957185     1.96351160    -0.00068969     0.00009221     0.00061686
H        -0.95357818     0.13322984    -0.65437597     0.00047118     0.00012145    -0.00090189
     6
  Step:    36            Position(A)                                  Velocity(au)
C        -0.04283833    -0.00344474    -0.03016187     0.00006824    -0.00008246    -0.00016413
N        -0.03793006    -0.04777270     1.34032168     0.00011072     0.00004743     0.00021424
H         0.91977645     0.11897026    -0.60050010    -0.00142162     0.00054109     0.00009745
H         0.77408071    -0.19867012     1.91913706    -0.00082613    -0.00042495    -0.00071531
H        -0.91821853    -0.01905116     1.96655756    -0.00055904     0.00009674     0.00048544
H        -0.95102464     0.13387050    -0.65931414     0.00045499     0.00011065    -0.00088898
     6
  Step:    37            Position(A)                                  Velocity(au)
C        -0.04246220    -0.00390138    -0.03102619     0.00006764    -0.00008352    -0.00014914
N        -0.03737113    -0.04750255     1.34147901     0.00009112     0.00005095     0.00020524
H         0.91198860     0.12197869    -0.59995443    -0.00139740     0.00055316     0.00009611
H         0.76986502    -0.20111554     1.91536300    -0.00069274    -0.00046656    -0.00064609
H        -0.92092444    -0.01850580     1.96886107    -0.00042018     0.00010138     0.00034914
H        -0.94856426     0.13444918    -0.66417238     0.00043805     0.00009907    -0.00087414
     6
  Step:    38            Position(A)                                  Velocity(au)
C        -0.04209348    -0.00436439    -0.03180411     0.00006567    -0.00008492    -0.00013301
N        -0.03692666    -0.04721160     1.34258176     0.00006952     0.00005505     0.00019482
H         0.90438860     0.12506151    -0.59944181    -0.00135577     0.00056916     0.00008555
H         0.76645246    -0.20380780     1.91202249    -0.00053739    -0.00051521    -0.00056035
H        -0.92284551    -0.01793483     1.97040223    -0.00027597     0.00010628     0.00021009
H        -0.94620094     0.13496148    -0.66893996     0.00042050     0.00008666    -0.00085750
     6
  Step:    39            Position(A)                                  Velocity(au)
C        -0.04173967    -0.00483576    -0.03248968     0.00006236    -0.00008672    -0.00011583
N        -0.03660623    -0.04689685     1.34362248     0.00004640     0.00005968     0.00018313
H         0.89707179     0.12824088    -0.59901318    -0.00129714     0.00058943     0.00006576
H         0.76395237    -0.20678416     1.90919773    -0.00036429    -0.00057050    -0.00046140
H        -0.92396085    -0.01733643     1.97117255    -0.00012900     0.00011161     0.00007019
H        -0.94393776     0.13540266    -0.67360701     0.00040245     0.00007333    -0.00083917
     6
  Step:    40            Position(A)                                  Velocity(au)
C        -0.04140796    -0.00531759    -0.03307735     0.00005778    -0.00008891    -0.00009765
N        -0.03641658    -0.04655554     1.34459481     0.00002229     0.00006480     0.00017039
H         0.89013017     0.13154064    -0.59871898    -0.00122212     0.00061422     0.00003689
H         0.76244805    -0.21007891     1.90695065    -0.00017844    -0.00063178    -0.00035309
H        -0.92426354    -0.01670795     1.97117380     0.00001831     0.00011752    -0.00006877
H        -0.94177717     0.13576755    -0.67816428     0.00038398     0.00005899    -0.00081918
     6
  Step:    41            Position(A)                                  Velocity(au)
C        -0.04110515    -0.00581210    -0.03356206     0.00005201    -0.00009151    -0.00007856
N        -0.03636145    -0.04618529     1.34549363    -0.00000226     0.00007032     0.00015681
H         0.88365117     0.13498584    -0.59860805    -0.00113160     0.00064369    -0.00000066
H         0.76199284    -0.21372202     1.90532030     0.00001452    -0.00069814    -0.00023968
H        -0.92375980    -0.01604590     1.97041730     0.00016361     0.00012415    -0.00020512
H        -0.93972116     0.13605048    -0.68260276     0.00036514     0.00004355    -0.00079751
     6
  Step:    42            Position(A)                                  Velocity(au)
C        -0.04083742    -0.00632151    -0.03393919     0.00004516    -0.00009451    -0.00005863
N        -0.03644137    -0.04578413     1.34631511    -0.00002665     0.00007615     0.00014261
H         0.87771601     0.13860222    -0.59872617    -0.00102676     0.00067788    -0.00004621
H         0.76260739    -0.21773787     1.90432119     0.00020852    -0.00076844    -0.00012569
H        -0.92246864    -0.01534602     1.96892355     0.00030454     0.00013162    -0.00033713
H        -0.93777144     0.13624528    -0.68691331     0.00034595     0.00002689    -0.00077404
     6
  Step:    43            Position(A)                                  Velocity(au)
C        -0.04061023    -0.00684798    -0.03420470     0.00003737    -0.00009790    -0.00003799
N        -0.03665354    -0.04535067     1.34705667    -0.00005026     0.00008219     0.00012800
H         0.87239785     0.14241537    -0.59911454    -0.00090919     0.00071666    -0.00009881
H         0.76427826    -0.22214406     1.90394275     0.00039729    -0.00084129    -0.00001565
H        -0.92042206    -0.01460329     1.96672240     0.00043859     0.00014008    -0.00046298
H        -0.93592955     0.13634521    -0.69108624     0.00032642     0.00000892    -0.00074861
     6
  Step:    44            Position(A)                                  Velocity(au)
C        -0.04042816    -0.00739352    -0.03435522     0.00002884    -0.00010162    -0.00001677
N        -0.03699176    -0.04488413     1.34771682    -0.00007246     0.00008830     0.00011317
H         0.86775992     0.14644996    -0.59980816    -0.00078084     0.00075973    -0.00015715
H         0.76695786    -0.22695036     1.90414982     0.00057460    -0.00091514     0.00008604
H        -0.91766590    -0.01381202     1.96385370     0.00056305     0.00014964    -0.00058069
H        -0.93419693     0.13634299    -0.69511099     0.00030656    -0.00001045    -0.00072101
     6