|===============================================================================
|
|  DFTB+ release 20.1
|
|  Copyright (C) 2006 - 2020  DFTB+ developers group
|
|===============================================================================
|
|  When publishing results obtained with DFTB+, please cite the following
|  reference:
|
|  * DFTB+, a software package for efficient approximate density functional
|    theory based atomistic simulations, J. Chem. Phys. 152, 124101 (2020).
|    [doi: 10.1063/1.5143190]
|
|  You should also cite additional publications crediting the parametrization
|  data you use. Please consult the documentation of the SK-files for the
|  references.
|
|===============================================================================

Reading input file 'dftb_in.hsd'
Parser version: 8

--------------------------------------------------------------------------------
Reading SK-files:
Done.


Processed input in HSD format written to 'dftb_pin.hsd'

Starting initialization...
--------------------------------------------------------------------------------
OpenMP threads:              1
Chosen random seed:          498643629
Mode:                        Static calculation
Self consistent charges:     Yes
SCC-tolerance:                 0.100000E-05
Max. scc iterations:                   1000
Shell resolved Hubbard:      No
Spin polarisation:           No
Nr. of up electrons:            16.000000
Nr. of down electrons:          16.000000
Periodic boundaries:         No
Electronic solver:           Relatively robust
Maximal SCC-cycles:                    1000
Initial charges:             Set automatically (system chrg:   0.100E+01)
Included shells:             C:  s, p
                             H:  s
                             N:  s, p
Spin coupling constants:     C   1(s)-1(s):  -0.455900E-01
                             C   1(s)-2(p):  -0.293000E-01
                             C   2(p)-1(s):  -0.293000E-01
                             C   2(p)-2(p):  -0.275500E-01
                             H   1(s)-1(s):  -0.792500E-01
                             N   1(s)-1(s):  -0.468700E-01
                             N   1(s)-2(p):  -0.317000E-01
                             N   2(p)-1(s):  -0.317000E-01
                             N   2(p)-2(p):  -0.307200E-01
Range separated hybrid:      Yes
  Screening parameter omega:   0.300000E+00
  Range separated algorithm:   MatrixBased
Extra options:
                             Mulliken analysis
                             Force calculation
Force type                   original
                             Eigenvector printing


REKS Calcuation:             Yes
SSR(2,2) Calcuation:         Yes
Energy Functional:           (PPS+OSS)/2
Number of Core Orbitals:                 15
Number of Active Orbitals:                2
Number of Basis:                         32
Number of States:                         2
State-Averaging Weight:          0.500000
                                 0.500000
State of Interest:                        1
Initial Guess:               Diagonalize H0 matrix
Newton-Raphson for FON opt:  Yes
NR max. Iterations:                      50
Level Shifting:              Yes
Shift Value:                     0.300000
W Scale Factor:              C  =    3.200000
                             H  =    3.200000
                             N  =    3.200000
Transition Dipole:           No
Gradient of Microstate:      No
CP-REKS Solver:              Preconditioned Conjugate-Gradient
CG max. Iterations:                     100
CG Tolerance:                  0.100000E-07
Memory for A and Hxc:        Direct Updating Without Saving
Non-Adiabatic Coupling:      Yes

--------------------------------------------------------------------------------

***  Geometry step: 0

  iSCC       reks energy        Diff energy         x_a       SCC error   
    1      -16.3744526164       0.0000000000     0.999436    1.19779214
    2      -16.3895336207      -0.0150810043     0.999895    0.05767641
    3      -16.3927042296      -0.0031706089     0.999954    0.01644079
    4      -16.3940279061      -0.0013236765     0.999974    0.01358816
    5      -16.3947007953      -0.0006728893     0.999983    0.01083188
    6      -16.3950742250      -0.0003734297     0.999987    0.00844365
    7      -16.3952924916      -0.0002182666     0.999990    0.00652698
    8      -16.3954250978      -0.0001326062     0.999992    0.00504057
    9      -16.3955084042      -0.0000833064     0.999993    0.00390717
   10      -16.3955623519      -0.0000539477     0.999993    0.00304898
   11      -16.3955982549      -0.0000359030     0.999994    0.00239961
   12      -16.3956227288      -0.0000244739     0.999994    0.00190647
   13      -16.3956397577      -0.0000170290     0.999995    0.00156414
   14      -16.3956518122      -0.0000120544     0.999995    0.00132138
   15      -16.3956604677      -0.0000086555     0.999995    0.00112076
   16      -16.3956667559      -0.0000062882     0.999995    0.00095391
   17      -16.3956713686      -0.0000046127     0.999995    0.00081436
   18      -16.3956747795      -0.0000034109     0.999995    0.00069702
   19      -16.3956773186      -0.0000025392     0.999996    0.00059792
   20      -16.3956792198      -0.0000019011     0.999996    0.00051391
   21      -16.3956806503      -0.0000014305     0.999996    0.00044244
   22      -16.3956817314      -0.0000010812     0.999996    0.00038148
   23      -16.3956825518      -0.0000008204     0.999996    0.00032936
   24      -16.3956831766      -0.0000006248     0.999996    0.00028470
   25      -16.3956836541      -0.0000004775     0.999996    0.00024637
   26      -16.3956840202      -0.0000003661     0.999996    0.00021342
   27      -16.3956843019      -0.0000002816     0.999996    0.00018505
   28      -16.3956845192      -0.0000002173     0.999996    0.00016060
   29      -16.3956846874      -0.0000001682     0.999996    0.00013951
   30      -16.3956848180      -0.0000001306     0.999996    0.00012129
   31      -16.3956849197      -0.0000001017     0.999996    0.00010554
   32      -16.3956849992      -0.0000000794     0.999996    0.00009191
   33      -16.3956850614      -0.0000000623     0.999996    0.00008011
   34      -16.3956851103      -0.0000000489     0.999996    0.00006987
   35      -16.3956851489      -0.0000000386     0.999996    0.00006100
   36      -16.3956851794      -0.0000000305     0.999996    0.00005329
   37      -16.3956852036      -0.0000000242     0.999996    0.00004660
   38      -16.3956852229      -0.0000000192     0.999996    0.00004077
   39      -16.3956852382      -0.0000000154     0.999996    0.00003571
   40      -16.3956852505      -0.0000000123     0.999996    0.00003130
   41      -16.3956852604      -0.0000000099     0.999996    0.00002745
   42      -16.3956852683      -0.0000000079     0.999996    0.00002410
   43      -16.3956852747      -0.0000000064     0.999996    0.00002117
   44      -16.3956852799      -0.0000000052     0.999996    0.00001862
   45      -16.3956852841      -0.0000000042     0.999996    0.00001638
   46      -16.3956852875      -0.0000000034     0.999996    0.00001443
   47      -16.3956852903      -0.0000000028     0.999996    0.00001272
   48      -16.3956852926      -0.0000000023     0.999996    0.00001122
   49      -16.3956852944      -0.0000000019     0.999996    0.00000991
   50      -16.3956852959      -0.0000000015     0.999996    0.00000875
   51      -16.3956852972      -0.0000000013     0.999996    0.00000774
   52      -16.3956852982      -0.0000000010     0.999996    0.00000685
   53      -16.3956852991      -0.0000000008     0.999996    0.00000607
   54      -16.3956852998      -0.0000000007     0.999996    0.00000538
   55      -16.3956853003      -0.0000000006     0.999996    0.00000477
   56      -16.3956853008      -0.0000000005     0.999996    0.00000424
   57      -16.3956853012      -0.0000000004     0.999996    0.00000377
   58      -16.3956853016      -0.0000000003     0.999996    0.00000335
   59      -16.3956853018      -0.0000000003     0.999996    0.00000298
   60      -16.3956853021      -0.0000000002     0.999996    0.00000266
   61      -16.3956853022      -0.0000000002     0.999996    0.00000237
   62      -16.3956853024      -0.0000000002     0.999996    0.00000214
   63      -16.3956853025      -0.0000000001     0.999996    0.00000196
   64      -16.3956853026      -0.0000000001     0.999996    0.00000179
   65      -16.3956853027      -0.0000000001     0.999996    0.00000164
   66      -16.3956853028      -0.0000000001     0.999996    0.00000150
   67      -16.3956853029      -0.0000000001     0.999996    0.00000137
   68      -16.3956853029      -0.0000000001     0.999996    0.00000126
   69      -16.3956853030      -0.0000000000     0.999996    0.00000115
   70      -16.3956853030      -0.0000000000     0.999996    0.00000106
   71      -16.3956853030      -0.0000000000     0.999996    0.00000097
  
--------------------------------------------------
 Final SA-REKS(2,2) energy:     -16.39568530
  
 State     Energy      FON(1)    FON(2)   Spin
  PPS  -16.46568809   1.999992  0.000008  0.00
  OSS  -16.32568252   1.000000  1.000000  0.00
 Trip  -16.36432392   1.000000  1.000000  1.00
--------------------------------------------------

 Lagrangian Wab:  -0.00257430 -0.00257379

--------------------------------------------------
 SSR: 2SI-2SA-REKS(2,2) Hamiltonian matrix
               PPS           OSS
   PPS   -16.46568809   -0.00363341
   OSS    -0.00363341  -16.32568252
--------------------------------------------------

----------------------------------------------------------------
 SSR: 2SI-2SA-REKS(2,2) states
                    E_n       C_{PPS}    C_{OSS}
 SSR state  1  -16.46578232  -0.999664  -0.025926
 SSR state  2  -16.32558829   0.025926  -0.999664
----------------------------------------------------------------

 unrelaxed SSR FONs for S0:  1.999320  0.000680

Total Energy:                      -16.4657823157 H         -448.0567 eV
Extrapolated to 0:                 -16.4657823157 H         -448.0567 eV

----------------------------------------------------------------------------------
 Solving CP-REKS equation for  1 state vector...
----------------------------------------------------------------------------------
  CG solver: Constructing Y initial guess
  CG solver: Iteration    1    eps =    0.000163598402
  CG solver: Iteration    2    eps =    0.000070546890
  CG solver: Iteration    3    eps =    0.000015140638
  CG solver: Iteration    4    eps =    0.000000732381
  CG solver: Iteration    5    eps =    0.000000490847
  CG solver: Iteration    6    eps =    0.000000467550
  CG solver: Iteration    7    eps =    0.000000020065
  CG solver: Iteration    8    eps =    0.000000003354
  Convergence reached in CG solver after    8 iterations
  CG solver: Calculating converged R, Z, Q2 matrix
----------------------------------------------------------------------------------

----------------------------------------------------------------------------------
 Solving CP-REKS equation for SI between  1 and  2 state vectors...
----------------------------------------------------------------------------------
  CG solver: Constructing Y initial guess
  CG solver: Iteration    1    eps =    0.052993434813
  CG solver: Iteration    2    eps =    0.001985032520
  CG solver: Iteration    3    eps =    0.000735898638
  CG solver: Iteration    4    eps =    0.000511962826
  CG solver: Iteration    5    eps =    0.000054506089
  CG solver: Iteration    6    eps =    0.000038573127
  CG solver: Iteration    7    eps =    0.000008410417
  CG solver: Iteration    8    eps =    0.000000796244
  CG solver: Iteration    9    eps =    0.000000252695
  CG solver: Iteration   10    eps =    0.000000016409
  CG solver: Iteration   11    eps =    0.000000002444
  Convergence reached in CG solver after   11 iterations
  CG solver: Calculating converged R, Z, Q2 matrix
----------------------------------------------------------------------------------

--------------------------------------------------
 Gradient Information
--------------------------------------------------
           1 st state (SSR)
    -0.05340726     0.05940952     0.01121575
     0.04303861     0.00871378    -0.03896975
     0.01043066    -0.03340845     0.00353915
     0.00839697     0.01389411     0.00729351
     0.02182273    -0.03132045    -0.00683028
     0.00991549    -0.08728247     0.07986422
     0.03260376    -0.02478058    -0.00698512
    -0.00748792     0.04398042    -0.03832271
    -0.00232362     0.03645841    -0.01246945
    -0.02159526     0.08741938     0.01576272
     0.02053596    -0.02250679     0.00434534
    -0.03069940    -0.04993851    -0.00850021
    -0.00803232    -0.00825348    -0.00608981
    -0.02319840     0.00761509    -0.00385336

           2 st state (SSR)
    -0.02114489     0.05457411    -0.00142955
     0.01481149     0.00977152    -0.02917386
     0.01371547    -0.03323581     0.00523116
     0.00628929     0.01338099     0.00233202
     0.02197630    -0.02907231    -0.00383747
     0.03163408    -0.07817726     0.09565452
     0.00683386    -0.01700892    -0.00603303
    -0.00657610     0.04538134    -0.03861284
    -0.00121635     0.03666995    -0.01592006
     0.06141861     0.02657830     0.01984070
     0.02079517    -0.01964604     0.00802927
    -0.11750702    -0.00552649    -0.02985093
    -0.00537010    -0.00567633    -0.00108188
    -0.02565980     0.00198694    -0.00514804
--------------------------------------------------
 Coupling Information
--------------------------------------------------
 between  1 and  2 states
--------------------------------------------------
 g vector - difference gradient
    -0.01524076     0.00234123     0.00574451
     0.01348087    -0.00023885    -0.00454795
    -0.00154269    -0.00004474    -0.00078267
     0.00101470     0.00024828     0.00237604
    -0.00000859    -0.00104479    -0.00123329
    -0.01390994    -0.00571708    -0.00834870
     0.01544672    -0.00276570     0.00039110
    -0.00032270    -0.00068250     0.00001562
    -0.00037811    -0.00013032     0.00128623
    -0.04066982     0.02958152    -0.00169595
    -0.00011928    -0.00136957    -0.00180654
     0.04230966    -0.02163897     0.01036996
    -0.00124171    -0.00122984    -0.00245486
     0.00118167     0.00269133     0.00068649

 h vector - derivative coupling
    -0.01757368     0.00153603     0.01130264
     0.01255580    -0.00560132    -0.00687027
    -0.00196362    -0.00080335    -0.00124217
     0.00078153     0.00016616     0.00208160
    -0.00131579    -0.00155657    -0.00510805
     0.05849338     0.02231715     0.00853349
    -0.04902187    -0.02168172    -0.01671903
    -0.00257827    -0.00036422     0.00249764
    -0.00339613     0.00047027     0.00850411
    -0.01720459     0.01695379    -0.00666210
    -0.00020227    -0.00120848    -0.00073023
     0.02220602    -0.01150068     0.00616077
    -0.00175696    -0.00116494    -0.00101097
     0.00097647     0.00243788    -0.00073742

 G vector - GDV
    -0.01613118     0.00241770     0.00632265
     0.01411356    -0.00052887    -0.00489795
    -0.00164240    -0.00008632    -0.00084600
     0.00105384     0.00025656     0.00248075
    -0.00007678    -0.00112407    -0.00149640
    -0.01085930    -0.00455260    -0.00789515
     0.01288495    -0.00388583    -0.00047605
    -0.00045591    -0.00070046     0.00014506
    -0.00055364    -0.00010577     0.00172531
    -0.04150694     0.03042054    -0.00203899
    -0.00012961    -0.00143037    -0.00184196
     0.04340381    -0.02220601     0.01067536
    -0.00133111    -0.00128857    -0.00250396
     0.00123070     0.00281407     0.00064734

 H vector - DCV - non-adiabatic coupling
    -0.11954908     0.01007613     0.07838908
     0.08445545    -0.03981201    -0.04725804
    -0.01341726    -0.00570603    -0.00855909
     0.00519197     0.00109185     0.01394957
    -0.00936967    -0.01070177    -0.03593060
     0.42181369     0.16108741     0.06387412
    -0.35491269    -0.15342461    -0.11924064
    -0.01824672    -0.00234215     0.01778588
    -0.02405213     0.00339807     0.06010244
    -0.10751799     0.10983111    -0.04682967
    -0.00139678    -0.00810211    -0.00453380
     0.14253876    -0.07392314     0.04005141
    -0.01205638    -0.00784359    -0.00629392
     0.00651884     0.01637085    -0.00550675
--------------------------------------------------


--------------------------------------------------------------------------------
DFTB+ running times                          cpu [s]             wall clock [s]
--------------------------------------------------------------------------------
SCC                                    +     0.09  ( 25.6%)      0.09  ( 25.4%)
      Dense to sparse                        0.02  (  4.8%)      0.02  (  4.3%)
      Range separated Hamiltonian            0.01  (  2.3%)      0.01  (  3.0%)
  Density matrix creation                    0.01  (  2.7%)      0.01  (  3.2%)
Post-SCC processing                    +     0.27  ( 73.9%)      0.27  ( 71.9%)
  Force calculation                          0.26  ( 73.8%)      0.26  ( 71.6%)
--------------------------------------------------------------------------------
Missing                                +     0.00  (  0.5%)      0.01  (  2.7%)
Total                                  =     0.36  (100.0%)      0.37  (100.0%)
--------------------------------------------------------------------------------
