|===============================================================================
|
|  DFTB+ release 20.1
|
|  Copyright (C) 2006 - 2020  DFTB+ developers group
|
|===============================================================================
|
|  When publishing results obtained with DFTB+, please cite the following
|  reference:
|
|  * DFTB+, a software package for efficient approximate density functional
|    theory based atomistic simulations, J. Chem. Phys. 152, 124101 (2020).
|    [doi: 10.1063/1.5143190]
|
|  You should also cite additional publications crediting the parametrization
|  data you use. Please consult the documentation of the SK-files for the
|  references.
|
|===============================================================================

Reading input file 'dftb_in.hsd'
Parser version: 8

--------------------------------------------------------------------------------
Reading SK-files:
Done.


Processed input in HSD format written to 'dftb_pin.hsd'

Starting initialization...
--------------------------------------------------------------------------------
WARNING!
-> Excited state forces are not implemented yet for fractional occupations, kT=  0.3158E-02K
OpenMP threads:              1
Chosen random seed:          433656566
Mode:                        Static calculation
Self consistent charges:     Yes
SCC-tolerance:                 0.100000E-05
Max. scc iterations:                    100
Shell resolved Hubbard:      No
Spin polarisation:           No
Nr. of up electrons:             6.000000
Nr. of down electrons:           6.000000
Periodic boundaries:         No
Electronic solver:           Relatively robust
Mixer:                       Broyden mixer
Mixing parameter:                  0.200000
Maximal SCC-cycles:                     100
Nr. of chrg. vec. in memory:              0
Electronic temperature:        0.100000E-07 H      0.272114E-06 eV
Initial charges:             Set automatically (system chrg:   0.100E+01)
Included shells:             C:  s, p
                             N:  s, p
                             H:  s
Extra options:
                             Mulliken analysis
                             Force calculation
Force type                   original
                             Eigenvector printing

--------------------------------------------------------------------------------

***  Geometry step: 0

 iSCC Total electronic   Diff electronic      SCC error    
    1   -0.53109558E+01    0.00000000E+00    0.92787823E+00
    2   -0.53258403E+01   -0.14884570E-01    0.57673492E+00
    3   -0.53321034E+01   -0.62630763E-02    0.18448675E+00
    4   -0.53232928E+01    0.88105515E-02    0.37194210E+00
    5   -0.53332730E+01   -0.99801099E-02    0.78524537E-02
    6   -0.53332738E+01   -0.85533688E-06    0.18937831E-02
    7   -0.53332738E+01   -0.21041642E-07    0.14595693E-02
    8   -0.53332740E+01   -0.17189087E-06    0.55189801E-04
    9   -0.53332740E+01   -0.14651214E-09    0.36732204E-04
   10   -0.53332740E+01   -0.10936407E-09    0.28413440E-06
>> Charges saved for restart in charges.bin

Total Energy:                       -5.0230559337 H         -136.6843 eV
Extrapolated to 0:                  -5.1712683771 H         -140.7174 eV
Total Mermin free energy:           -5.0230559337 H         -136.6843 eV
Force related energy:               -5.1712683771 H         -140.7174 eV

--------------------------------------------------------------------------------
DFTB+ running times                          cpu [s]             wall clock [s]
--------------------------------------------------------------------------------
SCC                                    +     0.01  ( 55.3%)      0.06  ( 74.4%)
Post-SCC processing                    +     0.01  ( 37.0%)      0.02  ( 19.8%)
--------------------------------------------------------------------------------
Missing                                +     0.00  (  7.7%)      0.00  (  5.8%)
Total                                  =     0.02  (100.0%)      0.09  (100.0%)
--------------------------------------------------------------------------------
