     6
  Step:     0            Position(A)                                  Velocity(au)
C        -0.03274617     0.02457513     0.00157652    -0.00010647    -0.00004917     0.00021863
N        -0.05025812    -0.06266879     1.30846550     0.00002766    -0.00013829    -0.00008750
H         0.92692137    -0.02092510    -0.56906619     0.00101067     0.00025630    -0.00071534
H         0.85585221    -0.11882738     1.92825098    -0.00052114     0.00098727    -0.00071551
H        -0.88323117     0.00708659     1.79620021    -0.00003070     0.00070072     0.00007146
H        -1.02387021     0.04091694    -0.46502657     0.00042555     0.00056334    -0.00002990
     6
  Step:     1            Position(A)                                  Velocity(au)
C        -0.03330511     0.02431436     0.00270991    -0.00009718    -0.00004615     0.00019481
N        -0.05000993    -0.06344177     1.30805325     0.00006236    -0.00014444    -0.00006280
H         0.93235595    -0.01951532    -0.57309190     0.00096784     0.00025952    -0.00075047
H         0.85245633    -0.11338730     1.92397885    -0.00071441     0.00100141    -0.00084185
H        -0.88422686     0.01102041     1.79719781    -0.00032768     0.00073841     0.00028945
H        -1.02170154     0.04398216    -0.46550311     0.00036568     0.00055783    -0.00014589
     6
  Step:     2            Position(A)                                  Velocity(au)
C        -0.03380911     0.02407031     0.00370745    -0.00008655    -0.00004305     0.00016905
N        -0.04957601    -0.06424875     1.30777859     0.00009503    -0.00015067    -0.00003714
H         0.93750786    -0.01808638    -0.57727504     0.00090816     0.00026321    -0.00077332
H         0.84803774    -0.10787364     1.91904264    -0.00089299     0.00101409    -0.00095679
H        -0.88681539     0.01516348     1.79936625    -0.00060752     0.00077661     0.00049603
H        -1.01987028     0.04701869    -0.46662231     0.00030316     0.00055281    -0.00026430
     6
  Step:     3            Position(A)                                  Velocity(au)
C        -0.03425189     0.02384342     0.00455912    -0.00007495    -0.00003986     0.00014155
N        -0.04897040    -0.06508984     1.30764699     0.00012461    -0.00015682    -0.00001049
H         0.94228997    -0.01663616    -0.58155094     0.00083331     0.00026714    -0.00078463
H         0.84268829    -0.10229456     1.91351295    -0.00105224     0.00102502    -0.00105692
H        -0.89087229     0.01951539     1.80262371    -0.00085952     0.00081389     0.00068439
H        -1.01838538     0.05002908    -0.46839415     0.00023998     0.00054808    -0.00038377
     6
  Step:     4            Position(A)                                  Velocity(au)
C        -0.03462907     0.02363423     0.00525604    -0.00006270    -0.00003656     0.00011253
N        -0.04821274    -0.06596438     1.30766383     0.00015010    -0.00016274     0.00001705
H         0.94662459    -0.01516374    -0.58585923     0.00074503     0.00027108    -0.00078516
H         0.83652578    -0.09665956     1.90747951    -0.00118716     0.00103393    -0.00113857
H        -0.89621890     0.02406780     1.80685379    -0.00107462     0.00084877     0.00084869
H        -1.01724486     0.05301485    -0.47082093     0.00017814     0.00054342    -0.00050277
     6
  Step:     5            Position(A)                                  Velocity(au)
C        -0.03493810     0.02344331     0.00579063    -0.00005015    -0.00003315     0.00008228
N        -0.04732773    -0.06687090     1.30783356     0.00017064    -0.00016831     0.00004522
H         0.95044348    -0.01366949    -0.59014372     0.00064512     0.00027479    -0.00077570
H         0.82969612    -0.09097929     1.90105248    -0.00129248     0.00104067    -0.00119796
H        -0.90263283     0.02880433     1.81191174    -0.00124588     0.00087981     0.00098440
H        -1.01643582     0.05597623    -0.47389641     0.00011965     0.00053859    -0.00061961
     6
  Step:     6            Position(A)                                  Velocity(au)
C        -0.03517823     0.02327127     0.00615695    -0.00003763    -0.00002962     0.00005113
N        -0.04634434    -0.06780723     1.30815895     0.00018555    -0.00017338     0.00007363
H         0.95368822    -0.01215500    -0.59435255     0.00053552     0.00027806    -0.00075708
H         0.82237398    -0.08526500     1.89436273    -0.00136307     0.00104520    -0.00123141
H        -0.90986039     0.03370109     1.81763226    -0.00136884     0.00090574     0.00108853
H        -1.01593480     0.05891206    -0.47760519     0.00006637     0.00053335    -0.00073255
     6
  Step:     7            Position(A)                                  Velocity(au)
C        -0.03535036     0.02311874     0.00635086    -0.00002542    -0.00002599     0.00001946
N        -0.04529482    -0.06877052     1.30864028     0.00019433    -0.00017787     0.00010177
H         0.95631078    -0.01062301    -0.59843852     0.00041823     0.00028070    -0.00073026
H         0.81476193    -0.07952769     1.88756077    -0.00139418     0.00104773    -0.00123567
H        -0.91763032     0.03872786     1.82383800    -0.00144159     0.00092557     0.00115969
H        -1.01570863     0.06181983    -0.48192245     0.00001999     0.00052750    -0.00083989
     6
  Step:     8            Position(A)                                  Velocity(au)
C        -0.03545694     0.02298628     0.00637033    -0.00001380    -0.00002227    -0.00001233
N        -0.04421357    -0.06975754     1.30927481     0.00019673    -0.00018173     0.00012906
H         0.95827392    -0.00907724    -0.60235960     0.00029531     0.00028257    -0.00069628
H         0.80708724    -0.07377699     1.88081406    -0.00138205     0.00104866    -0.00120821
H        -0.92566691     0.04384963     1.83034787    -0.00146456     0.00093866     0.00119803
H        -1.01571562     0.06469586    -0.48681433    -0.00001810     0.00052085    -0.00094008
     6
  Step:     9            Position(A)                                  Velocity(au)
C        -0.03550176     0.02287439     0.00621553    -0.00000298    -0.00001847    -0.00004384
N        -0.04313593    -0.07076481     1.31005656     0.00019272    -0.00018495     0.00015493
H         0.95955143    -0.00752218    -0.60607933     0.00016880     0.00028356    -0.00065625
H         0.79959560    -0.06801993     1.87430214    -0.00132425     0.00104862    -0.00114756
H        -0.93370211     0.04902852     1.83698492    -0.00144027     0.00094472     0.00120503
H        -1.01590730     0.06753555    -0.49223873    -0.00004687     0.00051332    -0.00103179
     6
  Step:    10            Position(A)                                  Velocity(au)
C        -0.03548964     0.02278344     0.00588888     0.00000687    -0.00001462    -0.00007466
N        -0.04209689    -0.07178891     1.31097638     0.00018250    -0.00018757     0.00017884
H         0.96012789    -0.00596283    -0.60956728     0.00004066     0.00028363    -0.00061134
H         0.79254277    -0.06225976     1.86821021    -0.00122016     0.00104845    -0.00105358
H        -0.94148565     0.05422572     1.84358298    -0.00137279     0.00094383     0.00118325
H        -1.01623040     0.07033375    -0.49814674    -0.00006565     0.00050486    -0.00111403
     6
  Step:    11            Position(A)                                  Velocity(au)
C        -0.03542626     0.02271367     0.00539490     0.00001562    -0.00001075    -0.00010443
N        -0.04112979    -0.07282665     1.31202247     0.00016651    -0.00018966     0.00020041
H         0.95999838    -0.00440446    -0.61279932    -0.00008727     0.00028275    -0.00056275
H         0.78618321    -0.05649505     1.86272086    -0.00107132     0.00104908    -0.00092769
H        -0.94879223     0.05940333     1.84999152    -0.00126729     0.00093633     0.00113596
H        -1.01662896     0.07308512    -0.50448443    -0.00007419     0.00049549    -0.00118612
     6
  Step:    12            Position(A)                                  Velocity(au)
C        -0.03531779     0.02266520     0.00474008     0.00002322    -0.00000687    -0.00013284
N        -0.04026513    -0.07387528     1.31318102     0.00014538    -0.00019132     0.00021937
H         0.95916787    -0.00285239    -0.61575788    -0.00021331     0.00028096    -0.00051169
H         0.78075764    -0.05071927     1.85800511    -0.00088150     0.00105145    -0.00077288
H        -0.95542659     0.06452586     1.85607920    -0.00112948     0.00092280     0.00106687
H        -1.01704649     0.07578446    -0.51119470    -0.00007258     0.00048528    -0.00124774
     6
  Step:    13            Position(A)                                  Velocity(au)
C        -0.03517069     0.02263800     0.00393259     0.00002963    -0.00000302    -0.00015963
N        -0.03952950    -0.07493258     1.31443718     0.00011990    -0.00019263     0.00023562
H         0.95765033    -0.00131178    -0.61843182    -0.00033595     0.00027827    -0.00045929
H         0.77647993    -0.04492097     1.85421328    -0.00065676     0.00105638    -0.00059371
H        -0.96122525     0.06956128     1.86173529    -0.00096519     0.00090397     0.00097977
H        -1.01742792     0.07842691    -0.51821915    -0.00006127     0.00047429    -0.00129884
     6
  Step:    14            Position(A)                                  Velocity(au)
C        -0.03499146     0.02263192     0.00298199     0.00003487     0.00000079    -0.00018457
N        -0.03894464    -0.07599687     1.31577599     0.00009100    -0.00019371     0.00024922
H         0.95546785     0.00021238    -0.62081625    -0.00045384     0.00027474    -0.00040663
H         0.77352440    -0.03908472     1.85146624    -0.00040520     0.00106445    -0.00039614
H        -0.96605677     0.07448176     1.86686997    -0.00078009     0.00088059     0.00087839
H        -1.01772126     0.08100813    -0.52549958    -0.00004092     0.00046263    -0.00133959
     6
  Step:    15            Position(A)                                  Velocity(au)
C        -0.03478649     0.02264670     0.00189897     0.00003897     0.00000455    -0.00020748
N        -0.03852683    -0.07706690     1.31718317     0.00005972    -0.00019460     0.00026038
H         0.95264983     0.00171541    -0.62291210    -0.00056573     0.00027041    -0.00035470
H         0.77201533    -0.03319267     1.84984850    -0.00013656     0.00107587    -0.00018718
H        -0.96982037     0.07926382     1.87141358    -0.00057946     0.00085344     0.00076620
H        -1.01787876     0.08352427    -0.53297904    -0.00001240     0.00045036    -0.00137026
     6
  Step:    16            Position(A)                                  Velocity(au)
C        -0.03456194     0.02268202     0.00069515     0.00004198     0.00000823    -0.00022821
N        -0.03828646    -0.07814175     1.31864583     0.00002712    -0.00019535     0.00026935
H         0.94923239     0.00319282    -0.62472572    -0.00067045     0.00026529    -0.00030443
H         0.77201922    -0.02722659     1.84940321     0.00013833     0.00109045     0.00002550
H        -0.97244348     0.08388829     1.87531500    -0.00036817     0.00082322     0.00064639
H        -1.01785790     0.08597194    -0.54060242     0.00002327     0.00043752    -0.00139116
     6
  Step:    17            Position(A)                                  Velocity(au)
C        -0.03432368     0.02273746    -0.00061706     0.00004395     0.00001183    -0.00024660
N        -0.03822786    -0.07922060     1.32015282    -0.00000571    -0.00019593     0.00027647
H         0.94525808     0.00464028    -0.62626847    -0.00076679     0.00025940    -0.00025666
H         0.77354044    -0.02117026     1.85012966     0.00040820     0.00110758     0.00023397
H        -0.97387946     0.08833998     1.87854015    -0.00015072     0.00079060     0.00052188
H        -1.01762216     0.08834800    -0.54831672     0.00006496     0.00042413    -0.00140261
     6
  Step:    18            Position(A)                                  Velocity(au)
C        -0.03407723     0.02281254    -0.00202446     0.00004494     0.00001534    -0.00026251
N        -0.03834941    -0.08030256     1.32169483    -0.00003771    -0.00019632     0.00028203
H         0.94077589     0.00605353    -0.62755631    -0.00085355     0.00025271    -0.00021222
H         0.77652099    -0.01501179     1.85198351     0.00066204     0.00112622     0.00043056
H        -0.97410569     0.09260738     1.88107051     0.00006864     0.00075619     0.00039538
H        -1.01714148     0.09064945    -0.55607092     0.00011145     0.00041019    -0.00140490
     6
  Step:    19            Position(A)                                  Velocity(au)
C        -0.03382786     0.02290670    -0.00351307     0.00004500     0.00001874    -0.00027577
N        -0.03864392    -0.08138644     1.32326423    -0.00006793    -0.00019644     0.00028630
H         0.93584161     0.00742828    -0.62860969    -0.00092941     0.00024523    -0.00017188
H         0.78084416    -0.00874559     1.85487968     0.00088982     0.00114507     0.00060833
H        -0.97312225     0.09668243     1.88290206     0.00028581     0.00072058     0.00026947
H        -1.01639261     0.09287325    -0.56381580     0.00016147     0.00039565    -0.00139829
     6
  Step:    20            Position(A)                                  Velocity(au)
C        -0.03358053     0.02301933    -0.00506814     0.00004418     0.00002200    -0.00028625
N        -0.03909910    -0.08247066     1.32485467    -0.00009548    -0.00019621     0.00028945
H         0.93051809     0.00876014    -0.62945335    -0.00099306     0.00023693    -0.00013642
H         0.78634194    -0.00237375     1.85869764     0.00108314     0.00116263     0.00076147
H        -0.97095126     0.10056043     1.88404465     0.00049674     0.00068439     0.00014668
H        -1.01535939     0.09501624    -0.57150379     0.00021369     0.00038050    -0.00138307
     6
  Step:    21            Position(A)                                  Velocity(au)
C        -0.03334000     0.02314968    -0.00667415     0.00004251     0.00002512    -0.00029382
N        -0.03969836    -0.08355321     1.32646063    -0.00011968    -0.00019556     0.00029160
H         0.92487530     0.01004469    -0.63011613    -0.00104324     0.00022781    -0.00010654
H         0.79280520     0.00409329     1.86328857     0.00123562     0.00117741     0.00088559
H        -0.96763678     0.10424017     1.88452180     0.00069739     0.00064829     0.00002950
H        -1.01403283     0.09707514    -0.57908899     0.00026681     0.00036473    -0.00135958
     6
  Step:    22            Position(A)                                  Velocity(au)
C        -0.03311080     0.02329695    -0.00831490     0.00004004     0.00002808    -0.00029837
N        -0.04042156    -0.08463169     1.32807691    -0.00013995    -0.00019444     0.00029275
H         0.91898998     0.01127751    -0.63063069    -0.00107883     0.00021789    -0.00008291
H         0.79999592     0.01063700     1.86848368     0.00134332     0.00118807     0.00097795
H        -0.96324495     0.10772426     1.88437066     0.00088372     0.00061305    -0.00007955
H        -1.01241109     0.09904656    -0.58652751     0.00031953     0.00034833    -0.00132827
     6
  Step:    23            Position(A)                                  Velocity(au)
C        -0.03289726     0.02346023    -0.00997378     0.00003595     0.00003387    -0.00035953
N        -0.04124600    -0.08570343     1.32969813    -0.00015652    -0.00019662     0.00034008
H         0.91294476     0.01245427    -0.63103306    -0.00112096     0.00023625    -0.00001475
H         0.80766065     0.01723183     1.87410340     0.00138912     0.00117429     0.00101581
H        -0.95786398     0.11101967     1.88364204     0.00107553     0.00060340    -0.00019834
H        -1.01049919     0.10092722    -0.59377800     0.00040295     0.00031479    -0.00124436
     6
  Step:    24            Position(A)                                  Velocity(au)
C        -0.03271287     0.02367179    -0.01229440     0.00003061     0.00004234    -0.00047559
N        -0.04215396    -0.08680798     1.33184108    -0.00016915    -0.00020194     0.00043215
H         0.90658253     0.01389245    -0.63079393    -0.00116813     0.00026383     0.00009483
H         0.81537151     0.02363468     1.87972730     0.00137365     0.00115540     0.00099802
H        -0.95134032     0.11440306     1.88217527     0.00126544     0.00059897    -0.00032299
H        -1.00795097     0.10253087    -0.60030085     0.00051484     0.00028351    -0.00110800
     6
  Step:    25            Position(A)                                  Velocity(au)
C        -0.03255805     0.02392940    -0.01524381     0.00002478     0.00005023    -0.00058325
N        -0.04312032    -0.08794114     1.33448677    -0.00017690    -0.00020632     0.00051856
H         0.90000071     0.01537771    -0.62998228    -0.00119419     0.00026716     0.00019080
H         0.82288210     0.03003480     1.88516247     0.00131593     0.00115370     0.00094952
H        -0.94384164     0.11765687     1.88006300     0.00142193     0.00057217    -0.00042914
H        -1.00479422     0.10406882    -0.60605571     0.00061936     0.00027544    -0.00096717
     6
  Step:    26            Position(A)                                  Velocity(au)
C        -0.03243792     0.02422918    -0.01876651     0.00001796     0.00005731    -0.00067963
N        -0.04411693    -0.08909737     1.33759527    -0.00017946    -0.00020958     0.00059658
H         0.89333111     0.01685705    -0.62867669    -0.00119472     0.00026398     0.00027136
H         0.82997380     0.03643679     1.89026370     0.00122131     0.00114892     0.00087707
H        -0.93556175     0.12075222     1.87741333     0.00154022     0.00054402    -0.00051393
H        -1.00107822     0.10558731    -0.61103308     0.00071304     0.00027255    -0.00082630
     6
  Step:    27            Position(A)                                  Velocity(au)
C        -0.03235842     0.02456637    -0.02279790     0.00001011     0.00006344    -0.00076340
N        -0.04511500    -0.09027056     1.34111777    -0.00017685    -0.00021170     0.00066490
H         0.88672153     0.01831178    -0.62696614    -0.00116768     0.00025838     0.00033474
H         0.83645684     0.04280496     1.89491100     0.00109574     0.00113655     0.00078543
H        -0.92672217     0.12370356     1.87435074     0.00161596     0.00052007    -0.00057463
H        -0.99686881     0.10709819    -0.61524000     0.00079317     0.00027088    -0.00068845
     6
  Step:    28            Position(A)                                  Velocity(au)
C        -0.03232539     0.02493554    -0.02726689     0.00000128     0.00006854    -0.00083383
N        -0.04608614    -0.09145458     1.34499880    -0.00016927    -0.00021277     0.00072267
H         0.88032919     0.01973407    -0.62494939    -0.00111232     0.00025175     0.00037958
H         0.84217471     0.04909216     1.89900933     0.00094588     0.00111581     0.00067942
H        -0.91756825     0.12654315     1.87101490     0.00164599     0.00050304    -0.00060906
H        -0.99224637     0.10860357    -0.61869888     0.00085754     0.00026943    -0.00055651
     6
  Step:    29            Position(A)                                  Velocity(au)
C        -0.03234416     0.02533092    -0.03209897    -0.00000839     0.00007260    -0.00089089
N        -0.04700319    -0.09264397     1.34917892    -0.00015709    -0.00021302     0.00076970
H         0.87431393     0.02111994    -0.62273211    -0.00102920     0.00024470     0.00040522
H         0.84700779     0.05525149     1.90248973     0.00077871     0.00108750     0.00056391
H        -0.90836172     0.12931476     1.86755694     0.00162897     0.00049475    -0.00061598
H        -0.98730319     0.11010354    -0.62144774     0.00090464     0.00026810    -0.00043327
     6
  Step:    30            Position(A)                                  Velocity(au)
C        -0.03241918     0.02574665    -0.03722006    -0.00001875     0.00007565    -0.00093531
N        -0.04784122    -0.09383445     1.35359799    -0.00014082    -0.00021273     0.00080642
H         0.86883077     0.02246794    -0.62042224    -0.00091999     0.00023771     0.00041187
H         0.85087458     0.06124186     1.90530944     0.00060101     0.00105319     0.00044350
H        -0.89936914     0.13207058     1.86413306     0.00156565     0.00049661    -0.00059539
H        -0.98213964     0.11159885    -0.62353940     0.00093367     0.00026719    -0.00032113
     6
  Step:    31            Position(A)                                  Velocity(au)
C        -0.03255384     0.02617710    -0.04256053    -0.00002959     0.00007778    -0.00096842
N        -0.04857831    -0.09502340     1.35819886    -0.00012106    -0.00021226     0.00083385
H         0.86402371     0.02377880    -0.61812530    -0.00078718     0.00023118     0.00040051
H         0.85373019     0.06703160     1.90745032     0.00041889     0.00101488     0.00032223
H        -0.89084973     0.13486943     1.86089742     0.00145865     0.00050965    -0.00054842
H        -0.97685997     0.11309210    -0.62503963     0.00094451     0.00026712    -0.00022202
     6
  Step:    32            Position(A)                                  Velocity(au)
C        -0.03275032     0.02661715    -0.04805861    -0.00004071     0.00007909    -0.00099191
N        -0.04919609    -0.09621007     1.36293040    -0.00009844    -0.00021195     0.00085331
H         0.86002069     0.02505530    -0.61593972    -0.00063379     0.00022545     0.00037279
H         0.85556275     0.07260033     1.90891584     0.00023745     0.00097454     0.00020341
H        -0.88304403     0.13777459     1.85799515     0.00131209     0.00053447    -0.00047723
H        -0.97156875     0.11458840    -0.62602422     0.00093739     0.00026833    -0.00013722
     6
  Step:    33            Position(A)                                  Velocity(au)
C        -0.03300948     0.02706233    -0.05366212    -0.00005188     0.00007970    -0.00100745
N        -0.04968009    -0.09739552     1.36774922    -0.00007363    -0.00021206     0.00086618
H         0.85693030     0.02630205    -0.61395300    -0.00046304     0.00022078     0.00033077
H         0.85638775     0.07793880     1.90972686     0.00006077     0.00093390     0.00008954
H        -0.87616467     0.14085128     1.85555623     0.00113111     0.00057111    -0.00038472
H        -0.96636863     0.11609529    -0.62657546     0.00091256     0.00027124    -0.00006750
     6
  Step:    34            Position(A)                                  Velocity(au)
C        -0.03333067     0.02750877    -0.05932844    -0.00006282     0.00007970    -0.00101644
N        -0.05001974    -0.09858222     1.37261990    -0.00004727    -0.00021274     0.00087362
H         0.85484088     0.02752505    -0.61223962    -0.00027828     0.00021732     0.00027674
H         0.85624251     0.08304738     1.90991753    -0.00010788     0.00089424    -0.00001743
H        -0.87039090     0.14416334     1.85369151     0.00092156     0.00061894    -0.00027439
H        -0.96136035     0.11762257    -0.62677932     0.00087011     0.00027613    -0.00001319
     6
  Step:    35            Position(A)                                  Velocity(au)
C        -0.03371162     0.02795311    -0.06502288    -0.00007321     0.00007912    -0.00101984
N        -0.05020845    -0.09977333     1.37751374    -0.00002006    -0.00021402     0.00087648
H         0.85381996     0.02873108    -0.61085987    -0.00008311     0.00021511     0.00021320
H         0.85518191     0.08793374     1.90953201    -0.00026566     0.00085642    -0.00011597
H        -0.86586430     0.14776925     1.85248941     0.00069009     0.00067655    -0.00015031
H        -0.95664341     0.11918161    -0.62672292     0.00080990     0.00028317     0.00002567
     6
  Step:    36            Position(A)                                  Velocity(au)
C        -0.03414817     0.02839227    -0.07071625    -0.00008268     0.00007800    -0.00101823
N        -0.05024377    -0.10097202     1.38240690     0.00000725    -0.00021579     0.00087526
H         0.85391284     0.02992704    -0.60985900     0.00011835     0.00021408     0.00014282
H         0.85327606     0.09261040     1.90862255    -0.00040982     0.00082099    -0.00020465
H        -0.86268515     0.15171788     1.85201315     0.00044420     0.00074174    -0.00001712
H        -0.95231674     0.12078456    -0.62649264     0.00073182     0.00029239     0.00004930
     6
  Step:    37            Position(A)                                  Velocity(au)
C        -0.03463406     0.02882333    -0.07638275    -0.00009083     0.00007633    -0.00101191
N        -0.05012760    -0.10218077     1.38727858     0.00003383    -0.00021785     0.00087026
H         0.85514035     0.03111945    -0.60926650     0.00032139     0.00021410     0.00006848
H         0.85060977     0.09709309     1.90724877    -0.00053754     0.00078834    -0.00028208
H        -0.86090856     0.15604444     1.85229843     0.00019235     0.00081163     0.00012003
H        -0.94847884     0.12244365    -0.62617295     0.00063597     0.00030369     0.00005809
     6
  Step:    38            Position(A)                                  Velocity(au)
C        -0.03516082     0.02924335    -0.08199831    -0.00009724     0.00007412    -0.00100106
N        -0.04986657    -0.10340093     1.39210966     0.00005881    -0.00021997     0.00086166
H         0.85749613     0.03231407    -0.60909551     0.00052076     0.00021499    -0.00000683
H         0.84728289     0.10139985     1.90547759    -0.00064593     0.00075887    -0.00034684
H        -0.86054059     0.16076695     1.85335140    -0.00005630     0.00088282     0.00025567
H        -0.94522610     0.12417051    -0.62584498     0.00052304     0.00031689     0.00005278
     6
  Step:    39            Position(A)                                  Velocity(au)
C        -0.03571788     0.02964946    -0.08753994    -0.00010158     0.00007138    -0.00098587
N        -0.04947217    -0.10463245     1.39688206     0.00008128    -0.00022189     0.00084962
H         0.86094444     0.03351564    -0.60934261     0.00071093     0.00021658    -0.00008011
H         0.84341071     0.10555092     1.90338315    -0.00073213     0.00073300    -0.00039759
H        -0.86153601     0.16588380     1.85514791    -0.00029237     0.00095165     0.00038432
H        -0.94264939     0.12597554    -0.62558469     0.00039450     0.00033171     0.00003448
     6
  Step:    40            Position(A)                                  Velocity(au)
C        -0.03629292     0.03003883    -0.09298570    -0.00010356     0.00006812    -0.00096659
N        -0.04896069    -0.10587385     1.40157851     0.00010042    -0.00022335     0.00083432
H         0.86541937     0.03472778    -0.60998832     0.00088644     0.00021863    -0.00014855
H         0.83912338     0.10956901     1.90104646    -0.00079359     0.00071126    -0.00043319
H        -0.86379897     0.17137294     1.85763463    -0.00050697     0.00101445     0.00050094
H        -0.94082947     0.12786742    -0.62546066     0.00025271     0.00034781     0.00000474
     6
  Step:    41            Position(A)                                  Velocity(au)
C        -0.03687233     0.03040878    -0.09831503    -0.00010303     0.00006438    -0.00094361
N        -0.04835274    -0.10712230     1.40618265     0.00011551    -0.00022416     0.00081602
H         0.87082609     0.03595280    -0.61099856     0.00104234     0.00022100    -0.00020966
H         0.83456414     0.11347965     1.89855410    -0.00082832     0.00069416    -0.00045283
H        -0.86718746     0.17719245     1.86073219    -0.00069236     0.00106797     0.00060127
H        -0.93983226     0.12985273    -0.62553184     0.00010088     0.00036474    -0.00003450
     6
  Step:    42            Position(A)                                  Velocity(au)
C        -0.03744200     0.03075688    -0.10350946    -0.00009997     0.00006024    -0.00091742
N        -0.04767240    -0.10837389     1.41067939     0.00012605    -0.00022418     0.00079506
H         0.87704425     0.03719248    -0.61232659     0.00117452     0.00022350    -0.00026146
H         0.82988537     0.11731074     1.89599621    -0.00083515     0.00068228    -0.00045615
H        -0.87152069     0.18328373     1.86434046    -0.00084258     0.00110953     0.00068216
H        -0.93970437     0.13193522    -0.62584538    -0.00005708     0.00038209    -0.00008091
     6
  Step:    43            Position(A)                                  Velocity(au)
C        -0.03798801     0.03108107    -0.10855314    -0.00009451     0.00005577    -0.00088865
N        -0.04694609    -0.10962405     1.41505522     0.00013174    -0.00022333     0.00077182
H         0.88393327     0.03844700    -0.61391641     0.00128004     0.00022601    -0.00030263
H         0.82524412     0.12109366     1.89346361    -0.00081386     0.00067614    -0.00044338
H        -0.87659037     0.18957443     1.86834485    -0.00095384     0.00113730     0.00074166
H        -0.94046927     0.13411671    -0.62643474    -0.00021676     0.00039943    -0.00013194
     6
  Step:    44            Position(A)                                  Velocity(au)
C        -0.03849746     0.03137973    -0.11343340    -0.00008690     0.00005107    -0.00085797
N        -0.04620125    -0.11086791     1.41929864     0.00013253    -0.00022161     0.00074676
H         0.89133913     0.03971644    -0.61570623     0.00135730     0.00022844    -0.00033247
H         0.82079663     0.12486147     1.89104481    -0.00076534     0.00067601    -0.00041530
H        -0.88217272     0.19598448     1.87262291    -0.00102460     0.00115028     0.00077915
H        -0.94212499     0.13639581    -0.62731882    -0.00037354     0.00041628    -0.00018495
     6