 Fermi distribution function

Calculation with static geometry


********************************************************************************
 iSCC Total electronic   Diff electronic      SCC error    
   14   -0.52813203E+01   -0.93736574E-10    0.30265076E-06
********************************************************************************

 Total charge:     1.00000000

 Atomic gross charges (e)
 Atom           Charge
    1       0.25691531
    2      -0.18651486
    3       0.18639578
    4       0.28132199
    5       0.27636858
    6       0.18551321

Nr. of electrons (up):     12.00000000
Atom populations (up)
 Atom       Population
    1       3.74308469
    2       5.18651486
    3       0.81360422
    4       0.71867801
    5       0.72363142
    6       0.81448679

l-shell populations (up)
 Atom Sh.   l       Population
    1   1   0       1.41708154
    1   2   1       2.32600314
    2   1   0       1.50213205
    2   2   1       3.68438282
    3   1   0       0.81360422
    4   1   0       0.71867801
    5   1   0       0.72363142
    6   1   0       0.81448679

Orbital populations (up)
 Atom Sh.   l   m       Population  Label
    1   1   0   0       1.41708154  s
    1   2   1  -1       0.49676063  p_y
    1   2   1   0       0.81651472  p_z
    1   2   1   1       1.01272780  p_x
    2   1   0   0       1.50213205  s
    2   2   1  -1       1.47871397  p_y
    2   2   1   0       1.06512280  p_z
    2   2   1   1       1.14054605  p_x
    3   1   0   0       0.81360422  s
    4   1   0   0       0.71867801  s
    5   1   0   0       0.72363142  s
    6   1   0   0       0.81448679  s

Fermi level:                        -0.4977681435 H          -13.5450 eV
Band energy:                        -8.5987255695 H         -233.9832 eV
TS:                                  0.0000000000 H            0.0000 eV
Band free energy (E-TS):            -8.5987255695 H         -233.9832 eV
Extrapolated E(0K):                 -8.5987255695 H         -233.9832 eV
Input / Output electrons (q):     12.0000000000     12.0000000000

Energy H0:                          -5.4109156101 H         -147.2385 eV
Energy SCC:                          0.1295953294 H            3.5265 eV
Total Electronic energy:            -5.2813202807 H         -143.7120 eV
Repulsive energy:                    0.1347872355 H            3.6677 eV
Total energy:                       -5.1465330451 H         -140.0443 eV
Extrapolated to 0:                  -5.1465330451 H         -140.0443 eV
Total Mermin free energy:           -5.1465330451 H         -140.0443 eV
Force related energy:               -5.1465330451 H         -140.0443 eV

SCC converged

Excitation Energy:                   0.1341888889 H            3.6515 eV

Total Forces
    1     -0.006298041258      0.004217201439      0.016879953953
    2      0.039095144156      0.004886106151     -0.013407710350
    3      0.004278039018     -0.000343105666     -0.002647329658
    4     -0.030076152692      0.000367506462     -0.010808312484
    5     -0.009672270906     -0.003851569926      0.009479331383
    6      0.002673281681     -0.005276138460      0.000504067156

Maximal derivative component:        0.390951E-01 au


