|===============================================================================
|
|  DFTB+ release 20.1
|
|  Copyright (C) 2006 - 2020  DFTB+ developers group
|
|===============================================================================
|
|  When publishing results obtained with DFTB+, please cite the following
|  reference:
|
|  * DFTB+, a software package for efficient approximate density functional
|    theory based atomistic simulations, J. Chem. Phys. 152, 124101 (2020).
|    [doi: 10.1063/1.5143190]
|
|  You should also cite additional publications crediting the parametrization
|  data you use. Please consult the documentation of the SK-files for the
|  references.
|
|===============================================================================

Reading input file 'dftb_in.hsd'
Parser version: 8

--------------------------------------------------------------------------------
Reading SK-files:
Done.


Processed input in HSD format written to 'dftb_pin.hsd'

Starting initialization...
--------------------------------------------------------------------------------
WARNING!
-> Excited state forces are not implemented yet for fractional occupations, kT=  0.3158E-02K
OpenMP threads:              1
Chosen random seed:          435694590
Mode:                        Static calculation
Self consistent charges:     Yes
SCC-tolerance:                 0.100000E-05
Max. scc iterations:                    100
Shell resolved Hubbard:      No
Spin polarisation:           No
Nr. of up electrons:             6.000000
Nr. of down electrons:           6.000000
Periodic boundaries:         No
Electronic solver:           Relatively robust
Mixer:                       Broyden mixer
Mixing parameter:                  0.200000
Maximal SCC-cycles:                     100
Nr. of chrg. vec. in memory:              0
Electronic temperature:        0.100000E-07 H      0.272114E-06 eV
Initial charges:             Set automatically (system chrg:   0.100E+01)
Included shells:             C:  s, p
                             N:  s, p
                             H:  s
Extra options:
                             Mulliken analysis
                             Force calculation
Force type                   original
                             Eigenvector printing

--------------------------------------------------------------------------------

***  Geometry step: 0

 iSCC Total electronic   Diff electronic      SCC error    
    1   -0.52373281E+01    0.00000000E+00    0.11245684E+01
    2   -0.52705078E+01   -0.33179726E-01    0.63410468E+00
    3   -0.52777570E+01   -0.72492292E-02    0.28904119E+00
    4   -0.51871944E+01    0.90562668E-01    0.11230380E+01
    5   -0.52791369E+01   -0.91942560E-01    0.15330753E+00
    6   -0.52811040E+01   -0.19671151E-02    0.42324444E-01
    7   -0.52807509E+01    0.35313920E-03    0.77623231E-01
    8   -0.52813199E+01   -0.56901256E-03    0.87155041E-03
    9   -0.52813026E+01    0.17347119E-04    0.13392801E-01
   10   -0.52813203E+01   -0.17689292E-04    0.53779010E-03
   11   -0.52813203E+01   -0.13958055E-07    0.41577269E-03
   12   -0.52813203E+01   -0.16621988E-07    0.17121584E-04
   13   -0.52813203E+01    0.62514438E-10    0.30992868E-04
   14   -0.52813203E+01   -0.93736574E-10    0.30265076E-06
>> Charges saved for restart in charges.bin

Total Energy:                       -5.0123441562 H         -136.3928 eV
Extrapolated to 0:                  -5.1465330451 H         -140.0443 eV
Total Mermin free energy:           -5.0123441562 H         -136.3928 eV
Force related energy:               -5.1465330451 H         -140.0443 eV

--------------------------------------------------------------------------------
DFTB+ running times                          cpu [s]             wall clock [s]
--------------------------------------------------------------------------------
SCC                                    +     0.01  ( 54.0%)      0.19  ( 89.8%)
Post-SCC processing                    +     0.01  ( 40.2%)      0.02  (  8.3%)
--------------------------------------------------------------------------------
Missing                                +     0.00  (  5.8%)      0.00  (  1.9%)
Total                                  =     0.02  (100.0%)      0.21  (100.0%)
--------------------------------------------------------------------------------
