 Fermi distribution function

Calculation with static geometry


********************************************************************************
 iSCC Total electronic   Diff electronic      SCC error    
   10   -0.54067327E+01   -0.20605739E-12    0.37638820E-06
********************************************************************************

 Total charge:     1.00000000

 Atomic gross charges (e)
 Atom           Charge
    1       0.19903412
    2      -0.09070325
    3       0.18346758
    4       0.27127797
    5       0.28759388
    6       0.14932971

Nr. of electrons (up):     12.00000000
Atom populations (up)
 Atom       Population
    1       3.80096588
    2       5.09070325
    3       0.81653242
    4       0.72872203
    5       0.71240612
    6       0.85067029

l-shell populations (up)
 Atom Sh.   l       Population
    1   1   0       1.31166873
    1   2   1       2.48929715
    2   1   0       1.42242033
    2   2   1       3.66828292
    3   1   0       0.81653242
    4   1   0       0.72872203
    5   1   0       0.71240612
    6   1   0       0.85067029

Orbital populations (up)
 Atom Sh.   l   m       Population  Label
    1   1   0   0       1.31166873  s
    1   2   1  -1       0.59197544  p_y
    1   2   1   0       0.88080957  p_z
    1   2   1   1       1.01651214  p_x
    2   1   0   0       1.42242033  s
    2   2   1  -1       1.34789956  p_y
    2   2   1   0       1.10837216  p_z
    2   2   1   1       1.21201121  p_x
    3   1   0   0       0.81653242  s
    4   1   0   0       0.72872203  s
    5   1   0   0       0.71240612  s
    6   1   0   0       0.85067029  s

Fermi level:                        -0.4925631400 H          -13.4033 eV
Band energy:                        -8.9057607703 H         -242.3381 eV
TS:                                  0.0000000000 H            0.0000 eV
Band free energy (E-TS):            -8.9057607703 H         -242.3381 eV
Extrapolated E(0K):                 -8.9057607703 H         -242.3381 eV
Input / Output electrons (q):     12.0000000000     12.0000000000

Energy H0:                          -5.5396229163 H         -150.7408 eV
Energy SCC:                          0.1328902565 H            3.6161 eV
Total Electronic energy:            -5.4067326599 H         -147.1247 eV
Repulsive energy:                    0.1859746960 H            5.0606 eV
Total energy:                       -5.2207579639 H         -142.0641 eV
Extrapolated to 0:                  -5.2207579639 H         -142.0641 eV
Total Mermin free energy:           -5.2207579639 H         -142.0641 eV
Force related energy:               -5.2207579639 H         -142.0641 eV

SCC converged

Excitation Energy:                   0.1350816899 H            3.6758 eV

Total Forces
    1      0.003445821600     -0.005150314987      0.043842358842
    2      0.014515170303      0.005750733159     -0.049821373790
    3     -0.008411611525     -0.007617707030      0.000170022827
    4     -0.015353349123      0.008078995419      0.002334930673
    5      0.003687685238     -0.009728479054      0.003346959287
    6      0.002116283506      0.008666772492      0.000127102160

Maximal derivative component:        0.498214E-01 au


