     6
  Step:   120            Position(A)                                  Velocity(au)
C        -0.03470380    -0.02483870    -0.02860568     0.00004565    -0.00011219    -0.00013190
N        -0.03416278    -0.01121815     1.36026764     0.00004547    -0.00002049    -0.00001259
H         0.86081423     0.36860268    -0.63988902    -0.00033556     0.00176432     0.00060119
H         0.74942756    -0.55020721     1.81698744    -0.00099658    -0.00076899     0.00018840
H        -0.95349069     0.03959238     1.84717395     0.00025623     0.00135383     0.00038248
H        -0.98142283    -0.07588711    -0.69413179    -0.00009996    -0.00072758     0.00057458
