     6
  Step:     0            Position(A)                                  Velocity(au)
C        -0.03080934     0.00892299     0.03577962     0.00005265    -0.00012510     0.00016791
N        -0.05066641    -0.04163763     1.28475335    -0.00001572     0.00008633    -0.00015629
H         0.88168302     0.00968969    -0.54738108    -0.00005793     0.00042233     0.00032360
H         0.84964524    -0.19185378     1.85551226    -0.00040434    -0.00024597     0.00002314
H        -0.88651521    -0.07308102     1.79128759     0.00068466    -0.00030183     0.00030470
H        -0.98654644     0.05775084    -0.48711385    -0.00063134     0.00041654    -0.00048044
     6
  Step:     1            Position(A)                                  Velocity(au)
C        -0.03053914     0.00827903     0.03627769     0.00004527    -0.00011062     0.00001377
N        -0.05066622    -0.04116246     1.28426171     0.00001581     0.00008757    -0.00002356
H         0.88178555     0.01185064    -0.54567179     0.00009868     0.00036867     0.00030038
H         0.84711775    -0.19327842     1.85538257    -0.00051696    -0.00027492    -0.00006998
H        -0.88358373    -0.07490294     1.79335073     0.00038373    -0.00036482     0.00045075
H        -0.99027534     0.05990704    -0.48985991    -0.00072458     0.00037247    -0.00051794
     6
  Step:     2            Position(A)                                  Velocity(au)
C        -0.03031427     0.00771326     0.03593025     0.00003622    -0.00009656    -0.00014096
N        -0.05049356    -0.04068006     1.28449572     0.00004696     0.00008914     0.00010880
H         0.88276212     0.01372129    -0.54409627     0.00025969     0.00031611     0.00027547
H         0.84399208    -0.19486011     1.85474701    -0.00062225    -0.00030432    -0.00016052
H        -0.88231898    -0.07707053     1.79621678     0.00007982    -0.00042896     0.00059669
H        -0.99447008     0.06182400    -0.49277772    -0.00080149     0.00032899    -0.00054389
     6
  Step:     3            Position(A)                                  Velocity(au)
C        -0.03014323     0.00722368     0.03473702     0.00002573    -0.00008275    -0.00029539
N        -0.05015294    -0.04018811     1.28545086     0.00007687     0.00009119     0.00024007
H         0.88462394     0.01530570    -0.54266090     0.00042047     0.00026371     0.00024979
H         0.84031656    -0.19660462     1.85362810    -0.00071706    -0.00033534    -0.00024544
H        -0.88271132    -0.07959147     1.79987251    -0.00021817    -0.00049466     0.00073792
H        -0.99903565     0.06350290    -0.49580466    -0.00085999     0.00028517    -0.00055850
     6
  Step:     4            Position(A)                                  Velocity(au)
C        -0.03003315     0.00680912     0.03270258     0.00001406    -0.00006905    -0.00044834
N        -0.04965367    -0.03968369     1.28711889     0.00010459     0.00009375     0.00036932
H         0.88735642     0.01660276    -0.54136685     0.00057586     0.00021063     0.00022421
H         0.83615696    -0.19852426     1.85206520    -0.00079775    -0.00036892    -0.00032138
H        -0.88470290    -0.08247548     1.80427984    -0.00050115    -0.00056183     0.00086963
H        -1.00386694     0.06493999    -0.49888031    -0.00089803     0.00024022    -0.00056217
     6
  Step:     5            Position(A)                                  Velocity(au)
C        -0.02998954     0.00646912     0.02983775     0.00000156    -0.00005539    -0.00059816
N        -0.04901001    -0.03916367     1.28948657     0.00012916     0.00009678     0.00049521
H         0.89091660     0.01760730    -0.54021085     0.00072020     0.00015645     0.00019940
H         0.83159915    -0.20063597     1.85011624    -0.00086018    -0.00040548    -0.00038465
H        -0.88818761    -0.08573087     1.80937537    -0.00075988    -0.00062955     0.00098690
H        -1.00884882     0.06612786    -0.50194780    -0.00091365     0.00019374    -0.00055560
     6
  Step:     6            Position(A)                                  Velocity(au)
C        -0.03001605     0.00620345     0.02616224    -0.00001139    -0.00004181    -0.00074250
N        -0.04824141    -0.03862544     1.29253356     0.00014957     0.00010010     0.00061585
H         0.89523118     0.01831340    -0.53918658     0.00084771     0.00010155     0.00017579
H         0.82675164    -0.20295784     1.84785942    -0.00089985    -0.00044468    -0.00043137
H        -0.89301157    -0.08935903     1.81507080    -0.00098533    -0.00069569     0.00108496
H        -1.01385695     0.06705838    -0.50495538    -0.00090535     0.00014605    -0.00053981
     6
  Step:     7            Position(A)                                  Velocity(au)
C        -0.03011423     0.00601134     0.02170857    -0.00002438    -0.00002850    -0.00087822
N        -0.04737245    -0.03806772     1.29622912     0.00016488     0.00010339     0.00072868
H         0.90019765     0.01871913    -0.53828624     0.00095337     0.00004716     0.00015354
H         0.82174727    -0.20550444     1.84539350    -0.00091223    -0.00048534    -0.00045790
H        -0.89897532    -0.09334756     1.82125387    -0.00116922    -0.00075705     0.00115933
H        -1.01876097     0.06772684    -0.50785786    -0.00087273     0.00009819    -0.00051608
     6
  Step:     8            Position(A)                                  Velocity(au)
C        -0.03028353     0.00589076     0.01652710    -0.00003699    -0.00001575    -0.00100132
N        -0.04643243    -0.03749117     1.30052807     0.00017431     0.00010626     0.00083046
H         0.90569078     0.01883075    -0.53750211     0.00103364    -0.00000502     0.00013256
H         0.81674333    -0.20828260     1.84283566    -0.00089323    -0.00052578    -0.00046140
H        -0.90583933    -0.09766475     1.82779003    -0.00130485    -0.00080981     0.00120613
H        -1.02343182     0.06813560    -0.51061745    -0.00081697     0.00005167    -0.00048588
     6
  Step:     9            Position(A)                                  Velocity(au)
C        -0.03052130     0.00583803     0.01069062    -0.00004883    -0.00000387    -0.00110738
N        -0.04545449    -0.03689847     1.30536699     0.00017730     0.00010840     0.00091760
H         0.91157128     0.01866388    -0.53682762     0.00108678    -0.00005333     0.00011268
H         0.81191866    -0.21128981     1.84031653    -0.00083993    -0.00056432    -0.00044026
H        -0.91333314    -0.10225821     1.83452551    -0.00138783    -0.00085047     0.00122259
H        -1.02775044     0.06829534    -0.51320423    -0.00074099     0.00000798    -0.00045081
     6
  Step:    10            Position(A)                                  Velocity(au)
C        -0.03082284     0.00584799     0.00429615    -0.00005950     0.00000688    -0.00119233
N        -0.04447418    -0.03629392     1.31066295     0.00017369     0.00010957     0.00098685
H         0.91769418     0.01824169    -0.53625759     0.00111260    -0.00009661     0.00009371
H         0.80746635    -0.21451551     1.83797303    -0.00075153    -0.00059971    -0.00039456
H        -0.92116786    -0.10705819     1.84129346    -0.00141670    -0.00087659     0.00120759
H        -1.03161603     0.06822370    -0.51559659    -0.00064909    -0.00003176    -0.00041257
     6
  Step:    11            Position(A)                                  Velocity(au)
C        -0.03118139     0.00591439    -0.00253780    -0.00006866     0.00001635    -0.00125340
N        -0.04352746    -0.03568278     1.31631572     0.00016377     0.00010972     0.00103601
H         0.92391512     0.01759205    -0.53578792     0.00111233    -0.00013424     0.00007562
H         0.80358073    -0.21794334     1.83593909    -0.00063014    -0.00063122    -0.00032628
H        -0.92905093    -0.11198367     1.84792326    -0.00139344    -0.00088718     0.00116235
H        -1.03495182     0.06794301    -0.51778158    -0.00054641    -0.00006686    -0.00037295
     6
  Step:    12            Position(A)                                  Velocity(au)
C        -0.03158836     0.00603027    -0.00967876    -0.00007608     0.00002445    -0.00128998
N        -0.04264822    -0.03507057     1.32221409     0.00014831     0.00010892     0.00106468
H         0.93009627     0.01674498    -0.53541449     0.00108867    -0.00016612     0.00005858
H         0.80044049    -0.22155338     1.83433515    -0.00048097    -0.00065875    -0.00023926
H        -0.93670414    -0.11694995     1.85425316    -0.00132369    -0.00088294     0.00109065
H        -1.03770832     0.06747828    -0.51975489    -0.00043844    -0.00009706    -0.00033367
     6
  Step:    13            Position(A)                                  Velocity(au)
C        -0.03203388     0.00618839    -0.01699204    -0.00008169     0.00003123    -0.00130420
N        -0.04186562    -0.03446238     1.32824545     0.00012854     0.00010738     0.00107471
H         0.93611362     0.01573063    -0.53513158     0.00104588    -0.00019265     0.00004283
H         0.79819142    -0.22532467     1.83325816    -0.00031170    -0.00068290    -0.00013872
H        -0.94388286    -0.12187704     1.86014397    -0.00121638    -0.00086626     0.00099859
H        -1.03986456     0.06685545    -0.52152030    -0.00033051    -0.00012251    -0.00029643
     6
  Step:    14            Position(A)                                  Velocity(au)
C        -0.03250772     0.00638170    -0.02435569    -0.00008563     0.00003682    -0.00130076
N        -0.04120174    -0.03386212     1.33430847     0.00010589     0.00010547     0.00107016
H         0.94186622     0.01457697    -0.53493249     0.00098958    -0.00021468     0.00002845
H         0.79693272    -0.22923849     1.83277402    -0.00013108    -0.00070497    -0.00003035
H        -0.95039282    -0.12669851     1.86549093    -0.00108239    -0.00084090     0.00089361
H        -1.04142775     0.06609962    -0.52309076    -0.00022729    -0.00014373    -0.00026305
     6
  Step:    15            Position(A)                                  Velocity(au)
C        -0.03300039     0.00660395    -0.03167441    -0.00008816     0.00004145    -0.00128582
N        -0.04067038    -0.03327193     1.34032483     0.00008180     0.00010354     0.00105625
H         0.94728348     0.01330748    -0.53481049     0.00092561    -0.00023341     0.00001531
H         0.79671186    -0.23328200     1.83291555     0.00005280    -0.00072667     0.00008073
H        -0.95610034    -0.13136867     1.87023057    -0.00093252    -0.00081116     0.00078297
H        -1.04243013     0.06523314    -0.52448942    -0.00013220    -0.00016155    -0.00023513
     6
  Step:    16            Position(A)                                  Velocity(au)
C        -0.03350397     0.00685014    -0.03888682    -0.00008960     0.00004540    -0.00126519
N        -0.04027729    -0.03269196     1.34624518     0.00005742     0.00010193     0.00103794
H         0.95232655     0.01193918    -0.53475943     0.00085878    -0.00025015     0.00000319
H         0.79752940    -0.23745064     1.83368631     0.00023354    -0.00074953     0.00019058
H        -0.96093123    -0.13586548     1.87433934    -0.00077548    -0.00078085     0.00067239
H        -1.04292171     0.06427391    -0.52574794    -0.00004709    -0.00017694    -0.00021375
     6
  Step:    17            Position(A)                                  Velocity(au)
C        -0.03401236     0.00711669    -0.04596359    -0.00014190     0.00007691    -0.00195532
N        -0.04002186    -0.03212067     1.35204747     0.00005277     0.00015858     0.00160263
H         0.95698264     0.01048222    -0.53477443     0.00124601    -0.00041841    -0.00001298
H         0.79934954    -0.24174727     1.83506794     0.00063923    -0.00121794     0.00046618
H        -0.96485874    -0.14018766     1.87782460    -0.00097071    -0.00118373     0.00088941
H        -1.04296194     0.06323477    -0.52690355     0.00004305    -0.00030000    -0.00031374
     6
  Step:    18            Position(A)                                  Velocity(au)
C        -0.03479905     0.00752911    -0.05653873    -0.00013498     0.00006864    -0.00177427
N        -0.03979441    -0.03124197     1.36073998     0.00002829     0.00015141     0.00146304
H         0.96397146     0.00824328    -0.53519287     0.00121576    -0.00037236    -0.00012895
H         0.80341523    -0.24858250     1.83801091     0.00078292    -0.00119216     0.00056454
H        -0.96985610    -0.14661775     1.88254172    -0.00079122    -0.00108530     0.00077519
H        -1.04280567     0.06161400    -0.52892574     0.00000786    -0.00027215    -0.00039942
     6
  Step:    19            Position(A)                                  Velocity(au)
C        -0.03554425     0.00789563    -0.06609916    -0.00012742     0.00006080    -0.00159999
N        -0.03970080    -0.03040232     1.36865097     0.00000588     0.00014485     0.00132911
H         0.97077987     0.00625645    -0.53623789     0.00118267    -0.00032968    -0.00023387
H         0.80823465    -0.25527667     1.84147472     0.00090332    -0.00116831     0.00064899
H        -0.97383798    -0.15250435     1.88662196    -0.00061495    -0.00099304     0.00066623
H        -1.04287272     0.06014621    -0.53143638    -0.00003442    -0.00024636    -0.00048559
     6
  Step:    20            Position(A)                                  Velocity(au)
C        -0.03624436     0.00821882    -0.07468774    -0.00011960     0.00005358    -0.00143780
N        -0.03972775    -0.02959891     1.37581633    -0.00001407     0.00013911     0.00120531
H         0.97738672     0.00450361    -0.53784569     0.00114859    -0.00029084    -0.00032868
H         0.81366182    -0.26183487     1.84537250     0.00099953    -0.00114789     0.00071951
H        -0.97683164    -0.15788204     1.89009885    -0.00044586    -0.00090939     0.00056520
H        -1.04319612     0.05881951    -0.53443390    -0.00008158    -0.00022332    -0.00057263
     6
  Step:    21            Position(A)                                  Velocity(au)
C        -0.03689811     0.00850212    -0.08237525    -0.00011158     0.00004692    -0.00128763
N        -0.03986011    -0.02882763     1.38229528    -0.00003137     0.00013402     0.00109165
H         0.98378210     0.00296408    -0.53995860     0.00111241    -0.00025530    -0.00041422
H         0.81954942    -0.26827098     1.84961971     0.00106976    -0.00112945     0.00077537
H        -0.97888516    -0.16279881     1.89302008    -0.00028519    -0.00083381     0.00047240
H        -1.04379620     0.05761824    -0.53791867    -0.00013152    -0.00020295    -0.00065997
     6
  Step:    22            Position(A)                                  Velocity(au)
C        -0.03750459     0.00874877    -0.08923112    -0.00010331     0.00004075    -0.00114776
N        -0.04008204    -0.02808516     1.38814609    -0.00004587     0.00012934     0.00098666
H         0.98995100     0.00162008    -0.54252420     0.00107210    -0.00022231    -0.00049092
H         0.82574440    -0.27459157     1.85413004     0.00111217    -0.00111059     0.00081556
H        -0.98005280    -0.16729967     1.89543443    -0.00013367    -0.00076492     0.00038749
H        -1.04468164     0.05652722    -0.54188802    -0.00018213    -0.00018497    -0.00074635
     6
  Step:    23            Position(A)                                  Velocity(au)
C        -0.03806273     0.00896147    -0.09531453    -0.00009476     0.00003497    -0.00101660
N        -0.04037727    -0.02736957     1.39341837    -0.00005750     0.00012482     0.00088897
H         0.99586834     0.00045787    -0.54549302     0.00102597    -0.00019125    -0.00055903
H         0.83208749    -0.28079122     1.85881395     0.00112577    -0.00108931     0.00083949
H        -0.98039206    -0.17142210     1.89738842     0.00000782    -0.00070153     0.00031026
H        -1.04584949     0.05553295    -0.54633258    -0.00023129    -0.00016912    -0.00083033
     6
  Step:    24            Position(A)                                  Velocity(au)
C        -0.03857137     0.00914249    -0.10067537    -0.00008598     0.00002955    -0.00089309
N        -0.04072938    -0.02668006     1.39815356    -0.00006624     0.00012032     0.00079759
H         1.00150073    -0.00053290    -0.54881746     0.00097305    -0.00016169    -0.00061885
H         0.83841770    -0.28685436     1.86358054     0.00111080    -0.00106430     0.00084722
H        -0.97996478    -0.17519714     1.89892710     0.00013819    -0.00064292     0.00024072
H        -1.04728536     0.05462340    -0.55123537    -0.00027700    -0.00015522    -0.00091063
     6
  Step:    25            Position(A)                                  Velocity(au)
C        -0.03902963     0.00929379    -0.10535733    -0.00007706     0.00002445    -0.00077662
N        -0.04112209    -0.02601659     1.40238729    -0.00007212     0.00011578     0.00071190
H         1.00681026    -0.00136028    -0.55245193     0.00091303    -0.00013333    -0.00067080
H         0.84457840    -0.29275925     1.86834088     0.00106866    -0.00103497     0.00083945
H        -0.97883812    -0.17865177     1.90009530     0.00025637    -0.00058870     0.00017903
H        -1.04896438     0.05378756    -0.55657259    -0.00031752    -0.00014316    -0.00098623
     6
  Step:    26            Position(A)                                  Velocity(au)
C        -0.03943713     0.00941714    -0.10940034    -0.00006811     0.00001963    -0.00066679
N        -0.04153965    -0.02537938     1.40615140    -0.00007529     0.00011117     0.00063143
H         1.01175812    -0.00203080    -0.55635360     0.00084607    -0.00010599    -0.00071549
H         0.85042359    -0.29848175     1.87301138     0.00100172    -0.00100127     0.00081743
H        -0.97708457    -0.18181085     1.90093838     0.00036144    -0.00053868     0.00012535
H        -1.05085252     0.05301506    -0.56231520    -0.00035137    -0.00013287    -0.00105643
     6
  Step:    27            Position(A)                                  Velocity(au)
C        -0.03979414     0.00951416    -0.11284181    -0.00005925     0.00001509    -0.00056326
N        -0.04196718    -0.02476872     1.40947490    -0.00007590     0.00010652     0.00055580
H         1.01630707    -0.00254998    -0.56048307     0.00077263    -0.00007953    -0.00075359
H         0.85582228    -0.30399813     1.87751624     0.00091284    -0.00096347     0.00078266
H        -0.97478114    -0.18469826     1.90150230     0.00045265    -0.00049280     0.00007981
H        -1.05290842     0.05229608    -0.56843061    -0.00037742    -0.00012428    -0.00112076
     6
  Step:    28            Position(A)                                  Velocity(au)
C        -0.04010156     0.00958635    -0.11571705    -0.00005058     0.00001079    -0.00046568
N        -0.04239083    -0.02418474     1.41238452    -0.00007415     0.00010187     0.00048463
H         1.02042283    -0.00292269    -0.56480480     0.00069327    -0.00005385    -0.00078578
H         0.86066072    -0.30928672     1.88178864     0.00080518    -0.00092204     0.00073680
H        -0.97200822    -0.18733748     1.90183337     0.00052951    -0.00045104     0.00004244
H        -1.05508510     0.05162131    -0.57488410    -0.00039479    -0.00011728    -0.00117896
     6
  Step:    29            Position(A)                                  Velocity(au)
C        -0.04036088     0.00963510    -0.11805936    -0.00004221     0.00000673    -0.00037369
N        -0.04279799    -0.02362736     1.41490474    -0.00007027     0.00009725     0.00041750
H         1.02407458    -0.00315329    -0.56928709     0.00060862    -0.00002887    -0.00081274
H         0.86484369    -0.31432884     1.88577146     0.00068202    -0.00087754     0.00068154
H        -0.96884839    -0.18975179     1.90197780     0.00059170    -0.00041336     0.00001321
H        -1.05733168     0.05098204    -0.58163987    -0.00040290    -0.00011177    -0.00123090
     6
  Step:    30            Position(A)                                  Velocity(au)
C        -0.04057406     0.00966166    -0.11989983    -0.00003422     0.00000287    -0.00028687
N        -0.04317733    -0.02309623     1.41705772    -0.00006447     0.00009270     0.00035402
H         1.02723529    -0.00324579    -0.57390199     0.00051934    -0.00000453    -0.00083509
H         0.86829467    -0.31910925     1.88941726     0.00054656    -0.00083058     0.00061854
H        -0.96538518    -0.19196428     1.90198118     0.00063911    -0.00037971    -0.00000804
H        -1.05959482     0.05037029    -0.58866187    -0.00040140    -0.00010760    -0.00127656
     6
  Step:    31            Position(A)                                  Velocity(au)
C        -0.04074352     0.00966719    -0.12126715    -0.00002667    -0.00000080    -0.00020481
N        -0.04351884    -0.02259076     1.41886330    -0.00005698     0.00008828     0.00029374
H         1.02988177    -0.00320399    -0.57862497     0.00042606     0.00001918    -0.00085338
H         0.87095526    -0.32361626     1.89268793     0.00040191    -0.00078173     0.00054938
H        -0.96170195    -0.19399771     1.90188789     0.00067182    -0.00035003    -0.00002156
H        -1.06182006     0.04977892    -0.59591424    -0.00039014    -0.00010462    -0.00131595
     6
  Step:    32            Position(A)                                  Velocity(au)
C        -0.04087200     0.00965270    -0.12218760    -0.00001962    -0.00000431    -0.00012706
N        -0.04381383    -0.02211011     1.42033895    -0.00004804     0.00008401     0.00023628
H         1.03199455    -0.00303152    -0.58343457     0.00032942     0.00004230    -0.00086809
H         0.87278412    -0.32784151     1.89555406     0.00025096    -0.00073157     0.00047552
H        -0.95788067    -0.19587427     1.90174040     0.00069014    -0.00032420    -0.00002770
H        -1.06395286     0.04920170    -0.60336152    -0.00036916    -0.00010266    -0.00134911
     6
  Step:    33            Position(A)                                  Velocity(au)
C        -0.04096247     0.00961910    -0.12268501    -0.00001311    -0.00000767    -0.00005322
N        -0.04405491    -0.02165325     1.42149991    -0.00003787     0.00007994     0.00018123
H         1.03355775    -0.00273194    -0.58831187     0.00023003     0.00006484    -0.00087959
H         0.87375572    -0.33177982     1.89799419     0.00009643    -0.00068062     0.00039830
H        -0.95400079    -0.19761540     1.90157877     0.00069455    -0.00030205    -0.00002695
H        -1.06593947     0.04863337    -0.61096885    -0.00033862    -0.00010155    -0.00137610
     6
  Step:    34            Position(A)                                  Velocity(au)
C        -0.04101811     0.00956718    -0.12278088    -0.00000716    -0.00001091     0.00001710
N        -0.04423597    -0.02121900     1.42235930    -0.00002670     0.00007607     0.00012826
H         1.03455886    -0.00230875    -0.59324005     0.00012848     0.00008678    -0.00088821
H         0.87385915    -0.33542894     1.89999416    -0.00005913    -0.00062939     0.00031896
H        -0.95013804    -0.19924145     1.90144000     0.00068577    -0.00028338    -0.00001988
H        -1.06772771     0.04806961    -0.61870195    -0.00029884    -0.00010113    -0.00139697
     6
  Step:    35            Position(A)                                  Velocity(au)
C        -0.04104220     0.00949764    -0.12249457    -0.00000180    -0.00001403     0.00008423
N        -0.04435223    -0.02080606     1.42292834    -0.00001476     0.00007243     0.00007705
H         1.03498866    -0.00176546    -0.59820398     0.00002537     0.00010813    -0.00089418
H         0.87309716    -0.33878948     1.90154651    -0.00021332    -0.00057839     0.00023869
H        -0.94636323    -0.20077139     1.90135736     0.00066477    -0.00026790    -0.00000721
H        -1.06926768     0.04750704    -0.62652709    -0.00025024    -0.00010124    -0.00141176
     6
  Step:    36            Position(A)                                  Velocity(au)
C        -0.04103810     0.00941110    -0.12184357     0.00000297    -0.00001705     0.00014848
N        -0.04440025    -0.02041302     1.42321663    -0.00000232     0.00006904     0.00002735
H         1.03484115    -0.00110559    -0.60318980    -0.00007871     0.00012887    -0.00089767
H         0.87148552    -0.34186482     1.90265014    -0.00036378    -0.00052812     0.00015861
H        -0.94274098    -0.20222240     1.90135980     0.00063271    -0.00025527     0.00001025
H        -1.07051225     0.04694311    -0.63441099    -0.00019333    -0.00010172    -0.00142048
     6
  Step:    37            Position(A)                                  Velocity(au)
C        -0.04100920     0.00930808    -0.12084375     0.00000713    -0.00001998     0.00021006
N        -0.04437804    -0.02003843     1.42323238     0.00001037     0.00006590    -0.00002105
H         1.03411355    -0.00033268    -0.60818457    -0.00018314     0.00014898    -0.00089880
H         0.86905258    -0.34466127     1.90331003    -0.00050820    -0.00047912     0.00007984
H        -0.93932855    -0.20360954     1.90147130     0.00059099    -0.00024508     0.00003155
H        -1.07141724     0.04637603    -0.64232047    -0.00012867    -0.00010247    -0.00142310
     6
  Step:    38            Position(A)                                  Velocity(au)
C        -0.04095892     0.00918909    -0.11950972     0.00001068    -0.00002283     0.00026914
N        -0.04428505    -0.01968080     1.42298271     0.00002303     0.00006303    -0.00006830
H         1.03280633     0.00054968    -0.61317595    -0.00028730     0.00016845    -0.00089763
H         0.86583915    -0.34718816     1.90353723    -0.00064430    -0.00043198     0.00000348
H        -0.93617473    -0.20494542     1.90171033     0.00054123    -0.00023687     0.00005565
H        -1.07194189     0.04580465    -0.65022238    -0.00005692    -0.00010335    -0.00141956
     6
  Step:    39            Position(A)                                  Velocity(au)
C        -0.04089062     0.00905456    -0.11785516     0.00001363    -0.00002560     0.00032584
N        -0.04412231    -0.01933859     1.42247399     0.00003537     0.00006041    -0.00011448
H         1.03092334     0.00153783    -0.61815188    -0.00039052     0.00018725    -0.00089417
H         0.86189824    -0.34945798     1.90334869    -0.00076981    -0.00038728    -0.00006936
H        -0.93331869    -0.20623981     1.90208925     0.00048523    -0.00023011     0.00008141
H        -1.07204931     0.04522838    -0.65808340     0.00002117    -0.00010429    -0.00140982
     6
  Step:    40            Position(A)                                  Velocity(au)
C        -0.04080765     0.00890495    -0.11589321     0.00001599    -0.00002829     0.00038018
N        -0.04389248    -0.01901029     1.42171214     0.00004709     0.00005806    -0.00015962
H         1.02847200     0.00262800    -0.62310039    -0.00049207     0.00020535    -0.00088842
H         0.85729504    -0.35148662     1.90276739    -0.00088246    -0.00034567    -0.00013756
H        -0.93078912    -0.20749940     1.90261386     0.00042495    -0.00022422     0.00010760
H        -1.07170692     0.04464714    -0.66586996     0.00010476    -0.00010519    -0.00139378
     6
  Step:    41            Position(A)                                  Velocity(au)
C        -0.04071324     0.00874068    -0.11363683     0.00001777    -0.00003089     0.00043214
N        -0.04359987    -0.01869437     1.42070293     0.00005787     0.00005598    -0.00020370
H         1.02546350     0.00381628    -0.62800939    -0.00059122     0.00022269    -0.00088032
H         0.85210679    -0.35329344     1.90182236    -0.00098005    -0.00030782    -0.00019999
H        -0.92860366    -0.20872762     1.90328311     0.00036241    -0.00021860     0.00013297
H        -1.07088689     0.04406123    -0.67354820     0.00019293    -0.00010599    -0.00137139
     6
  Step:    42            Position(A)                                  Velocity(au)
C        -0.04061056     0.00856223    -0.11109914     0.00001898    -0.00003341     0.00048162
N        -0.04325045    -0.01838931     1.41945233     0.00006743     0.00005415    -0.00024663
H         1.02191310     0.00509853    -0.63286651    -0.00068715     0.00023924    -0.00086982
H         0.84642247    -0.35490148     1.90054869    -0.00106047    -0.00027438    -0.00025555
H        -0.92676860    -0.20992457     1.90408902     0.00029968    -0.00021268     0.00015627
H        -1.06956654     0.04347131    -0.68108396     0.00028467    -0.00010663    -0.00134260
     6
  Step:    43            Position(A)                                  Velocity(au)
C        -0.04050266     0.00837007    -0.10829379     0.00001966    -0.00003582     0.00052848
N        -0.04285177    -0.01809360     1.41796680     0.00007548     0.00005259    -0.00028829
H         1.01784036     0.00647037    -0.63765914    -0.00077901     0.00025492    -0.00085688
H         0.84034201    -0.35633735     1.89898735    -0.00112181    -0.00024600    -0.00030317
H        -0.92527899    -0.21108705     1.90501678     0.00023877    -0.00020587     0.00017630
H        -1.06772883     0.04287831    -0.68844292     0.00037886    -0.00010706    -0.00130742
     6
  Step:    44            Position(A)                                  Velocity(au)
C        -0.04039247     0.00816478    -0.10523527     0.00001981    -0.00003812     0.00057252
N        -0.04241288    -0.01780576     1.41625353     0.00008178     0.00005129    -0.00032849
H         1.01326932     0.00792710    -0.64237433    -0.00086596     0.00026968    -0.00084147
H         0.83397510    -0.35763103     1.89718476    -0.00116247    -0.00022326    -0.00034193
H        -0.92411924    -0.21220880     1.90604516     0.00018153    -0.00019764     0.00019194
H        -1.06536278     0.04228342    -0.69559087     0.00047435    -0.00010724    -0.00126593
     6