|===============================================================================
|
|  DFTB+ release 20.1
|
|  Copyright (C) 2006 - 2020  DFTB+ developers group
|
|===============================================================================
|
|  When publishing results obtained with DFTB+, please cite the following
|  reference:
|
|  * DFTB+, a software package for efficient approximate density functional
|    theory based atomistic simulations, J. Chem. Phys. 152, 124101 (2020).
|    [doi: 10.1063/1.5143190]
|
|  You should also cite additional publications crediting the parametrization
|  data you use. Please consult the documentation of the SK-files for the
|  references.
|
|===============================================================================

Reading input file 'dftb_in.hsd'
Parser version: 8

--------------------------------------------------------------------------------
Reading SK-files:
Done.


Processed input in HSD format written to 'dftb_pin.hsd'

Starting initialization...
--------------------------------------------------------------------------------
WARNING!
-> Excited state forces are not implemented yet for fractional occupations, kT=  0.3158E-02K
OpenMP threads:              1
Chosen random seed:          505833681
Mode:                        Static calculation
Self consistent charges:     Yes
SCC-tolerance:                 0.100000E-05
Max. scc iterations:                    100
Shell resolved Hubbard:      No
Spin polarisation:           No
Nr. of up electrons:             6.000000
Nr. of down electrons:           6.000000
Periodic boundaries:         No
Electronic solver:           Relatively robust
Mixer:                       Broyden mixer
Mixing parameter:                  0.200000
Maximal SCC-cycles:                     100
Nr. of chrg. vec. in memory:              0
Electronic temperature:        0.100000E-07 H      0.272114E-06 eV
Initial charges:             Set automatically (system chrg:   0.100E+01)
Included shells:             C:  s, p
                             N:  s, p
                             H:  s
Extra options:
                             Mulliken analysis
                             Force calculation
Force type                   original
                             Eigenvector printing

--------------------------------------------------------------------------------

***  Geometry step: 0

 iSCC Total electronic   Diff electronic      SCC error    
    1   -0.53928544E+01    0.00000000E+00    0.78396355E+00
    2   -0.53986333E+01   -0.57788878E-02    0.52856471E+00
    3   -0.54023370E+01   -0.37036711E-02    0.10037338E+00
    4   -0.54024671E+01   -0.13008534E-03    0.78292087E-01
    5   -0.54027546E+01   -0.28754953E-03    0.10472319E-01
    6   -0.54027558E+01   -0.11541472E-05    0.40069732E-02
    7   -0.54027561E+01   -0.31388226E-06    0.38595531E-04
    8   -0.54027561E+01   -0.53603344E-10    0.34782843E-04
    9   -0.54027561E+01   -0.59997340E-10    0.87132488E-06
>> Charges saved for restart in charges.bin

Total Energy:                       -5.0911889924 H         -138.5383 eV
Extrapolated to 0:                  -5.2185324353 H         -142.0035 eV
Total Mermin free energy:           -5.0911889924 H         -138.5383 eV
Force related energy:               -5.2185324353 H         -142.0035 eV

--------------------------------------------------------------------------------
DFTB+ running times                          cpu [s]             wall clock [s]
--------------------------------------------------------------------------------
SCC                                    +     0.01  ( 48.8%)      0.03  ( 61.9%)
Post-SCC processing                    +     0.00  ( 41.4%)      0.01  ( 28.6%)
--------------------------------------------------------------------------------
Missing                                +     0.00  (  9.7%)      0.00  (  9.5%)
Total                                  =     0.01  (100.0%)      0.04  (100.0%)
--------------------------------------------------------------------------------
