|===============================================================================
|
|  DFTB+ release 20.1
|
|  Copyright (C) 2006 - 2020  DFTB+ developers group
|
|===============================================================================
|
|  When publishing results obtained with DFTB+, please cite the following
|  reference:
|
|  * DFTB+, a software package for efficient approximate density functional
|    theory based atomistic simulations, J. Chem. Phys. 152, 124101 (2020).
|    [doi: 10.1063/1.5143190]
|
|  You should also cite additional publications crediting the parametrization
|  data you use. Please consult the documentation of the SK-files for the
|  references.
|
|===============================================================================

Reading input file 'dftb_in.hsd'
Parser version: 8

--------------------------------------------------------------------------------
Reading SK-files:
Done.


Processed input in HSD format written to 'dftb_pin.hsd'

Starting initialization...
--------------------------------------------------------------------------------
OpenMP threads:              1
Chosen random seed:          509715454
Mode:                        Static calculation
Self consistent charges:     Yes
SCC-tolerance:                 0.100000E-05
Max. scc iterations:                   1000
Shell resolved Hubbard:      No
Spin polarisation:           No
Nr. of up electrons:             6.000000
Nr. of down electrons:           6.000000
Periodic boundaries:         No
Electronic solver:           Relatively robust
Maximal SCC-cycles:                    1000
Initial charges:             Set automatically (system chrg:   0.100E+01)
Included shells:             C:  s, p
                             N:  s, p
                             H:  s
Spin coupling constants:     C   1(s)-1(s):  -0.455900E-01
                             C   1(s)-2(p):  -0.293000E-01
                             C   2(p)-1(s):  -0.293000E-01
                             C   2(p)-2(p):  -0.275500E-01
                             N   1(s)-1(s):  -0.468700E-01
                             N   1(s)-2(p):  -0.317000E-01
                             N   2(p)-1(s):  -0.317000E-01
                             N   2(p)-2(p):  -0.307200E-01
                             H   1(s)-1(s):  -0.792500E-01
Range separated hybrid:      Yes
  Screening parameter omega:   0.300000E+00
  Range separated algorithm:   MatrixBased
Extra options:
                             Mulliken analysis
                             Force calculation
Force type                   original
                             Eigenvector printing


REKS Calcuation:             Yes
SSR(2,2) Calcuation:         Yes
Energy Functional:           (PPS+OSS)/2
Number of Core Orbitals:                  5
Number of Active Orbitals:                2
Number of Basis:                         12
Number of States:                         2
State-Averaging Weight:          0.500000
                                 0.500000
State of Interest:                        1
Initial Guess:               Diagonalize H0 matrix
Newton-Raphson for FON opt:  Yes
NR max. Iterations:                      50
Level Shifting:              Yes
Shift Value:                     0.300000
W Scale Factor:              C  =    3.000000
                             N  =    3.000000
                             H  =    3.000000
Transition Dipole:           No
Gradient of Microstate:      No
CP-REKS Solver:              Preconditioned Conjugate-Gradient
CG max. Iterations:                     100
CG Tolerance:                  0.100000E-07
Memory for A and Hxc:        Direct Updating Without Saving
Non-Adiabatic Coupling:      Yes

--------------------------------------------------------------------------------

***  Geometry step: 0

  iSCC       reks energy        Diff energy         x_a       SCC error   
    1       -6.2594760762       0.0000000000     0.999285    1.18645797
    2       -6.2735627795      -0.0140867032     0.999718    0.10081333
    3       -6.2783773737      -0.0048145942     0.999849    0.04599038
    4       -6.2811131123      -0.0027357386     0.999905    0.02196869
    5       -6.2829116580      -0.0017985457     0.999933    0.01195279
    6       -6.2841437777      -0.0012321197     0.999948    0.01103029
    7       -6.2849833743      -0.0008395965     0.999957    0.01025221
    8       -6.2855425418      -0.0005591676     0.999962    0.00902427
    9       -6.2859055357      -0.0003629939     0.999965    0.00768639
   10       -6.2861360544      -0.0002305187     0.999967    0.00640852
   11       -6.2862800553      -0.0001440008     0.999968    0.00526800
   12       -6.2863690302      -0.0000889749     0.999969    0.00429007
   13       -6.2864236647      -0.0000546345     0.999970    0.00347225
   14       -6.2864571294      -0.0000334647     0.999970    0.00279911
   15       -6.2864776332      -0.0000205038     0.999970    0.00225068
   16       -6.2864902240      -0.0000125908     0.999970    0.00180675
   17       -6.2864979827      -0.0000077586     0.999970    0.00144889
   18       -6.2865027836      -0.0000048010     0.999970    0.00116118
   19       -6.2865057676      -0.0000029840     0.999970    0.00093025
   20       -6.2865076305      -0.0000018629     0.999970    0.00074508
   21       -6.2865087984      -0.0000011679     0.999970    0.00059671
   22       -6.2865095333      -0.0000007349     0.999970    0.00047787
   23       -6.2865099974      -0.0000004641     0.999970    0.00038269
   24       -6.2865102913      -0.0000002939     0.999970    0.00030648
   25       -6.2865104779      -0.0000001866     0.999970    0.00024545
   26       -6.2865105967      -0.0000001188     0.999970    0.00019659
   27       -6.2865106724      -0.0000000757     0.999970    0.00015747
   28       -6.2865107207      -0.0000000483     0.999970    0.00012613
   29       -6.2865107516      -0.0000000309     0.999970    0.00010104
   30       -6.2865107714      -0.0000000198     0.999970    0.00008095
   31       -6.2865107840      -0.0000000127     0.999970    0.00006485
   32       -6.2865107921      -0.0000000081     0.999970    0.00005196
   33       -6.2865107973      -0.0000000052     0.999970    0.00004163
   34       -6.2865108007      -0.0000000033     0.999970    0.00003336
   35       -6.2865108028      -0.0000000021     0.999970    0.00002673
   36       -6.2865108042      -0.0000000014     0.999970    0.00002142
   37       -6.2865108051      -0.0000000009     0.999970    0.00001717
   38       -6.2865108056      -0.0000000006     0.999970    0.00001376
   39       -6.2865108060      -0.0000000004     0.999970    0.00001103
   40       -6.2865108062      -0.0000000002     0.999970    0.00000884
   41       -6.2865108064      -0.0000000002     0.999970    0.00000709
   42       -6.2865108065      -0.0000000001     0.999970    0.00000569
   43       -6.2865108066      -0.0000000001     0.999970    0.00000457
   44       -6.2865108066      -0.0000000000     0.999970    0.00000366
   45       -6.2865108066      -0.0000000000     0.999970    0.00000294
   46       -6.2865108066      -0.0000000000     0.999970    0.00000236
   47       -6.2865108066      -0.0000000000     0.999970    0.00000189
   48       -6.2865108067      -0.0000000000     0.999970    0.00000152
   49       -6.2865108067      -0.0000000000     0.999970    0.00000122
   50       -6.2865108067      -0.0000000000     0.999970    0.00000098
  
--------------------------------------------------
 Final SA-REKS(2,2) energy:      -6.28651081
  
 State     Energy      FON(1)    FON(2)   Spin
  PPS   -6.41706098   1.999940  0.000060  0.00
  OSS   -6.15596063   1.000000  1.000000  0.00
 Trip   -6.23495891   1.000000  1.000000  1.00
--------------------------------------------------

 Lagrangian Wab:   0.00281559  0.00281548

--------------------------------------------------
 SSR: 2SI-2SA-REKS(2,2) Hamiltonian matrix
               PPS           OSS
   PPS    -6.41706098    0.00395996
   OSS     0.00395996   -6.15596063
--------------------------------------------------

----------------------------------------------------------------
 SSR: 2SI-2SA-REKS(2,2) states
                    E_n       C_{PPS}    C_{OSS}
 SSR state  1   -6.41712103  -0.999885   0.015161
 SSR state  2   -6.15590059  -0.015161  -0.999885
----------------------------------------------------------------

 unrelaxed SSR FONs for S0:  1.999710  0.000290

Total Energy:                       -6.4171210280 H         -174.6187 eV
Extrapolated to 0:                  -6.4171210280 H         -174.6187 eV

----------------------------------------------------------------------------------
 Solving CP-REKS equation for  1 state vector...
----------------------------------------------------------------------------------
  CG solver: Constructing Y initial guess
  CG solver: Iteration    1    eps =    0.000048894047
  CG solver: Iteration    2    eps =    0.000009212933
  CG solver: Iteration    3    eps =    0.000000350419
  CG solver: Iteration    4    eps =    0.000000073802
  CG solver: Iteration    5    eps =    0.000000004878
  Convergence reached in CG solver after    5 iterations
  CG solver: Calculating converged R, Z, Q2 matrix
----------------------------------------------------------------------------------

----------------------------------------------------------------------------------
 Solving CP-REKS equation for SI between  1 and  2 state vectors...
----------------------------------------------------------------------------------
  CG solver: Constructing Y initial guess
  CG solver: Iteration    1    eps =    0.000774616442
  CG solver: Iteration    2    eps =    0.000636275559
  CG solver: Iteration    3    eps =    0.000173650529
  CG solver: Iteration    4    eps =    0.000002144732
  CG solver: Iteration    5    eps =    0.000000292998
  CG solver: Iteration    6    eps =    0.000000005302
  Convergence reached in CG solver after    6 iterations
  CG solver: Calculating converged R, Z, Q2 matrix
----------------------------------------------------------------------------------

--------------------------------------------------
 Gradient Information
--------------------------------------------------
           1 st state (SSR)
     0.00069618     0.00151997    -0.00132839
    -0.00181022    -0.00164295    -0.00047559
    -0.00662328     0.00131889     0.00275631
    -0.00646335     0.00242826    -0.00234209
     0.00787794    -0.00060886    -0.00086235
     0.00632272    -0.00301531     0.00225211

           2 st state (SSR)
    -0.00180999    -0.00426679     0.10334814
     0.00195256     0.00386239    -0.12292947
     0.00336935    -0.01559834     0.01969743
     0.00728272     0.00747384    -0.01071661
    -0.00711428    -0.00411484    -0.00986280
    -0.00368035     0.01264374     0.02046331
--------------------------------------------------
 Coupling Information
--------------------------------------------------
 between  1 and  2 states
--------------------------------------------------
 g vector - difference gradient
     0.00124866     0.00289315    -0.05247176
    -0.00188355    -0.00274251     0.06131718
    -0.00520805     0.00850648    -0.00846736
    -0.00710081    -0.00245657     0.00420880
     0.00772465     0.00167427     0.00451597
     0.00521910    -0.00787482    -0.00910283

 h vector - derivative coupling
    -0.00016483    -0.00005150    -0.00360730
    -0.00004288     0.00037674     0.00204668
    -0.00690475     0.00144973     0.00023395
    -0.00740516     0.00222143     0.00064647
     0.00742081    -0.00262197     0.00045081
     0.00709682    -0.00137444     0.00022939

 G vector - GDV
     0.00125308     0.00289338    -0.05233826
    -0.00188139    -0.00275267     0.06122694
    -0.00499631     0.00845861    -0.00847056
    -0.00687303    -0.00252279     0.00418726
     0.00749611     0.00175299     0.00450022
     0.00500154    -0.00782952    -0.00910560

 H vector - DCV - non-adiabatic coupling
    -0.00048578     0.00013875    -0.01989325
    -0.00038269     0.00112326     0.01494831
    -0.02702500     0.00653460    -0.00008757
    -0.02915946     0.00821501     0.00296217
     0.02929172    -0.00983843     0.00224912
     0.02776121    -0.00617319    -0.00017878
--------------------------------------------------


--------------------------------------------------------------------------------
DFTB+ running times                          cpu [s]             wall clock [s]
--------------------------------------------------------------------------------
SCC                                    +     0.02  ( 63.7%)      0.02  ( 60.7%)
--------------------------------------------------------------------------------
Missing                                +     0.01  ( 36.3%)      0.01  ( 39.3%)
Total                                  =     0.02  (100.0%)      0.03  (100.0%)
--------------------------------------------------------------------------------
