|===============================================================================
|
|  DFTB+ release 20.1
|
|  Copyright (C) 2006 - 2020  DFTB+ developers group
|
|===============================================================================
|
|  When publishing results obtained with DFTB+, please cite the following
|  reference:
|
|  * DFTB+, a software package for efficient approximate density functional
|    theory based atomistic simulations, J. Chem. Phys. 152, 124101 (2020).
|    [doi: 10.1063/1.5143190]
|
|  You should also cite additional publications crediting the parametrization
|  data you use. Please consult the documentation of the SK-files for the
|  references.
|
|===============================================================================

Reading input file 'dftb_in.hsd'
Parser version: 8

--------------------------------------------------------------------------------
Reading SK-files:
Done.


Processed input in HSD format written to 'dftb_pin.hsd'

Starting initialization...
--------------------------------------------------------------------------------
OpenMP threads:              1
Chosen random seed:          507637428
Mode:                        Static calculation
Self consistent charges:     Yes
SCC-tolerance:                 0.100000E-05
Max. scc iterations:                   1000
Shell resolved Hubbard:      No
Spin polarisation:           No
Nr. of up electrons:             6.000000
Nr. of down electrons:           6.000000
Periodic boundaries:         No
Electronic solver:           Relatively robust
Maximal SCC-cycles:                    1000
Initial charges:             Set automatically (system chrg:   0.100E+01)
Included shells:             C:  s, p
                             N:  s, p
                             H:  s
Spin coupling constants:     C   1(s)-1(s):  -0.455900E-01
                             C   1(s)-2(p):  -0.293000E-01
                             C   2(p)-1(s):  -0.293000E-01
                             C   2(p)-2(p):  -0.275500E-01
                             N   1(s)-1(s):  -0.468700E-01
                             N   1(s)-2(p):  -0.317000E-01
                             N   2(p)-1(s):  -0.317000E-01
                             N   2(p)-2(p):  -0.307200E-01
                             H   1(s)-1(s):  -0.792500E-01
Range separated hybrid:      Yes
  Screening parameter omega:   0.300000E+00
  Range separated algorithm:   MatrixBased
Extra options:
                             Mulliken analysis
                             Force calculation
Force type                   original
                             Eigenvector printing


REKS Calcuation:             Yes
SSR(2,2) Calcuation:         Yes
Energy Functional:           (PPS+OSS)/2
Number of Core Orbitals:                  5
Number of Active Orbitals:                2
Number of Basis:                         12
Number of States:                         2
State-Averaging Weight:          0.500000
                                 0.500000
State of Interest:                        1
Initial Guess:               Diagonalize H0 matrix
Newton-Raphson for FON opt:  Yes
NR max. Iterations:                      50
Level Shifting:              Yes
Shift Value:                     0.300000
W Scale Factor:              C  =    3.000000
                             N  =    3.000000
                             H  =    3.000000
Transition Dipole:           No
Gradient of Microstate:      No
CP-REKS Solver:              Preconditioned Conjugate-Gradient
CG max. Iterations:                     100
CG Tolerance:                  0.100000E-07
Memory for A and Hxc:        Direct Updating Without Saving
Non-Adiabatic Coupling:      Yes

--------------------------------------------------------------------------------

***  Geometry step: 0

  iSCC       reks energy        Diff energy         x_a       SCC error   
    1       -6.2656606499       0.0000000000     0.999523    1.18039766
    2       -6.2767846966      -0.0111240467     0.999780    0.08208423
    3       -6.2807148590      -0.0039301625     0.999871    0.03379376
    4       -6.2828848675      -0.0021700085     0.999913    0.01613166
    5       -6.2841948826      -0.0013100151     0.999934    0.00875871
    6       -6.2849992597      -0.0008043771     0.999945    0.00791861
    7       -6.2854899640      -0.0004907043     0.999952    0.00675667
    8       -6.2857855839      -0.0002956199     0.999956    0.00554848
    9       -6.2859616208      -0.0001760369     0.999958    0.00443704
   10       -6.2860655667      -0.0001039459     0.999959    0.00348243
   11       -6.2861266407      -0.0000610740     0.999960    0.00269710
   12       -6.2861624588      -0.0000358181     0.999960    0.00206921
   13       -6.2861834802      -0.0000210214     0.999961    0.00157692
   14       -6.2861958515      -0.0000123713     0.999961    0.00119618
   15       -6.2862031634      -0.0000073119     0.999961    0.00095437
   16       -6.2862075083      -0.0000043449     0.999961    0.00077289
   17       -6.2862101059      -0.0000025977     0.999961    0.00062566
   18       -6.2862116691      -0.0000015632     0.999961    0.00050623
   19       -6.2862126160      -0.0000009469     0.999961    0.00040936
   20       -6.2862131934      -0.0000005773     0.999961    0.00033084
   21       -6.2862135476      -0.0000003542     0.999961    0.00026721
   22       -6.2862137662      -0.0000002186     0.999961    0.00021569
   23       -6.2862139018      -0.0000001356     0.999961    0.00017400
   24       -6.2862139863      -0.0000000845     0.999961    0.00014029
   25       -6.2862140393      -0.0000000529     0.999961    0.00011305
   26       -6.2862140725      -0.0000000333     0.999961    0.00009106
   27       -6.2862140935      -0.0000000210     0.999961    0.00007331
   28       -6.2862141068      -0.0000000133     0.999961    0.00005899
   29       -6.2862141152      -0.0000000084     0.999961    0.00004745
   30       -6.2862141205      -0.0000000053     0.999961    0.00003816
   31       -6.2862141239      -0.0000000034     0.999961    0.00003067
   32       -6.2862141261      -0.0000000022     0.999961    0.00002465
   33       -6.2862141275      -0.0000000014     0.999961    0.00001981
   34       -6.2862141284      -0.0000000009     0.999961    0.00001596
   35       -6.2862141289      -0.0000000006     0.999961    0.00001286
   36       -6.2862141293      -0.0000000004     0.999961    0.00001036
   37       -6.2862141295      -0.0000000002     0.999961    0.00000834
   38       -6.2862141297      -0.0000000001     0.999961    0.00000671
   39       -6.2862141298      -0.0000000001     0.999961    0.00000540
   40       -6.2862141298      -0.0000000001     0.999961    0.00000434
   41       -6.2862141299      -0.0000000000     0.999961    0.00000349
   42       -6.2862141299      -0.0000000000     0.999961    0.00000280
   43       -6.2862141299      -0.0000000000     0.999961    0.00000225
   44       -6.2862141299      -0.0000000000     0.999961    0.00000181
   45       -6.2862141299      -0.0000000000     0.999961    0.00000145
   46       -6.2862141299      -0.0000000000     0.999961    0.00000117
   47       -6.2862141299      -0.0000000000     0.999961    0.00000094
  
--------------------------------------------------
 Final SA-REKS(2,2) energy:      -6.28621413
  
 State     Energy      FON(1)    FON(2)   Spin
  PPS   -6.41132132   1.999921  0.000079  0.00
  OSS   -6.16110694   1.000000  1.000000  0.00
 Trip   -6.23974743   1.000000  1.000000  1.00
--------------------------------------------------

 Lagrangian Wab:   0.00235953  0.00235943

--------------------------------------------------
 SSR: 2SI-2SA-REKS(2,2) Hamiltonian matrix
               PPS           OSS
   PPS    -6.41132132    0.00331589
   OSS     0.00331589   -6.16110694
--------------------------------------------------

----------------------------------------------------------------
 SSR: 2SI-2SA-REKS(2,2) states
                    E_n       C_{PPS}    C_{OSS}
 SSR state  1   -6.41136526  -0.999912   0.013249
 SSR state  2   -6.16106300  -0.013249  -0.999912
----------------------------------------------------------------

 unrelaxed SSR FONs for S0:  1.999746  0.000254

Total Energy:                       -6.4113652561 H         -174.4621 eV
Extrapolated to 0:                  -6.4113652561 H         -174.4621 eV

----------------------------------------------------------------------------------
 Solving CP-REKS equation for  1 state vector...
----------------------------------------------------------------------------------
  CG solver: Constructing Y initial guess
  CG solver: Iteration    1    eps =    0.000044856876
  CG solver: Iteration    2    eps =    0.000007449003
  CG solver: Iteration    3    eps =    0.000000494650
  CG solver: Iteration    4    eps =    0.000000057874
  CG solver: Iteration    5    eps =    0.000000010879
  CG solver: Iteration    6    eps =    0.000000000374
  Convergence reached in CG solver after    6 iterations
  CG solver: Calculating converged R, Z, Q2 matrix
----------------------------------------------------------------------------------

----------------------------------------------------------------------------------
 Solving CP-REKS equation for SI between  1 and  2 state vectors...
----------------------------------------------------------------------------------
  CG solver: Constructing Y initial guess
  CG solver: Iteration    1    eps =    0.000784583002
  CG solver: Iteration    2    eps =    0.000660678536
  CG solver: Iteration    3    eps =    0.000140016991
  CG solver: Iteration    4    eps =    0.000002526520
  CG solver: Iteration    5    eps =    0.000000397195
  CG solver: Iteration    6    eps =    0.000000017745
  CG solver: Iteration    7    eps =    0.000000000336
  Convergence reached in CG solver after    7 iterations
  CG solver: Calculating converged R, Z, Q2 matrix
----------------------------------------------------------------------------------

--------------------------------------------------
 Gradient Information
--------------------------------------------------
           1 st state (SSR)
     0.01372132    -0.01420255     0.01246210
    -0.00726061     0.03293413     0.00247499
     0.00095159     0.00716152    -0.01256306
    -0.00289283    -0.01694460    -0.00010647
     0.00162183    -0.00546830    -0.00136588
    -0.00614129    -0.00348020    -0.00090169

           2 st state (SSR)
    -0.00241755     0.01111942     0.10353183
    -0.01132603    -0.01962397    -0.11245619
    -0.00579301    -0.00691559     0.00736702
    -0.00440178     0.01101344    -0.00563676
     0.01084016     0.00254736    -0.00962742
     0.01309821     0.00185934     0.01682152
--------------------------------------------------
 Coupling Information
--------------------------------------------------
 between  1 and  2 states
--------------------------------------------------
 g vector - difference gradient
     0.00789935    -0.01260350    -0.04562421
     0.00230757     0.02636572     0.05752657
     0.00342094     0.00720169    -0.00995627
     0.00064095    -0.01420508     0.00273581
    -0.00469358    -0.00384819     0.00418388
    -0.00957522    -0.00291064    -0.00886578

 h vector - derivative coupling
    -0.00652433     0.00233663    -0.00276752
     0.01034343     0.00292177     0.00153922
     0.00179031     0.00606182     0.00046303
    -0.00429320    -0.00834404    -0.00114354
    -0.00312393     0.00607620     0.00194897
     0.00180773    -0.00905238    -0.00004015

 G vector - GDV
     0.00806944    -0.01266099    -0.04553487
     0.00203271     0.02627905     0.05746559
     0.00337230     0.00703856    -0.00996504
     0.00075447    -0.01397902     0.00276515
    -0.00460917    -0.00400783     0.00413077
    -0.00961975    -0.00266977    -0.00886160

 H vector - DCV - non-adiabatic coupling
    -0.02522049     0.00799783    -0.01588227
     0.04155350     0.01445974     0.01223661
     0.00751218     0.02497183     0.00079532
    -0.01707821    -0.03482779    -0.00427743
    -0.01297308     0.02385960     0.00822660
     0.00620611    -0.03646120    -0.00109882
--------------------------------------------------


--------------------------------------------------------------------------------
DFTB+ running times                          cpu [s]             wall clock [s]
--------------------------------------------------------------------------------
SCC                                    +     0.02  ( 66.5%)      0.02  ( 61.5%)
Post-SCC processing                    +     0.01  ( 29.1%)      0.01  ( 28.2%)
  Force calculation                          0.01  ( 28.4%)      0.01  ( 25.6%)
--------------------------------------------------------------------------------
Missing                                +     0.00  (  4.3%)      0.00  ( 10.3%)
Total                                  =     0.03  (100.0%)      0.04  (100.0%)
--------------------------------------------------------------------------------
