     6
  Step:     0            Position(A)                                  Velocity(au)
C        -0.03879169     0.00379290     0.00219255    -0.00001241     0.00005391    -0.00012663
N        -0.03844972    -0.04882718     1.30805510    -0.00015315    -0.00012523     0.00007629
H         0.90564305     0.06739049    -0.49863160     0.00009384    -0.00005304     0.00038439
H         0.82439382    -0.09436668     1.88160906     0.00102437     0.00049866     0.00090531
H        -0.93752596    -0.12494636     1.82263941     0.00146964     0.00064733    -0.00033930
H        -1.00889402     0.11546785    -0.51689605    -0.00031179     0.00000479    -0.00050152
     6
  Step:     1            Position(A)                                  Velocity(au)
C        -0.03888121     0.00409041     0.00118608    -0.00002061     0.00005481    -0.00024057
N        -0.03929570    -0.04953078     1.30875604    -0.00015386    -0.00013210     0.00017921
H         0.90640909     0.06718275    -0.49673138     0.00018746    -0.00002217     0.00030952
H         0.83001872    -0.09159283     1.88653496     0.00101828     0.00051687     0.00088600
H        -0.92946525    -0.12135382     1.82081420     0.00145884     0.00066563    -0.00031797
H        -1.01052314     0.11554091    -0.51964378    -0.00028095     0.00002207    -0.00050128
     6
  Step:     2            Position(A)                                  Velocity(au)
C        -0.03901713     0.00439252    -0.00043902    -0.00002925     0.00005558    -0.00035218
N        -0.04013280    -0.05027221     1.31001553    -0.00014985    -0.00013896     0.00027984
H         0.90769372     0.06714796    -0.49524572     0.00028236     0.00000991     0.00023333
H         0.83553282    -0.08871257     1.89130109     0.00098471     0.00053696     0.00084756
H        -0.92156765    -0.11766499     1.81916116     0.00140855     0.00068218    -0.00027552
H        -1.01196735     0.11570931    -0.52237957    -0.00024475     0.00003949    -0.00049745
     6
  Step:     3            Position(A)                                  Velocity(au)
C        -0.03920119     0.00469854    -0.00266718    -0.00003805     0.00005621    -0.00046021
N        -0.04093527    -0.05105111     1.31181784    -0.00014116    -0.00014564     0.00037685
H         0.90949841     0.06729118    -0.49417853     0.00037629     0.00004261     0.00015701
H         0.84079254    -0.08571792     1.89580818     0.00092601     0.00055790     0.00079185
H        -0.91405409    -0.11388996     1.81779967     0.00131713     0.00069660    -0.00021087
H        -1.01320096     0.11597303    -0.52508644    -0.00020448     0.00005677    -0.00049082
     6
  Step:     4            Position(A)                                  Velocity(au)
C        -0.03943362     0.00500780    -0.00547616    -0.00004675     0.00005670    -0.00056332
N        -0.04167780    -0.05186626     1.31414026    -0.00012792    -0.00015199     0.00046888
H         0.91181232     0.06761436    -0.49352718     0.00046690     0.00007537     0.00008180
H         0.84566827    -0.08260616     1.89996810     0.00084495     0.00057874     0.00072106
H        -0.90715132    -0.11004055     1.81685318     0.00118425     0.00070857    -0.00012378
H        -1.01420542     0.11633069    -0.52775177    -0.00016148     0.00007367    -0.00048213
     6
  Step:     5            Position(A)                                  Velocity(au)
C        -0.03971315     0.00531948    -0.00883668    -0.00005503     0.00005699    -0.00066010
N        -0.04233626    -0.05271565     1.31695301    -0.00011046    -0.00015784     0.00055458
H         0.91461191     0.06811663    -0.49328262     0.00055180     0.00010766     0.00000887
H         0.85004642    -0.07937960     1.90370520     0.00074468     0.00059852     0.00063761
H        -0.90108419    -0.10612967     1.81644403     0.00101139     0.00071795    -0.00001522
H        -1.01496947     0.11677988    -0.53036677    -0.00011712     0.00009002    -0.00047200
     6
  Step:     6            Position(A)                                  Velocity(au)
C        -0.04003690     0.00563253    -0.01271200    -0.00006262     0.00005705    -0.00074908
N        -0.04288864    -0.05359644     1.32021940    -0.00008928    -0.00016304     0.00063262
H         0.91786103     0.06879452    -0.49342997     0.00062866     0.00013900    -0.00006073
H         0.85383125    -0.07604533     1.90695745     0.00062872     0.00061637     0.00054417
H        -0.89606474    -0.10217060     1.81668640     0.00080224     0.00072466     0.00011246
H        -1.01548930     0.11731744    -0.53292576    -0.00007283     0.00010567    -0.00046096
     6
  Step:     7            Position(A)                                  Velocity(au)
C        -0.04040041     0.00594565    -0.01705780    -0.00006921     0.00005682    -0.00082878
N        -0.04331609    -0.05450502     1.32389608    -0.00006508    -0.00016745     0.00070180
H         0.92151144     0.06964221    -0.49394915     0.00069529     0.00016894    -0.00012607
H         0.85694660    -0.07261493     1.90967751     0.00050095     0.00063146     0.00044361
H        -0.89227962    -0.09817654     1.81767830     0.00056294     0.00072873     0.00025536
H        -1.01576875     0.11793967    -0.53542577    -0.00003007     0.00012054    -0.00044950
     6
  Step:     8            Position(A)                                  Velocity(au)
C        -0.04079767     0.00625716    -0.02182210    -0.00007453     0.00005624    -0.00089780
N        -0.04360406    -0.05543704     1.32793372    -0.00003879    -0.00017092     0.00076105
H         0.92550372     0.07065157    -0.49481580     0.00074974     0.00019704    -0.00018640
H         0.85933778    -0.06910425     1.91183374     0.00036564     0.00064303     0.00033903
H        -0.88987680    -0.09416028     1.81949334     0.00030205     0.00073023     0.00040812
H        -1.01581983     0.11864247    -0.53786675     0.00000963     0.00013454    -0.00043816
     6
  Step:     9            Position(A)                                  Velocity(au)
C        -0.04122121     0.00656509    -0.02694568    -0.00007832     0.00005526    -0.00095488
N        -0.04374331    -0.05638743     1.33227780    -0.00001148    -0.00017334     0.00080950
H         0.92976861     0.07181225    -0.49600206     0.00079040     0.00022286    -0.00024108
H         0.86097355    -0.06553295     1.91341133     0.00022740     0.00065046     0.00023368
H        -0.88895298    -0.09013421     1.82217314     0.00003021     0.00072922     0.00056420
H        -1.01566269     0.11942146    -0.54025135     0.00004480     0.00014761    -0.00042738
     6
  Step:    10            Position(A)                                  Velocity(au)
C        -0.04166227     0.00686718    -0.03236284    -0.00008040     0.00005384    -0.00099900
N        -0.04373080    -0.05735047     1.33686962     0.00001564    -0.00017460     0.00084656
H         0.93422875     0.07311169    -0.49747708     0.00081607     0.00024602    -0.00028958
H         0.86184802    -0.06192394     1.91441324     0.00009111     0.00065327     0.00013096
H        -0.88954332    -0.08611061     1.82572147    -0.00024055     0.00072573     0.00071631
H        -1.01532526     0.12027190    -0.54258449     0.00007411     0.00015968    -0.00041757
     6
  Step:    11            Position(A)                                  Velocity(au)
C        -0.04211112     0.00716097    -0.03800265    -0.00008064     0.00005196    -0.00102957
N        -0.04357023    -0.05831993     1.34164756     0.00004133    -0.00017466     0.00087199
H         0.93880083     0.07453525    -0.49920718     0.00082606     0.00026619    -0.00033139
H         0.86198200    -0.05830251     1.91486083    -0.00003825     0.00065125     0.00003428
H        -0.89161538    -0.08210187     1.83010129    -0.00049776     0.00071980     0.00085711
H        -1.01484240     0.12118875    -0.54487302     0.00009646     0.00017070    -0.00040908
     6
  Step:    12            Position(A)                                  Velocity(au)
C        -0.04255743     0.00744392    -0.04379129    -0.00013768     0.00008649    -0.00182380
N        -0.04327198    -0.05928926     1.34654898     0.00011232    -0.00030239     0.00154403
H         0.94339825     0.07606649    -0.50115564     0.00142952     0.00049341    -0.00063783
H         0.86142344    -0.05469491     1.91479371    -0.00027167     0.00112313    -0.00009269
H        -0.89506860    -0.07812062     1.83523557    -0.00127173     0.00123997     0.00170774
H        -1.01425456     0.12216671    -0.54712538     0.00019354     0.00031485    -0.00070092
     6
  Step:    13            Position(A)                                  Velocity(au)
C        -0.04331476     0.00790053    -0.05364381    -0.00012985     0.00007529    -0.00166521
N        -0.04259067    -0.06093784     1.35492522     0.00012647    -0.00028182     0.00142198
H         0.95155435     0.07882536    -0.50508069     0.00144980     0.00048325    -0.00074363
H         0.85964653    -0.04854062     1.91409813    -0.00034558     0.00105737    -0.00014414
H        -0.90273596    -0.07138366     1.84504483    -0.00141809     0.00114960     0.00175120
H        -1.01341023     0.12398396    -0.55130924     0.00010365     0.00032881    -0.00078094
     6
  Step:    14            Position(A)                                  Velocity(au)
C        -0.04402454     0.00829455    -0.06260583    -0.00011938     0.00006355    -0.00148996
N        -0.04184309    -0.06247344     1.36261539     0.00013397    -0.00025899     0.00128508
H         0.95977897     0.08152649    -0.50955758     0.00143470     0.00046676    -0.00082256
H         0.85751887    -0.04274814     1.91316510    -0.00039070     0.00098233    -0.00017481
H        -0.91109099    -0.06513178     1.85502169    -0.00149513     0.00105374     0.00174408
H        -1.01308348     0.12588177    -0.55594887     0.00001183     0.00033876    -0.00085015
     6
  Step:    15            Position(A)                                  Velocity(au)
C        -0.04467264     0.00862336    -0.07059175    -0.00010789     0.00005220    -0.00131766
N        -0.04106677    -0.06388375     1.36954276     0.00013619    -0.00023685     0.00114995
H         0.96787374     0.08413462    -0.51443710     0.00139918     0.00044881    -0.00088244
H         0.85520239    -0.03736677     1.91210970    -0.00041103     0.00090949    -0.00018724
H        -0.91974277    -0.05939754     1.86488335    -0.00151818     0.00096326     0.00170522
H        -1.01327565     0.12783733    -0.56097958    -0.00007695     0.00034764    -0.00091416
     6
  Step:    16            Position(A)                                  Velocity(au)
C        -0.04525408     0.00888943    -0.07762242    -0.00009657     0.00004174    -0.00116050
N        -0.04029103    -0.06517265     1.37572062     0.00013462    -0.00021736     0.00102711
H         0.97572458     0.08664129    -0.51961416     0.00135601     0.00043315    -0.00093203
H         0.85283458    -0.03238326     1.91103126    -0.00041160     0.00084669    -0.00018473
H        -0.92839276    -0.05415409     1.87445503    -0.00150400     0.00088501     0.00165150
H        -1.01396042     0.12984357    -0.56636697    -0.00016042     0.00035805    -0.00097917
     6
  Step:    17            Position(A)                                  Velocity(au)
C        -0.04577044     0.00909792    -0.08378436    -0.00001766     0.00000663    -0.00021007
N        -0.03953644    -0.06635465     1.38121902     0.00002677    -0.00004134     0.00018907
H         0.98328887     0.08905873    -0.52503250     0.00026959     0.00008662    -0.00020089
H         0.85052328    -0.02774159     1.91000971    -0.00008141     0.00016378    -0.00003491
H        -0.93684030    -0.04933674     1.88365766    -0.00030085     0.00016869     0.00032726
H        -1.01509934     0.13190769    -0.57211084    -0.00004888     0.00007634    -0.00021561
     6
  Step:    18            Position(A)                                  Velocity(au)
C        -0.04583907     0.00912990    -0.08498748    -0.00000701     0.00000484    -0.00021939
N        -0.03938932    -0.06659224     1.38230132     0.00002538    -0.00004351     0.00019728
H         0.98452755     0.08958002    -0.52613852     0.00017369     0.00009924    -0.00019380
H         0.85005651    -0.02679968     1.90979755    -0.00008315     0.00017276    -0.00003937
H        -0.93854211    -0.04834951     1.88551022    -0.00030304     0.00018372     0.00033229
H        -1.01539608     0.13237759    -0.57334878    -0.00005664     0.00009122    -0.00022627
     6
  Step:    19            Position(A)                                  Velocity(au)
C        -0.04584888     0.00915206    -0.08623997     0.00000332     0.00000315    -0.00023028
N        -0.03925241    -0.06684163     1.38342712     0.00002341    -0.00004607     0.00020692
H         0.98523294     0.09016946    -0.52720166     0.00008066     0.00011232    -0.00018798
H         0.84959264    -0.02580790     1.90956906    -0.00008134     0.00018366    -0.00004124
H        -0.94023217    -0.04728044     1.88737692    -0.00030029     0.00020020     0.00033623
H        -1.01573331     0.13292867    -0.57464339    -0.00006392     0.00010652    -0.00023846
     6
  Step:    20            Position(A)                                  Velocity(au)
C        -0.04580212     0.00916497    -0.08755023     0.00001335     0.00000152    -0.00024194
N        -0.03912879    -0.06710499     1.38460415     0.00002078    -0.00004890     0.00021731
H         0.98542515     0.09082997    -0.52823050    -0.00001011     0.00012579    -0.00018312
H         0.84915129    -0.02475575     1.90933859    -0.00007570     0.00019591    -0.00004043
H        -0.94188397    -0.04612151     1.88925213    -0.00029176     0.00021765     0.00033803
H        -1.01610745     0.13356299    -0.57600257    -0.00007029     0.00012202    -0.00025128
     6
  Step:    21            Position(A)                                  Velocity(au)
C        -0.04570090     0.00916892    -0.08892236     0.00002301    -0.00000009    -0.00025386
N        -0.03902199    -0.06738375     1.38583641     0.00001747    -0.00005189     0.00022798
H         0.98512079     0.09156411    -0.52923188    -0.00009830     0.00013965    -0.00017924
H         0.84875336    -0.02363587     1.90912085    -0.00006613     0.00020914    -0.00003689
H        -0.94346691    -0.04486737     1.89112457    -0.00027716     0.00023575     0.00033711
H        -1.01651258     0.13428147    -0.57742928    -0.00007536     0.00013754    -0.00026408
     6
  Step:    22            Position(A)                                  Velocity(au)
C        -0.04554763     0.00916401    -0.09035757     0.00003222    -0.00000169    -0.00026567
N        -0.03893564    -0.06767881     1.38712533     0.00001347    -0.00005499     0.00023863
H         0.98433810     0.09237430    -0.53021266    -0.00018310     0.00015391    -0.00017653
H         0.84842000    -0.02244297     1.90893058    -0.00005270     0.00022309    -0.00003069
H        -0.94494904    -0.04351442     1.89298010    -0.00025658     0.00025430     0.00033328
H        -1.01694078     0.13508399    -0.57892299    -0.00007879     0.00015292    -0.00027642
     6
  Step:    23            Position(A)                                  Velocity(au)
C        -0.04534524     0.00915026    -0.09185519     0.00004085    -0.00000330    -0.00027716
N        -0.03887324    -0.06799075     1.38847076     0.00000886    -0.00005815     0.00024908
H         0.98309953     0.09326312    -0.53118071    -0.00026350     0.00016863    -0.00017531
H         0.84817159    -0.02117312     1.90878203    -0.00003566     0.00023761    -0.00002196
H        -0.94629935    -0.04206009     1.89480378    -0.00023042     0.00027320     0.00032662
H        -1.01738239     0.13596960    -0.58048082    -0.00008033     0.00016805    -0.00028800
     6
  Step:    24            Position(A)                                  Velocity(au)
C        -0.04509724     0.00912759    -0.09341328     0.00004880    -0.00000494    -0.00028815
N        -0.03883797    -0.06831997     1.38987147     0.00000370    -0.00006137     0.00025919
H         0.98143296     0.09423352    -0.53214550    -0.00033842     0.00018393    -0.00017593
H         0.84802679    -0.01982331     1.90868845    -0.00001541     0.00025257    -0.00001092
H        -0.94748941    -0.04050238     1.89658119    -0.00019930     0.00029240     0.00031737
H        -1.01782641     0.13693671    -0.58209823    -0.00007975     0.00018282    -0.00029859
     6
  Step:    25            Position(A)                                  Velocity(au)
C        -0.04480778     0.00909587    -0.09502903     0.00005594    -0.00000660    -0.00029854
N        -0.03883250    -0.06866676     1.39132554    -0.00000191    -0.00006463     0.00026887
H         0.97937204     0.09528895    -0.53311843    -0.00040675     0.00019989    -0.00017875
H         0.84800182    -0.01839124     1.90866173     0.00000754     0.00026787     0.00000213
H        -0.94849450    -0.03883949     1.89829946    -0.00016401     0.00031190     0.00030589
H        -1.01826078     0.13798322    -0.58376959    -0.00007690     0.00019716    -0.00030804
     6
  Step:    26            Position(A)                                  Velocity(au)
C        -0.04448156     0.00905490    -0.09669902     0.00006218    -0.00000831    -0.00030824
N        -0.03885894    -0.06903129     1.39283057    -0.00000784    -0.00006792     0.00027806
H         0.97695629     0.09643349    -0.53411279    -0.00046744     0.00021665    -0.00018415
H         0.84810974    -0.01687514     1.90871195     0.00003256     0.00028344     0.00001686
H        -0.94929453    -0.03706964     1.89994782    -0.00012547     0.00033173     0.00029263
H        -1.01867279     0.13910662    -0.58548852    -0.00007170     0.00021101    -0.00031627
     6
  Step:    27            Position(A)                                  Velocity(au)
C        -0.04412383     0.00900443    -0.09841934     0.00006743    -0.00001007    -0.00031718
N        -0.03891873    -0.06941374     1.39438384    -0.00001398    -0.00007122     0.00028671
H         0.97423079     0.09767185    -0.53514384    -0.00051947     0.00023433    -0.00019246
H         0.84835996    -0.01527374     1.90884712     0.00005895     0.00029918     0.00003284
H        -0.94987452    -0.03519088     1.90151805    -0.00008465     0.00035192     0.00027808
H        -1.01904935     0.14030406    -0.58724819    -0.00006409     0.00022431    -0.00032320
     6
  Step:    28            Position(A)                                  Velocity(au)
C        -0.04374031     0.00894416    -0.10018572     0.00007160    -0.00001190    -0.00032529
N        -0.03901259    -0.06981422     1.39598238    -0.00002018    -0.00007455     0.00029480
H         0.97124576     0.09900946    -0.53622854    -0.00056197     0.00025305    -0.00020400
H         0.84875779    -0.01358627     1.90907294     0.00008594     0.00031501     0.00004965
H        -0.95022510    -0.03320098     1.90300474    -0.00004260     0.00037255     0.00026278
H        -1.01937734     0.14157243    -0.58904150    -0.00005411     0.00023702    -0.00032883
     6
  Step:    29            Position(A)                                  Velocity(au)
C        -0.04333711     0.00887372    -0.10199362     0.00007463    -0.00001379    -0.00033255
N        -0.03914047    -0.07023284     1.39762306    -0.00002631    -0.00007788     0.00030230
H         0.96805597     0.10045239    -0.53738541    -0.00059415     0.00027295    -0.00021902
H         0.84930421    -0.01181241     1.90939264     0.00011271     0.00033085     0.00006683
H        -0.95034266    -0.03109737     1.90440540    -0.00000039     0.00039368     0.00024726
H        -1.01964394     0.14290841    -0.59086136    -0.00004184     0.00024911    -0.00033317
     6
  Step:    30            Position(A)                                  Velocity(au)
C        -0.04292062     0.00879273    -0.10383829     0.00007647    -0.00001576    -0.00033892
N        -0.03930157    -0.07066967     1.39930264    -0.00003223    -0.00008124     0.00030918
H         0.96471995     0.10200742    -0.53863416    -0.00061540     0.00029414    -0.00023771
H         0.84999571    -0.00995236     1.90980692     0.00013845     0.00034660     0.00008391
H        -0.95022943    -0.02887703     1.90572057     0.00004091     0.00041540     0.00023210
H        -1.01983695     0.14430851    -0.59270084    -0.00002743     0.00026055    -0.00033626
     6
  Step:    31            Position(A)                                  Velocity(au)
C        -0.04249745     0.00870071    -0.10571479     0.00007711    -0.00001782    -0.00034436
N        -0.03949430    -0.07112482     1.40101777    -0.00003779    -0.00008461     0.00031545
H         0.96129908     0.10368191    -0.53999535    -0.00062530     0.00031672    -0.00026018
H         0.85082432    -0.00800681     1.91031398     0.00016236     0.00036218     0.00010046
H        -0.94989344    -0.02653645     1.90695378     0.00008028     0.00043780     0.00021782
H        -1.01994509     0.14576916    -0.59455333    -0.00001106     0.00027133    -0.00033817
     6
  Step:    32            Position(A)                                  Velocity(au)
C        -0.04207426     0.00859717    -0.10761811     0.00007653    -0.00001997    -0.00034888
N        -0.03971634    -0.07159835     1.40276504    -0.00004287    -0.00008799     0.00032108
H         0.95785651     0.10548378    -0.54148991    -0.00062361     0.00034079    -0.00028646
H         0.85177781    -0.00597699     1.91090960     0.00018369     0.00037748     0.00011604
H        -0.94934830    -0.02407158     1.90811145     0.00011670     0.00046100     0.00020495
H        -1.01995830     0.14728669    -0.59641270     0.00000702     0.00028144    -0.00033902
     6
  Step:    33            Position(A)                                  Velocity(au)
C        -0.04165769     0.00848156    -0.10954317     0.00007475    -0.00002223    -0.00035247
N        -0.03996471    -0.07209035     1.40454102    -0.00004735    -0.00009139     0.00032607
H         0.95445607     0.10742143    -0.54313873    -0.00061034     0.00036642    -0.00031649
H         0.85283994    -0.00386460     1.91158736     0.00020174     0.00039243     0.00013028
H        -0.94861283    -0.02147781     1.90920267     0.00014928     0.00048509     0.00019393
H        -1.01986803     0.14885744    -0.59827342     0.00002651     0.00029088    -0.00033891
     6
  Step:    34            Position(A)                                  Velocity(au)
C        -0.04125419     0.00835331    -0.11148488     0.00007183    -0.00002459    -0.00035513
N        -0.04023577    -0.07260092     1.40634224    -0.00005112    -0.00009480     0.00033043
H         0.95116081     0.10950359    -0.54496200    -0.00058575     0.00039367    -0.00035010
H         0.85399098    -0.00167185     1.91233886     0.00021592     0.00040693     0.00014284
H        -0.94771061    -0.01874990     1.91023898     0.00017720     0.00051019     0.00018520
H        -1.01966743     0.15047779    -0.60013065     0.00004709     0.00029967    -0.00033798
     6
  Step:    35            Position(A)                                  Velocity(au)
C        -0.04086988     0.00821182    -0.11343825     0.00006783    -0.00002707    -0.00035689
N        -0.04052538    -0.07313015     1.40816522    -0.00005410    -0.00009824     0.00033416
H         0.94803156     0.11173920    -0.54697866    -0.00055039     0.00042255    -0.00038700
H         0.85520819     0.00059861     1.91315407     0.00022575     0.00042091     0.00015346
H        -0.94666933    -0.01588201     1.91123394     0.00019976     0.00053642     0.00017909
H        -1.01935160     0.15214424    -0.60198034     0.00006836     0.00030783    -0.00033638
     6
  Step:    36            Position(A)                                  Velocity(au)
C        -0.04051040     0.00805646    -0.11539844     0.00006285    -0.00002966    -0.00035778
N        -0.04082897    -0.07367818     1.41000652    -0.00005621    -0.00010170     0.00033725
H         0.94512533     0.11413720    -0.54920571    -0.00050509     0.00045305    -0.00042676
H         0.85646654     0.00294377     1.91402164     0.00023087     0.00043431     0.00016192
H        -0.94552007    -0.01286768     1.91220281     0.00021643     0.00056387     0.00017586
H        -1.01891776     0.15385343    -0.60381931     0.00008996     0.00031541    -0.00033428
     6
  Step:    37            Position(A)                                  Velocity(au)
C        -0.04018078     0.00788663    -0.11736082     0.00005703    -0.00003236    -0.00035784
N        -0.04114166    -0.07424514     1.41186274    -0.00005742    -0.00010518     0.00033973
H         0.94249382     0.11670636    -0.55165757    -0.00045096     0.00048512    -0.00046887
H         0.85773935     0.00536030     1.91492933     0.00023103     0.00044709     0.00016810
H        -0.94429646    -0.00969988     1.91316204     0.00022682     0.00059265     0.00017570
H        -1.01836535     0.15560227    -0.60564526     0.00011144     0.00032244    -0.00033184
     6
  Step:    38            Position(A)                                  Velocity(au)
C        -0.03988528     0.00770170    -0.11932103     0.00005050    -0.00003517    -0.00035713
N        -0.04145836    -0.07483119     1.41373055    -0.00005769    -0.00010870     0.00034159
H         0.94018194     0.11945501    -0.55434543    -0.00038935     0.00051865    -0.00051269
H         0.85899910     0.00784469     1.91586435     0.00022616     0.00045921     0.00017194
H        -0.94303370    -0.00637109     1.91412882     0.00023073     0.00062284     0.00017868
H        -1.01769617     0.15738797    -0.60745687     0.00013239     0.00032899    -0.00032923
     6
  Step:    39            Position(A)                                  Velocity(au)
C        -0.03962729     0.00750111    -0.12127507     0.00004344    -0.00003809    -0.00035573
N        -0.04177397    -0.07543654     1.41560669    -0.00005704    -0.00011226     0.00034288
H         0.93822649     0.12239082    -0.55727671    -0.00032183     0.00055349    -0.00055747
H         0.86021816     0.01039336     1.91681383     0.00021631     0.00047069     0.00017345
H        -0.94176757    -0.00287337     1.91512043     0.00022816     0.00065451     0.00018478
H        -1.01691438     0.15920811    -0.60925371     0.00015236     0.00033515    -0.00032662
     6
  Step:    40            Position(A)                                  Velocity(au)
C        -0.03940922     0.00728431    -0.12321932     0.00006698    -0.00007639    -0.00065744
N        -0.04208346    -0.07606139     1.41748802    -0.00010315    -0.00021535     0.00063865
H         0.93665508     0.12552051    -0.56045458    -0.00046502     0.00109564    -0.00111974
H         0.86136957     0.01300280     1.91776515     0.00037483     0.00089506     0.00032104
H        -0.94053333     0.00080148     1.91615376     0.00040763     0.00127823     0.00036034
H        -1.01602650     0.16106075    -0.61103622     0.00031774     0.00063383    -0.00060254
     6
  Step:    41            Position(A)                                  Velocity(au)
C        -0.03906110     0.00683790    -0.12657923     0.00005997    -0.00008628    -0.00056623
N        -0.04264491    -0.07723127     1.42082604    -0.00010068    -0.00021067     0.00057689
H         0.93458445     0.13160889    -0.56703901    -0.00029003     0.00112187    -0.00127679
H         0.86341395     0.01792965     1.91955517     0.00036558     0.00089895     0.00032815
H        -0.93836758     0.00776689     1.91820479     0.00037634     0.00125864     0.00038894
H        -1.01451211     0.16465636    -0.61464227     0.00023264     0.00067624    -0.00070972
     6
  Step:    42            Position(A)                                  Velocity(au)
C        -0.03875052     0.00633654    -0.12943920     0.00005327    -0.00009609    -0.00047435
N        -0.04318941    -0.07837559     1.42382500    -0.00009676    -0.00020549     0.00051392
H         0.93346920     0.13784396    -0.57447978    -0.00011956     0.00114566    -0.00142635
H         0.86538541     0.02287752     1.92136976     0.00034716     0.00090015     0.00032893
H        -0.93639939     0.01462731     1.92042612     0.00033577     0.00123673     0.00042053
H        -1.01347097     0.16848904    -0.61883228     0.00014652     0.00071792    -0.00081223
     6
  Step:    43            Position(A)                                  Velocity(au)
C        -0.03847519     0.00578102    -0.13179686     0.00004711    -0.00010567    -0.00038289
N        -0.04370924    -0.07949151     1.42647884    -0.00009157    -0.00019988     0.00045045
H         0.93326940     0.14421048    -0.58272812     0.00004031     0.00116670    -0.00156556
H         0.86723253     0.02783084     1.92317321     0.00031960     0.00089866     0.00032329
H        -0.93467429     0.02137021     1.92283044     0.00028839     0.00121320     0.00045367
H        -1.01290045     0.17255303    -0.62357631     0.00006283     0.00075823    -0.00090842
     6
  Step:    44            Position(A)                                  Velocity(au)
C        -0.03823174     0.00517287    -0.13365559     0.00004165    -0.00011492    -0.00029272
N        -0.04419779    -0.08057666     1.42878533    -0.00008531    -0.00019391     0.00038706
H         0.93391307     0.15069171    -0.59171974     0.00018438     0.00118475    -0.00169179
H         0.86890485     0.03277353     1.92492983     0.00028321     0.00089424     0.00031134
H        -0.93322360     0.02798705     1.92542194     0.00023680     0.00118867     0.00048674
H        -1.01277911     0.17683864    -0.62883576    -0.00001524     0.00079637    -0.00099686
     6