    14
  Step:   600            Position(A)                                  Velocity(au)
C        -5.48269881    -1.25394388    -0.43521197     0.00008613     0.00014067    -0.00071534
C        -5.06252541    -0.21486465     0.35018771     0.00058621    -0.00082140     0.00087919
H        -5.09463653    -1.53206545    -1.41870167    -0.00076301     0.00170625     0.00014028
H        -6.37550054    -1.84008128    -0.13591999    -0.00143729     0.00073649    -0.00183134
H        -5.70672047     0.13643100     1.22620884     0.00211815     0.00021048    -0.00040784
C        -3.85430145     0.78805575     0.38416809    -0.00108958     0.00043881    -0.00009752
C        -2.58721666     0.30215250    -0.07176856     0.00009556    -0.00013219     0.00058309
H        -3.97598780     1.86573826     0.74807083     0.00067023     0.00113114    -0.00293844
H        -2.43540424    -0.71830958    -0.24649060    -0.00263144     0.00039357     0.00212971
C        -1.39180199     0.98814454     0.21109034     0.00024579     0.00053102     0.00006057
H        -0.63898596     0.68954968     1.06721255     0.00120553    -0.00029427    -0.00238148
N        -1.05958587     2.24690394    -0.08397009     0.00020246    -0.00015017    -0.00030455
H        -0.26077525     2.72275628     0.25028544     0.00001659    -0.00180449     0.00073027
H        -1.76159267     2.82981824    -0.53506353    -0.00108802    -0.00186209     0.00033070
