    14
  Step:     0            Position(A)                                  Velocity(au)
C        -5.98115666    -0.73025147    -0.22505483    -0.00039055    -0.00004307    -0.00006183
C        -4.69412287    -0.71830149     0.20818421     0.00069015    -0.00000579     0.00005231
H        -6.43591068     0.14360927    -0.59994875    -0.00034804    -0.00033219    -0.00027223
H        -6.60649245    -1.60632688     0.01429289     0.00064687     0.00021343     0.00016656
H        -4.31105090    -1.54170212     0.79368777    -0.00077194    -0.00036876     0.00039197
C        -3.89069754     0.40771611    -0.04783483    -0.00007108     0.00004419    -0.00001113
C        -2.53991442     0.48623811     0.29444755    -0.00040910     0.00010811    -0.00012152
H        -4.37614446     1.26390872    -0.45608834    -0.00052082    -0.00117849    -0.00008917
H        -2.10733124    -0.43265506     0.72648534    -0.00006983    -0.00018932     0.00045137
C        -1.87226498     1.67486269    -0.02539561     0.00042008     0.00023977     0.00021270
H        -2.45251794     2.53743647    -0.37927315    -0.00041836     0.00137129     0.00003855
N        -0.54243943     1.80696988     0.14160811    -0.00008055    -0.00024681    -0.00022595
H        -0.06952975     2.70076712     0.00246112    -0.00010449    -0.00013208     0.00068228
H         0.06833453     1.11642606     0.50931875    -0.00014800    -0.00004381     0.00093008
    14
  Step:     1            Position(A)                                  Velocity(au)
C        -5.98564419    -0.73089957    -0.22565414    -0.00042248    -0.00007361    -0.00004653
C        -4.68640810    -0.71832152     0.20880104     0.00071281     0.00000122     0.00005875
H        -6.44043531     0.14109422    -0.60387562    -0.00047953    -0.00012667    -0.00044466
H        -6.59938223    -1.60352548     0.01559427     0.00063305     0.00027578     0.00007738
H        -4.31910726    -1.54619639     0.79789029    -0.00069277    -0.00044884     0.00037592
C        -3.89184429     0.40809096    -0.04796460    -0.00013823     0.00002228    -0.00001204
C        -2.54406758     0.48745698     0.29316507    -0.00034630     0.00011551    -0.00011195
H        -4.38217437     1.25189349    -0.45783667    -0.00059222    -0.00099171    -0.00024286
H        -2.10760234    -0.43389221     0.73119894     0.00001029    -0.00002208     0.00040130
C        -1.86769007     1.67741169    -0.02300620     0.00041002     0.00022753     0.00022276
H        -2.45660969     2.55214410    -0.37889369    -0.00030259     0.00127981     0.00004584
N        -0.54324386     1.80443356     0.13910349    -0.00006342    -0.00021805    -0.00023098
H        -0.07104301     2.69914997     0.00982939    -0.00016911    -0.00015986     0.00066343
H         0.06707233     1.11463835     0.51998081    -0.00009746    -0.00026707     0.00101078
    14
  Step:     2            Position(A)                                  Velocity(au)
C        -5.99039929    -0.73186180    -0.22607277    -0.00044054    -0.00009911    -0.00002966
C        -4.67852886    -0.71827472     0.20946941     0.00072111     0.00000643     0.00006207
H        -6.44640131     0.14083816    -0.60967652    -0.00060479     0.00006806    -0.00060890
H        -6.59264322    -1.60029368     0.01598572     0.00057709     0.00028825     0.00000167
H        -4.32620654    -1.55152133     0.80191164    -0.00059844    -0.00051752     0.00035664
C        -3.89372169     0.40820360    -0.04809828    -0.00020530    -0.00000320    -0.00001216
C        -2.54749029     0.48876521     0.29199849    -0.00027551     0.00012517    -0.00010054
H        -4.38910045     1.24221325    -0.46140130    -0.00067968    -0.00076207    -0.00041665
H        -2.10710604    -0.43313806     0.73526455     0.00007257     0.00016913     0.00033525
C        -1.86329507     1.67984033    -0.02052221     0.00038776     0.00021696     0.00023032
H        -2.45913763     2.56543484    -0.37827041    -0.00013843     0.00112013     0.00007960
N        -0.54382693     1.80219967     0.13655506    -0.00003996    -0.00019245    -0.00023354
H        -0.07322929     2.69726981     0.01697488    -0.00022488    -0.00017685     0.00064124
H         0.06620243     1.11058344     0.53143140    -0.00008268    -0.00044926     0.00106867
    14
  Step:     3            Position(A)                                  Velocity(au)
C        -5.99528183    -0.73306771    -0.22630294    -0.00044725    -0.00011713    -0.00001293
C        -4.67063252    -0.71818084     0.21015897     0.00071724     0.00000999     0.00006302
H        -6.45366636     0.14258315    -0.61719656    -0.00071126     0.00022842    -0.00075357
H        -6.58675737    -1.59721942     0.01563088     0.00047690     0.00024536    -0.00005836
H        -4.33219932    -1.55751812     0.80569242    -0.00049192    -0.00056888     0.00032998
C        -3.89633557     0.40802100    -0.04823064    -0.00027366    -0.00003107    -0.00001219
C        -2.55009499     0.49019542     0.29096557    -0.00019683     0.00013849    -0.00008774
H        -4.39704361     1.23522183    -0.46695168    -0.00077163    -0.00051275    -0.00060005
H        -2.10601477    -0.43019213     0.73853321     0.00012149     0.00037273     0.00025816
C        -1.85920701     1.68215805    -0.01796750     0.00035475     0.00020646     0.00023604
H        -2.45963800     2.57664905    -0.37715233     0.00006166     0.00090863     0.00013262
N        -0.54411805     1.80022343     0.13399434    -0.00001034    -0.00017152    -0.00023297
H        -0.07596280     2.69528111     0.02385775    -0.00026698    -0.00017722     0.00061529
H         0.06526363     1.10481001     0.54336008    -0.00011268    -0.00057634     0.00109457
    14
  Step:     4            Position(A)                                  Velocity(au)
C        -6.00018384    -0.73442419    -0.22635559    -0.00044584    -0.00012619     0.00000208
C        -4.66283787    -0.71805617     0.21084814     0.00070404     0.00001229     0.00006243
H        -6.46196147     0.14583524    -0.62616233    -0.00078915     0.00033639    -0.00086912
H        -6.58221019    -1.59492589     0.01470898     0.00033437     0.00014706    -0.00010229
H        -4.33696829    -1.56396673     0.80913050    -0.00037605    -0.00059798     0.00029264
C        -3.89970854     0.40752387    -0.04836498    -0.00034455    -0.00006002    -0.00001288
C        -2.55179628     0.49179504     0.29007891    -0.00011091     0.00015661    -0.00007408
H        -4.40598137     1.23099596    -0.47452865    -0.00085460    -0.00026928    -0.00078085
H        -2.10444815    -0.42498398     0.74091231     0.00016215     0.00057671     0.00017530
C        -1.85553417     1.68435710    -0.01535840     0.00031297     0.00019469     0.00024056
H        -2.45778868     2.58531281    -0.37536903     0.00028468     0.00066225     0.00019767
N        -0.54405313     1.79844727     0.13145842     0.00002450    -0.00015608    -0.00022894
H        -0.07907006     2.69339270     0.03043544    -0.00029181    -0.00015727     0.00058550
H         0.06373736     1.09797488     0.55537730    -0.00018902    -0.00064254     0.00108353
    14
  Step:     5            Position(A)                                  Velocity(au)
C        -6.00503540    -0.73582830    -0.22625753    -0.00043971    -0.00012607     0.00001418
C        -4.65523036    -0.71791207     0.21152469     0.00068427     0.00001358     0.00006110
H        -6.47093047     0.14994235    -0.63621012    -0.00083260     0.00038175    -0.00094911
H        -6.57944232    -1.59400225     0.01339319     0.00015606     0.00000018    -0.00013169
H        -4.34042603    -1.57060003     0.81209453    -0.00025333    -0.00060140     0.00024275
C        -3.90387320     0.40670805    -0.04851248    -0.00041792    -0.00008844    -0.00001482
C        -2.55252132     0.49362156     0.28934489    -0.00001981     0.00018000    -0.00006022
H        -4.41573966     1.22933085    -0.48403426    -0.00091574    -0.00005553    -0.00094671
H        -2.10246750    -0.41757549     0.74236833     0.00019996     0.00076910     0.00009223
C        -1.85236012     1.68641722    -0.01270469     0.00026490     0.00018089     0.00024438
H        -2.45341017     2.59113698    -0.37282782     0.00051772     0.00039759     0.00026792
N        -0.54358205     1.79680880     0.12898593     0.00006312    -0.00014623    -0.00022147
H        -0.08234659     2.69184049     0.03666670    -0.00029749    -0.00011605     0.00055222
H         0.06112851     1.09075330     0.56706439    -0.00030654    -0.00064960     0.00103508
    14
  Step:     6            Position(A)                                  Velocity(au)
C        -6.00980333    -0.73718225    -0.22604545    -0.00043177    -0.00011788     0.00002287
C        -4.64786821    -0.71775913     0.21218486     0.00065962     0.00001351     0.00005972
H        -6.48017615     0.15418669    -0.64692602    -0.00083981     0.00036231    -0.00099090
H        -6.57879615    -1.59492195     0.01182806    -0.00004693    -0.00018125    -0.00015012
H        -4.34251046    -1.57712351     0.81444120    -0.00012591    -0.00057768     0.00018008
C        -3.90885131     0.40558899    -0.04868930    -0.00049155    -0.00011423    -0.00001833
C        -2.55222964     0.49573295     0.28876153     0.00007254     0.00020824    -0.00004702
H        -4.42601483     1.22978106    -0.49523965    -0.00094518     0.00010979    -0.00108670
H        -2.10007365    -0.40815837     0.74293004     0.00024046     0.00093837     0.00001473
C        -1.84973890     1.68831434    -0.01001202     0.00021332     0.00016510     0.00024776
H        -2.44646252     2.59401088    -0.36950782     0.00074814     0.00013083     0.00033703
N        -0.54267232     1.79524829     0.12661331     0.00010394    -0.00014143    -0.00021092
H        -0.08557819     2.69085385     0.04251623    -0.00028421    -0.00005579     0.00051624
H         0.05703111     1.08376372     0.57802176    -0.00045515    -0.00060514     0.00095283
    14
  Step:     7            Position(A)                                  Velocity(au)
C        -6.01448111    -0.73840717    -0.22575730    -0.00042381    -0.00010377     0.00002841
C        -4.64079997    -0.71761644     0.21283125     0.00063006     0.00001095     0.00005872
H        -6.48930296     0.15786868    -0.65788802    -0.00081235     0.00028253    -0.00099538
H        -6.58046904    -1.59796738     0.01010905    -0.00025995    -0.00037741    -0.00016259
H        -4.34318046    -1.58323784     0.81603410     0.00000461    -0.00052744     0.00010586
C        -3.91462671     0.40420909    -0.04891344    -0.00056124    -0.00013473    -0.00002346
C        -2.55093447     0.49817726     0.28831618     0.00016087     0.00024018    -0.00003549
H        -4.43641732     1.23173265    -0.50780795    -0.00093756     0.00021519    -0.00119264
H        -2.09720697    -0.39704681     0.74269067     0.00028898     0.00107391    -0.00005142
C        -1.84769331     1.69002909    -0.00728441     0.00016104     0.00014790     0.00025081
H        -2.43704322     2.59399924    -0.36545454     0.00096342    -0.00012195     0.00039902
N        -0.54130807     1.79371469     0.12437168     0.00014557    -0.00014070    -0.00019787
H        -0.08856424     2.69061988     0.04796049    -0.00025417     0.00001817     0.00047886
H         0.05117127     1.07751472     0.58790937    -0.00062175    -0.00052073     0.00084359
    14
  Step:     8            Position(A)                                  Velocity(au)
C        -6.01907498    -0.73945233    -0.22542388    -0.00041654    -0.00008649     0.00003169
C        -4.63408439    -0.71751967     0.21346949     0.00059424     0.00000431     0.00005825
H        -6.49794777     0.16036755    -0.66870192    -0.00075417     0.00015148    -0.00096638
H        -6.58448315    -1.60317862     0.00827113    -0.00046681    -0.00056558    -0.00017463
H        -4.34240970    -1.58866232     0.81675718     0.00013711    -0.00045345     0.00002231
C        -3.92112948     0.40264149    -0.04920260    -0.00062228    -0.00014735    -0.00003018
C        -2.54871040     0.50098736     0.28798504     0.00024010     0.00027451    -0.00002654
H        -4.44652581     1.23448880    -0.52133095    -0.00089226     0.00025676    -0.00125981
H        -2.09375173    -0.38466456     0.74180512     0.00035014     0.00116667    -0.00010100
C        -1.84621582     1.69155003    -0.00452516     0.00011069     0.00012985     0.00025361
H        -2.42538582     2.59134295    -0.36077848     0.00115121    -0.00034450     0.00044784
N        -0.53948768     1.79217030     0.12228448     0.00018676    -0.00014265    -0.00018311
H        -0.09113870     2.69125125     0.05299219    -0.00021115     0.00009803     0.00044165
H         0.04342906     1.07237168     0.59647688    -0.00079190    -0.00041040     0.00071655
    14
  Step:     9            Position(A)                                  Velocity(au)
C        -6.02359366    -0.74029925    -0.22506391    -0.00040997    -0.00006895     0.00003386
C        -4.62779993    -0.71752219     0.21410559     0.00055040    -0.00000778     0.00005826
H        -6.50580180     0.16118251    -0.67902952    -0.00067079    -0.00001894    -0.00090966
H        -6.59068147    -1.61034055     0.00628875    -0.00065213    -0.00072378    -0.00019132
H        -4.34018097    -1.59315786     0.81652213     0.00027090    -0.00036025    -0.00006773
C        -3.92824027     0.40098558    -0.04957370    -0.00067085    -0.00015013    -0.00003840
C        -2.54568173     0.50418270     0.28773553     0.00030655     0.00031012    -0.00002078
H        -4.45593711     1.23734987    -0.53536878    -0.00081254     0.00023695    -0.00128703
H        -2.08954705    -0.37152368     0.74048109     0.00042733     0.00121012    -0.00013004
C        -1.84527172     1.69286973    -0.00173610     0.00006466     0.00011107     0.00025639
H        -2.41185825     2.58646266    -0.35565722     0.00129943    -0.00052024     0.00047722
N        -0.53722230     1.79059401     0.12036584     0.00022635    -0.00014569    -0.00016751
H        -0.09318348     2.69276445     0.05762243    -0.00015976     0.00017459     0.00040619
H         0.03384696     1.06853654     0.60358518    -0.00095085    -0.00028953     0.00058242
    14
  Step:    10            Position(A)                                  Velocity(au)
C        -6.02804390    -0.74096066    -0.22468310    -0.00040384    -0.00005378     0.00003603
C        -4.62204324    -0.71768983     0.21474403     0.00049721    -0.00002612     0.00005855
H        -6.51262265     0.15995312    -0.68860251    -0.00056856    -0.00021553    -0.00083190
H        -6.59874971    -1.61901267     0.00408570    -0.00080346    -0.00083428    -0.00021645
H        -4.33648324    -1.59654356     0.81527542     0.00040546    -0.00025374    -0.00016081
C        -3.93580553     0.39935703    -0.05004268    -0.00070452    -0.00014209    -0.00004801
C        -2.54200399     0.50777193     0.28753038     0.00035812     0.00034605    -0.00001845
H        -4.46430163     1.23967257    -0.54948719    -0.00070439     0.00016288    -0.00127618
H        -2.08440305    -0.35819096     0.73896035     0.00052215     0.00120127    -0.00013653
C        -1.84480135     1.69397987     0.00108385     0.00002510     0.00009137     0.00025942
H        -2.39695825     2.57996169    -0.35033829     0.00139685    -0.00063292     0.00048089
N        -0.53453583     1.78898299     0.11861994     0.00026317    -0.00014817    -0.00015198
H        -0.09463368     2.69507063     0.06187834    -0.00010472     0.00023848     0.00037375
H         0.02262738     1.06603763     0.60921842    -0.00108452    -0.00017402     0.00045267
    14
  Step:    11            Position(A)                                  Velocity(au)
C        -6.03242844    -0.74147586    -0.22427567    -0.00039772    -0.00004313     0.00003913
C        -4.61692252    -0.71809369     0.21538659     0.00043399    -0.00005086     0.00005886
H        -6.51824012     0.15646741    -0.69722887    -0.00045419    -0.00042462    -0.00074019
H        -6.60825879    -1.62859202     0.00155343    -0.00091276    -0.00088591    -0.00025199
H        -4.33131071    -1.59870885     0.81300404     0.00054029    -0.00014066    -0.00025305
C        -3.94365305     0.39787699    -0.05062401    -0.00072220    -0.00012318    -0.00005883
C        -2.53784718     0.51175321     0.28733198     0.00039405     0.00038123    -0.00001937
H        -4.47134703     1.24091318    -0.56328758    -0.00057533     0.00004476    -0.00123143
H        -2.07812398    -0.34524366     0.73749433     0.00063383     0.00114161    -0.00012092
C        -1.84472256     1.69486856     0.00393925    -0.00000607     0.00007045     0.00026300
H        -2.38129953     2.57261640    -0.34513681     0.00143409    -0.00066804     0.00045315
N        -0.53146486     1.78735250     0.11704100     0.00029611    -0.00014852    -0.00013740
H        -0.09547441     2.69798164     0.06579902    -0.00005014     0.00028155     0.00034525
H         0.01012108     1.06472943     0.61348821    -0.00118033    -0.00007922     0.00033872
    14
  Step:    12            Position(A)                                  Velocity(au)
C        -6.03674480    -0.74190412    -0.22382702    -0.00039109    -0.00003849     0.00004385
C        -4.61254898    -0.71880256     0.21603174     0.00036080    -0.00008146     0.00005884
H        -6.52255899     0.15066374    -0.70479567    -0.00033453    -0.00063259    -0.00064181
H        -6.61871809    -1.63839364    -0.00142706    -0.00097669    -0.00087476    -0.00029794
H        -4.32466346    -1.59962073     0.80973939     0.00067481    -0.00002821    -0.00034033
C        -3.95160503     0.39666221    -0.05132978    -0.00072382    -0.00009417    -0.00007060
C        -2.53338340     0.51611213     0.28710662     0.00041456     0.00041435    -0.00002302
H        -4.47688809     1.24065174    -0.57642698    -0.00043344    -0.00010552    -0.00115848
H        -2.07053689    -0.33321610     0.73631489     0.00075876     0.00103774    -0.00008649
C        -1.84493410     1.69552112     0.00683756    -0.00002738     0.00004828     0.00026731
H        -2.36558475     2.56534695    -0.34042478     0.00140533    -0.00061555     0.00038999
N        -0.52805777     1.78573375     0.11561406     0.00032419    -0.00014547    -0.00012454
H        -0.09573049     2.70123014     0.06943128     0.00000100     0.00029799     0.00032115
H        -0.00319454     1.06430464     0.61662853    -0.00122816    -0.00001873     0.00025104
    14
  Step:    13            Position(A)                                  Velocity(au)
C        -6.04098419    -0.74231793    -0.22331627    -0.00038333    -0.00004083     0.00005068
C        -4.60902933    -0.71987586     0.21667391     0.00027838    -0.00011678     0.00005811
H        -6.52555854     0.14262829    -0.71126973    -0.00021632    -0.00082616    -0.00054404
H        -6.62962580    -1.64772907    -0.00496467    -0.00099609    -0.00080334    -0.00035273
H        -4.31654798    -1.59932606     0.80555876     0.00080836     0.00007642    -0.00041853
C        -3.95948797     0.39581675    -0.05216847    -0.00071014    -0.00005659    -0.00008291
C        -2.52877782     0.52081782     0.28682833     0.00042059     0.00044373    -0.00002856
H        -4.48082942     1.23860463    -0.58863151    -0.00028684    -0.00027519    -0.00106409
H        -2.06152459    -0.32254101     0.73560223     0.00089051     0.00090126    -0.00003921
C        -1.84532149     1.69592476     0.00978711    -0.00003797     0.00002541     0.00027225
H        -2.35055523     2.55915010    -0.33660504     0.00131029    -0.00047334     0.00029054
N        -0.52437256     1.78417014     0.11431651     0.00034668    -0.00013815    -0.00011397
H        -0.09545244     2.70450078     0.07282489     0.00004712     0.00028509     0.00030160
H        -0.01674721     1.06431972     0.61898008    -0.00122144    -0.00000285     0.00019790
    14
  Step:    14            Position(A)                                  Velocity(au)
C        -6.04513079    -0.74279740    -0.22271825    -0.00037379    -0.00005063     0.00005994
C        -4.60645879    -0.72135726     0.21730300     0.00018804    -0.00015513     0.00005623
H        -6.52729140     0.13258994    -0.71669757    -0.00010612    -0.00099267    -0.00045410
H        -6.64050946    -1.65596825    -0.00914362    -0.00097502    -0.00067911    -0.00041364
H        -4.30697895    -1.59794897     0.80058333     0.00094010     0.00016655    -0.00048391
C        -3.96714061     0.39542422    -0.05314352    -0.00068253    -0.00001258    -0.00009523
C        -2.52418213     0.52581961     0.28648185     0.00041357     0.00046750    -0.00003492
H        -4.48316321     1.23463136    -0.59970598    -0.00014333    -0.00045106    -0.00095578
H        -2.05105537    -0.31349931     0.73545715     0.00102031     0.00074745     0.00001286
C        -1.84576482     1.69607703     0.01279351    -0.00003781     0.00000328     0.00027737
H        -2.33691974     2.55499170    -0.33406859     0.00115584    -0.00025062     0.00015849
N        -0.52047358     1.78271141     0.11312074     0.00036321    -0.00012634    -0.00010598
H        -0.09469969     2.70746710     0.07602934     0.00008812     0.00024357     0.00028643
H        -0.02991583     1.06424228     0.62095801    -0.00115833    -0.00003655     0.00018386
    14
  Step:    15            Position(A)                                  Velocity(au)
C        -6.04916150    -0.74342557    -0.22200500    -0.00036181    -0.00006799     0.00007183
C        -4.60491562    -0.72326971     0.21790416     0.00009148    -0.00019450     0.00005279
H        -6.52788020     0.12091169    -0.72120409    -0.00001000    -0.00112053    -0.00037896
H        -6.65095627    -1.66258590    -0.01401383    -0.00091975    -0.00051288    -0.00047735
H        -4.29598145    -1.59568240     0.79497227     0.00106895     0.00023660    -0.00053347
C        -3.97441958     0.39554151    -0.05425184    -0.00064277     0.00003519    -0.00010690
C        -2.51973028     0.53104533     0.28606434     0.00039518     0.00048373    -0.00004098
H        -4.48396508     1.22873689    -0.60954098    -0.00001035    -0.00061981    -0.00084165
H        -2.03920332    -0.30618912     0.73588356     0.00113823     0.00059320     0.00006074
C        -1.84614859     1.69599655     0.01585510    -0.00002769    -0.00001571     0.00028180
H        -2.32526900     2.55366725    -0.33313786     0.00095634     0.00003067     0.00000274
N        -0.51642675     1.78140630     0.11199789     0.00037386    -0.00011048    -0.00010048
H        -0.09352460     2.70982931     0.07909105     0.00012523     0.00017738     0.00027526
H        -0.04208785     1.06352006     0.62300244    -0.00104248    -0.00011779     0.00020834
    14
  Step:    16            Position(A)                                  Velocity(au)
C        -6.05304618    -0.74428488    -0.22114687    -0.00034679    -0.00009272     0.00008646
C        -4.60445755    -0.72561240     0.21845787    -0.00000933    -0.00023269     0.00004738
H        -6.52751024     0.10807621    -0.72498801     0.00006681    -0.00119978    -0.00032496
H        -6.66063071    -1.66718843    -0.01958661    -0.00083780    -0.00031732    -0.00054031
H        -4.28359362    -1.59277284     0.78891263     0.00119348     0.00028268    -0.00056533
C        -3.98120250     0.39619414    -0.05548226    -0.00059288     0.00008374    -0.00011714
C        -2.51553672     0.53640218     0.28558531     0.00036725     0.00049072    -0.00004568
H        -4.48338966     1.22107185    -0.61811867     0.00010516    -0.00076825    -0.00073028
H        -2.02615439    -0.30052198     0.73678588     0.00123449     0.00045443     0.00009592
C        -1.84637050     1.69573338     0.01895839    -0.00000912    -0.00002841     0.00028431
H        -2.31599804     2.55566269    -0.33400861     0.00073189     0.00033774    -0.00016313
N        -0.51229463     1.78029446     0.11092248     0.00037917    -0.00009177    -0.00009694
H        -0.09195994     2.71134770     0.08205118     0.00016071     0.00009320     0.00026757
H        -0.05272214     1.06166538     0.62551575    -0.00088306    -0.00023665     0.00026481
    14
  Step:    17            Position(A)                                  Velocity(au)
C        -6.05674818    -0.74545398    -0.22011343    -0.00032817    -0.00012428     0.00010385
C        -4.60511971    -0.72836021     0.21894079    -0.00011229    -0.00026755     0.00003973
H        -6.52641868     0.09466425    -0.72831327     0.00012048    -0.00122314    -0.00029723
H        -6.66928474    -1.66952793    -0.02583403    -0.00073743    -0.00010609    -0.00059897
H        -4.26987179    -1.58949823     0.78260461     0.00131173     0.00030320    -0.00057912
C        -3.98738991     0.39737356    -0.05681447    -0.00053492     0.00012995    -0.00012507
C        -2.51169591     0.54178075     0.28506511     0.00033154     0.00048724    -0.00004815
H        -4.48166448     1.21192990    -0.62551731     0.00019687    -0.00088369    -0.00063050
H        -2.01219642    -0.29624764     0.73798190     0.00130087     0.00034383     0.00011163
C        -1.84634816     1.69537512     0.02207503     0.00001595    -0.00003144     0.00028355
H        -2.30925752     2.56105605    -0.33670670     0.00050492     0.00063248    -0.00032305
N        -0.50813175     1.77939860     0.10987718     0.00038001    -0.00007202    -0.00009443
H        -0.09000867     2.71186830     0.08494456     0.00019747    -0.00000043     0.00026273
H        -0.06140643     1.05834293     0.62879562    -0.00069365    -0.00037604     0.00034120
    14
  Step:    18            Position(A)                                  Velocity(au)
C        -6.06022560    -0.74700378    -0.21887502    -0.00030558    -0.00016176     0.00012380
C        -4.60691405    -0.73146555     0.21932703    -0.00021530    -0.00029722     0.00002968
H        -6.52487453     0.08131763    -0.73149052     0.00014938    -0.00118739    -0.00029871
H        -6.67676346    -1.66950943    -0.03269014    -0.00062731     0.00010671    -0.00064998
H        -4.25489711    -1.58613968     0.77624332     0.00142100     0.00029933    -0.00057622
C        -3.99290494     0.39903701    -0.05821845    -0.00047092     0.00017080    -0.00012983
C        -2.50828371     0.54706140     0.28453185     0.00028966     0.00047273    -0.00004788
H        -4.47908279     1.20173939    -0.63191203     0.00025924    -0.00095453    -0.00055097
H        -1.99769540    -0.29300010     0.73922790     0.00133167     0.00026937     0.00010368
C        -1.84602149     1.69504557     0.02516166     0.00004556    -0.00002195     0.00027828
H        -2.30495198     2.56949946    -0.34107596     0.00029596     0.00087908    -0.00046145
N        -0.50398130     1.77871893     0.10885661     0.00037747    -0.00005337    -0.00009179
H        -0.08763981     2.71133822     0.08779884     0.00023862    -0.00009412     0.00026008
H        -0.06789715     1.05343885     0.63298016    -0.00049027    -0.00051426     0.00042164
    14
  Step:    19            Position(A)                                  Velocity(au)
C        -6.06343327    -0.74899270    -0.21740502    -0.00027881    -0.00020375     0.00014592
C        -4.60982981    -0.73486256     0.21959012    -0.00031635    -0.00032031     0.00001729
H        -6.52315072     0.06868783    -0.73484819     0.00015467    -0.00109444    -0.00032931
H        -6.68300837    -1.66719351    -0.04005351    -0.00051634     0.00030687    -0.00069025
H        -4.23878471    -1.58294986     0.76999871     0.00151768     0.00027509    -0.00055983
C        -3.99769220     0.40111003    -0.05965467    -0.00040277     0.00020364    -0.00013061
C        -2.50535897     0.55212254     0.28401769     0.00024311     0.00044741    -0.00004465
H        -4.47599304     1.19104782    -0.63757090     0.00028808    -0.00097127    -0.00049951
H        -1.98306353    -0.29035457     0.74025003     0.00132420     0.00023391     0.00007071
C        -1.84535148     1.69489502     0.02816302     0.00007794     0.00000180     0.00026767
H        -2.30278293     2.58028757    -0.34680176     0.00012033     0.00105080    -0.00056615
N        -0.49987390     1.77823100     0.10786910     0.00037267    -0.00003799    -0.00008780
H        -0.08478829     2.70980915     0.09063430     0.00028707    -0.00017871     0.00025896
H        -0.07213197     1.04709243     0.63801982    -0.00028870    -0.00062892     0.00048931
    14
  Step:    20            Position(A)                                  Velocity(au)
C        -6.06632504    -0.75146116    -0.21568267    -0.00024790    -0.00024835     0.00016952
C        -4.61383484    -0.73847300     0.21970537    -0.00041357    -0.00033599     0.00000283
H        -6.52149073     0.05737461    -0.73869472     0.00014073    -0.00095213    -0.00038512
H        -6.68805944    -1.66279596    -0.04779074    -0.00041355     0.00048039    -0.00071708
H        -4.22169494    -1.58012158     0.76399589     0.00159712     0.00023709    -0.00053475
C        -4.00171637     0.40349192    -0.06107586    -0.00033226     0.00022645    -0.00012687
C        -2.50296512     0.55684927     0.28355509     0.00019325     0.00041225    -0.00003859
H        -4.47278048     1.18049101    -0.64283968     0.00028132    -0.00092812    -0.00048180
H        -1.96872603    -0.28788280     0.74077489     0.00127857     0.00023572     0.00001391
C        -1.84431648     1.69508499     0.03101749     0.00011168     0.00004006     0.00025142
H        -2.30231955     2.59248762    -0.35346151    -0.00001321     0.00113345    -0.00062998
N        -0.49582853     1.77788788     0.10693586     0.00036655    -0.00002764    -0.00008143