 Fermi distribution function

Calculation with static geometry


********************************************************************************
 iSCC Total electronic   Diff electronic      SCC error    
   11   -0.53482006E+01   -0.11679546E-11    0.19712056E-06
********************************************************************************

 Total charge:     1.00000000

 Atomic gross charges (e)
 Atom           Charge
    1       0.25551185
    2      -0.14125469
    3       0.17711251
    4       0.26698387
    5       0.26682599
    6       0.17482047

Nr. of electrons (up):     12.00000000
Atom populations (up)
 Atom       Population
    1       3.74448815
    2       5.14125469
    3       0.82288749
    4       0.73301613
    5       0.73317401
    6       0.82517953

l-shell populations (up)
 Atom Sh.   l       Population
    1   1   0       1.35606499
    1   2   1       2.38842316
    2   1   0       1.49052271
    2   2   1       3.65073199
    3   1   0       0.82288749
    4   1   0       0.73301613
    5   1   0       0.73317401
    6   1   0       0.82517953

Orbital populations (up)
 Atom Sh.   l   m       Population  Label
    1   1   0   0       1.35606499  s
    1   2   1  -1       0.49474334  p_y
    1   2   1   0       0.87702869  p_z
    1   2   1   1       1.01665113  p_x
    2   1   0   0       1.49052271  s
    2   2   1  -1       1.37951359  p_y
    2   2   1   0       1.11428373  p_z
    2   2   1   1       1.15693467  p_x
    3   1   0   0       0.82288749  s
    4   1   0   0       0.73301613  s
    5   1   0   0       0.73317401  s
    6   1   0   0       0.82517953  s

Fermi level:                        -0.5194566527 H          -14.1351 eV
Band energy:                        -8.8273138082 H         -240.2034 eV
TS:                                  0.0000000000 H            0.0000 eV
Band free energy (E-TS):            -8.8273138082 H         -240.2034 eV
Extrapolated E(0K):                 -8.8273138082 H         -240.2034 eV
Input / Output electrons (q):     12.0000000000     12.0000000000

Energy H0:                          -5.4840189134 H         -149.2277 eV
Energy SCC:                          0.1358183601 H            3.6958 eV
Total Electronic energy:            -5.3482005533 H         -145.5319 eV
Repulsive energy:                    0.1625685418 H            4.4237 eV
Total energy:                       -5.1856320115 H         -141.1082 eV
Extrapolated to 0:                  -5.1856320115 H         -141.1082 eV
Total Mermin free energy:           -5.1856320115 H         -141.1082 eV
Force related energy:               -5.1856320115 H         -141.1082 eV

SCC converged

Excitation Energy:                   0.1630536242 H            4.4369 eV

Total Forces
    1     -0.020999826146     -0.017634586244      0.028111453911
    2     -0.003132847234      0.009133616528     -0.009101211933
    3      0.018244091598      0.014563657137     -0.004442780502
    4     -0.000515417938     -0.006223626336      0.008527580345
    5      0.017319996627     -0.001249904679     -0.007718255366
    6     -0.010915996908      0.001410843593     -0.015376786455

Maximal derivative component:        0.281115E-01 au


