 Fermi distribution function

Calculation with static geometry


********************************************************************************
 iSCC Total electronic   Diff electronic      SCC error    
   10   -0.53900087E+01   -0.47872817E-12    0.66206532E-06
********************************************************************************

 Total charge:     1.00000000

 Atomic gross charges (e)
 Atom           Charge
    1       0.28393687
    2      -0.17082871
    3       0.15798336
    4       0.30828453
    5       0.26721789
    6       0.15340606

Nr. of electrons (up):     12.00000000
Atom populations (up)
 Atom       Population
    1       3.71606313
    2       5.17082871
    3       0.84201664
    4       0.69171547
    5       0.73278211
    6       0.84659394

l-shell populations (up)
 Atom Sh.   l       Population
    1   1   0       1.29634366
    1   2   1       2.41971947
    2   1   0       1.42298982
    2   2   1       3.74783888
    3   1   0       0.84201664
    4   1   0       0.69171547
    5   1   0       0.73278211
    6   1   0       0.84659394

Orbital populations (up)
 Atom Sh.   l   m       Population  Label
    1   1   0   0       1.29634366  s
    1   2   1  -1       0.52548646  p_y
    1   2   1   0       0.90707523  p_z
    1   2   1   1       0.98715778  p_x
    2   1   0   0       1.42298982  s
    2   2   1  -1       1.28430367  p_y
    2   2   1   0       1.13820256  p_z
    2   2   1   1       1.32533265  p_x
    3   1   0   0       0.84201664  s
    4   1   0   0       0.69171547  s
    5   1   0   0       0.73278211  s
    6   1   0   0       0.84659394  s

Fermi level:                        -0.4901336154 H          -13.3372 eV
Band energy:                        -8.8991449344 H         -242.1581 eV
TS:                                  0.0000000000 H            0.0000 eV
Band free energy (E-TS):            -8.8991449344 H         -242.1581 eV
Extrapolated E(0K):                 -8.8991449344 H         -242.1581 eV
Input / Output electrons (q):     12.0000000000     12.0000000000

Energy H0:                          -5.5256746105 H         -150.3613 eV
Energy SCC:                          0.1356658841 H            3.6917 eV
Total Electronic energy:            -5.3900087264 H         -146.6696 eV
Repulsive energy:                    0.2021891649 H            5.5018 eV
Total energy:                       -5.1878195614 H         -141.1678 eV
Extrapolated to 0:                  -5.1878195614 H         -141.1678 eV
Total Mermin free energy:           -5.1878195614 H         -141.1678 eV
Force related energy:               -5.1878195614 H         -141.1678 eV

SCC converged

Excitation Energy:                   0.0961404303 H            2.6161 eV

Total Forces
    1     -0.017144210399     -0.005945133638     -0.008569979814
    2      0.009998268249     -0.011572929215      0.005935634816
    3      0.000843985682      0.015858129871      0.004769241389
    4     -0.005615306988     -0.007495950077      0.006451275037
    5      0.006834069019      0.017906746828     -0.001718349922
    6      0.005083194437     -0.008750863768     -0.006867821506

Maximal derivative component:        0.179067E-01 au


