|===============================================================================
|
|  DFTB+ release 20.1
|
|  Copyright (C) 2006 - 2020  DFTB+ developers group
|
|===============================================================================
|
|  When publishing results obtained with DFTB+, please cite the following
|  reference:
|
|  * DFTB+, a software package for efficient approximate density functional
|    theory based atomistic simulations, J. Chem. Phys. 152, 124101 (2020).
|    [doi: 10.1063/1.5143190]
|
|  You should also cite additional publications crediting the parametrization
|  data you use. Please consult the documentation of the SK-files for the
|  references.
|
|===============================================================================

Reading input file 'dftb_in.hsd'
Parser version: 8

--------------------------------------------------------------------------------
Reading SK-files:
Done.


Processed input in HSD format written to 'dftb_pin.hsd'

Starting initialization...
--------------------------------------------------------------------------------
OpenMP threads:              1
Chosen random seed:          508636353
Mode:                        Static calculation
Self consistent charges:     Yes
SCC-tolerance:                 0.100000E-05
Max. scc iterations:                   1000
Shell resolved Hubbard:      No
Spin polarisation:           No
Nr. of up electrons:             6.000000
Nr. of down electrons:           6.000000
Periodic boundaries:         No
Electronic solver:           Relatively robust
Maximal SCC-cycles:                    1000
Initial charges:             Set automatically (system chrg:   0.100E+01)
Included shells:             C:  s, p
                             N:  s, p
                             H:  s
Spin coupling constants:     C   1(s)-1(s):  -0.455900E-01
                             C   1(s)-2(p):  -0.293000E-01
                             C   2(p)-1(s):  -0.293000E-01
                             C   2(p)-2(p):  -0.275500E-01
                             N   1(s)-1(s):  -0.468700E-01
                             N   1(s)-2(p):  -0.317000E-01
                             N   2(p)-1(s):  -0.317000E-01
                             N   2(p)-2(p):  -0.307200E-01
                             H   1(s)-1(s):  -0.792500E-01
Range separated hybrid:      Yes
  Screening parameter omega:   0.300000E+00
  Range separated algorithm:   MatrixBased
Extra options:
                             Mulliken analysis
                             Force calculation
Force type                   original
                             Eigenvector printing


REKS Calcuation:             Yes
SSR(2,2) Calcuation:         Yes
Energy Functional:           (PPS+OSS)/2
Number of Core Orbitals:                  5
Number of Active Orbitals:                2
Number of Basis:                         12
Number of States:                         2
State-Averaging Weight:          0.500000
                                 0.500000
State of Interest:                        1
Initial Guess:               Diagonalize H0 matrix
Newton-Raphson for FON opt:  Yes
NR max. Iterations:                      50
Level Shifting:              Yes
Shift Value:                     0.300000
W Scale Factor:              C  =    3.000000
                             N  =    3.000000
                             H  =    3.000000
Transition Dipole:           No
Gradient of Microstate:      No
CP-REKS Solver:              Preconditioned Conjugate-Gradient
CG max. Iterations:                     100
CG Tolerance:                  0.100000E-07
Memory for A and Hxc:        Direct Updating Without Saving
Non-Adiabatic Coupling:      Yes

--------------------------------------------------------------------------------

***  Geometry step: 0

  iSCC       reks energy        Diff energy         x_a       SCC error   
    1       -6.2610532804       0.0000000000     0.999420    1.18657936
    2       -6.2740254259      -0.0129721455     0.999761    0.09941107
    3       -6.2783288376      -0.0043034117     0.999868    0.04407783
    4       -6.2806240342      -0.0022951966     0.999915    0.02203424
    5       -6.2820166490      -0.0013926147     0.999937    0.01149599
    6       -6.2828983844      -0.0008817354     0.999950    0.00819517
    7       -6.2834593715      -0.0005609871     0.999957    0.00724646
    8       -6.2838128204      -0.0003534489     0.999961    0.00612659
    9       -6.2840327299      -0.0002199095     0.999963    0.00502701
   10       -6.2841681300      -0.0001354001     0.999965    0.00403962
   11       -6.2842509259      -0.0000827960     0.999966    0.00319852
   12       -6.2843013888      -0.0000504629     0.999967    0.00250613
   13       -6.2843321372      -0.0000307484     0.999967    0.00194926
   14       -6.2843509112      -0.0000187741     0.999967    0.00150860
   15       -6.2843624159      -0.0000115047     0.999967    0.00116691
   16       -6.2843694986      -0.0000070827     0.999968    0.00091196
   17       -6.2843738812      -0.0000043826     0.999968    0.00074099
   18       -6.2843766071      -0.0000027259     0.999968    0.00060914
   19       -6.2843783111      -0.0000017040     0.999968    0.00049948
   20       -6.2843793811      -0.0000010701     0.999968    0.00040861
   21       -6.2843800560      -0.0000006748     0.999968    0.00033357
   22       -6.2843804831      -0.0000004271     0.999968    0.00027258
   23       -6.2843807543      -0.0000002712     0.999968    0.00022414
   24       -6.2843809269      -0.0000001727     0.999968    0.00018372
   25       -6.2843810371      -0.0000001102     0.999968    0.00015019
   26       -6.2843811075      -0.0000000704     0.999968    0.00012249
   27       -6.2843811526      -0.0000000451     0.999968    0.00009971
   28       -6.2843811815      -0.0000000289     0.999968    0.00008102
   29       -6.2843812001      -0.0000000186     0.999968    0.00006574
   30       -6.2843812120      -0.0000000119     0.999968    0.00005327
   31       -6.2843812197      -0.0000000077     0.999968    0.00004312
   32       -6.2843812246      -0.0000000049     0.999968    0.00003487
   33       -6.2843812278      -0.0000000032     0.999968    0.00002817
   34       -6.2843812298      -0.0000000020     0.999968    0.00002275
   35       -6.2843812311      -0.0000000013     0.999967    0.00001835
   36       -6.2843812320      -0.0000000008     0.999967    0.00001480
   37       -6.2843812325      -0.0000000005     0.999967    0.00001193
   38       -6.2843812328      -0.0000000004     0.999967    0.00000961
   39       -6.2843812331      -0.0000000002     0.999967    0.00000774
   40       -6.2843812332      -0.0000000001     0.999967    0.00000623
   41       -6.2843812333      -0.0000000001     0.999967    0.00000501
   42       -6.2843812334      -0.0000000001     0.999967    0.00000403
   43       -6.2843812334      -0.0000000000     0.999967    0.00000324
   44       -6.2843812334      -0.0000000000     0.999967    0.00000261
   45       -6.2843812335      -0.0000000000     0.999967    0.00000210
   46       -6.2843812335      -0.0000000000     0.999967    0.00000169
   47       -6.2843812335      -0.0000000000     0.999967    0.00000136
   48       -6.2843812335      -0.0000000000     0.999967    0.00000109
   49       -6.2843812335      -0.0000000000     0.999967    0.00000088
  
--------------------------------------------------
 Final SA-REKS(2,2) energy:      -6.28438123
  
 State     Energy      FON(1)    FON(2)   Spin
  PPS   -6.41342315   1.999935  0.000065  0.00
  OSS   -6.15533932   1.000000  1.000000  0.00
 Trip   -6.23423925   1.000000  1.000000  1.00
--------------------------------------------------

 Lagrangian Wab:   0.00354094  0.00354081

--------------------------------------------------
 SSR: 2SI-2SA-REKS(2,2) Hamiltonian matrix
               PPS           OSS
   PPS    -6.41342315    0.00497901
   OSS     0.00497901   -6.15533932
--------------------------------------------------

----------------------------------------------------------------
 SSR: 2SI-2SA-REKS(2,2) states
                    E_n       C_{PPS}    C_{OSS}
 SSR state  1   -6.41351917  -0.999814   0.019281
 SSR state  2   -6.15524330  -0.019281  -0.999814
----------------------------------------------------------------

 unrelaxed SSR FONs for S0:  1.999563  0.000437

Total Energy:                       -6.4135191684 H         -174.5207 eV
Extrapolated to 0:                  -6.4135191684 H         -174.5207 eV

----------------------------------------------------------------------------------
 Solving CP-REKS equation for  1 state vector...
----------------------------------------------------------------------------------
  CG solver: Constructing Y initial guess
  CG solver: Iteration    1    eps =    0.000057965417
  CG solver: Iteration    2    eps =    0.000016381647
  CG solver: Iteration    3    eps =    0.000000586297
  CG solver: Iteration    4    eps =    0.000000181294
  CG solver: Iteration    5    eps =    0.000000012342
  CG solver: Iteration    6    eps =    0.000000000658
  Convergence reached in CG solver after    6 iterations
  CG solver: Calculating converged R, Z, Q2 matrix
----------------------------------------------------------------------------------

----------------------------------------------------------------------------------
 Solving CP-REKS equation for SI between  1 and  2 state vectors...
----------------------------------------------------------------------------------
  CG solver: Constructing Y initial guess
  CG solver: Iteration    1    eps =    0.000981281429
  CG solver: Iteration    2    eps =    0.000834330055
  CG solver: Iteration    3    eps =    0.000208847121
  CG solver: Iteration    4    eps =    0.000002806837
  CG solver: Iteration    5    eps =    0.000000396555
  CG solver: Iteration    6    eps =    0.000000007969
  Convergence reached in CG solver after    6 iterations
  CG solver: Calculating converged R, Z, Q2 matrix
----------------------------------------------------------------------------------

--------------------------------------------------
 Gradient Information
--------------------------------------------------
           1 st state (SSR)
    -0.00403143     0.00916471     0.01388917
     0.01580756     0.00664215    -0.01526158
     0.00848345    -0.00034577    -0.00456374
     0.00211170    -0.00751372    -0.00065159
    -0.01377144    -0.00475337    -0.00189106
    -0.00859984    -0.00319399     0.00847879

           2 st state (SSR)
     0.00401789    -0.01228148     0.11937209
    -0.01068890     0.01101317    -0.13905472
    -0.00934542    -0.00643630     0.01339030
    -0.00250319     0.00459759    -0.00846620
     0.01068058    -0.00960631    -0.00999735
     0.00783904     0.01271333     0.02475588
--------------------------------------------------
 Coupling Information
--------------------------------------------------
 between  1 and  2 states
--------------------------------------------------
 g vector - difference gradient
    -0.00399484     0.01060240    -0.05296593
     0.01340943    -0.00201284     0.06208525
     0.00917839     0.00303615    -0.00895931
     0.00259245    -0.00613442     0.00396027
    -0.01261317     0.00237420     0.00403067
    -0.00857225    -0.00786549    -0.00815096

 h vector - derivative coupling
     0.00085063    -0.00333496    -0.00480039
     0.00392229     0.00451735     0.00369633
     0.00666904    -0.00029493     0.00063222
     0.00734183    -0.00192451     0.00129722
    -0.00979840    -0.00140142    -0.00066057
    -0.00898539     0.00243847    -0.00016481

 G vector - GDV
    -0.00402466     0.01072310    -0.05274146
     0.01324823    -0.00218551     0.06189657
     0.00891443     0.00304526    -0.00897702
     0.00230745    -0.00605566     0.00390731
    -0.01222601     0.00242647     0.00405315
    -0.00821944    -0.00795366    -0.00813854

 H vector - DCV - non-adiabatic coupling
     0.00269468    -0.01132006    -0.02647928
     0.01717693     0.01717693     0.02356907
     0.02717233    -0.00068784     0.00110855
     0.02879218    -0.00836158     0.00561009
    -0.03979242    -0.00506761    -0.00195402
    -0.03604370     0.00826015    -0.00185441
--------------------------------------------------


--------------------------------------------------------------------------------
DFTB+ running times                          cpu [s]             wall clock [s]
--------------------------------------------------------------------------------
SCC                                    +     0.03  ( 59.8%)      0.03  ( 56.9%)
Post-SCC processing                    +     0.02  ( 35.6%)      0.02  ( 33.3%)
  Force calculation                          0.02  ( 34.6%)      0.01  ( 29.4%)
--------------------------------------------------------------------------------
Missing                                +     0.00  (  4.6%)      0.00  (  9.8%)
Total                                  =     0.05  (100.0%)      0.05  (100.0%)
--------------------------------------------------------------------------------
