     6
  Step:     0            Position(A)                                  Velocity(au)
C        -0.03571208     0.02453227     0.02272580     0.00003073    -0.00001241    -0.00019370
N        -0.04564585    -0.05727759     1.29235713     0.00013592    -0.00009205     0.00025597
H         0.92122741    -0.01742297    -0.49500012     0.00031985     0.00022583     0.00000178
H         0.83076475    -0.14628086     1.85163019    -0.00075149     0.00049919    -0.00131941
H        -0.89244414    -0.03468758     1.87027300    -0.00127283     0.00046563     0.00061455
H        -1.01262767     0.03223491    -0.56471284    -0.00055046     0.00023637    -0.00054579
     6
  Step:     1            Position(A)                                  Velocity(au)
C        -0.03557596     0.02451691     0.02127724     0.00001888     0.00000660    -0.00033526
N        -0.04488742    -0.05778363     1.29409247     0.00013907    -0.00009284     0.00037740
H         0.92320617    -0.01635930    -0.49509524     0.00039877     0.00016406    -0.00003555
H         0.82664744    -0.14368013     1.84431963    -0.00073799     0.00045031    -0.00134040
H        -0.89963712    -0.03227850     1.87363193    -0.00134023     0.00041528     0.00060505
H        -1.01545729     0.03337655    -0.56751966    -0.00047807     0.00018180    -0.00047855
     6
  Step:     2            Position(A)                                  Velocity(au)
C        -0.03550555     0.02460445     0.01905780     0.00000686     0.00002499    -0.00047477
N        -0.04412427    -0.05829329     1.29648617     0.00013740    -0.00009336     0.00049578
H         0.92559024    -0.01562805    -0.49538904     0.00046522     0.00010535    -0.00007085
H         0.82269060    -0.14135407     1.83696509    -0.00069103     0.00039907    -0.00133247
H        -0.90710736    -0.03014412     1.87689272    -0.00137250     0.00036563     0.00057928
H        -1.01785810     0.03422396    -0.56994851    -0.00039274     0.00012952    -0.00040807
     6
  Step:     3            Position(A)                                  Velocity(au)
C        -0.03550087     0.02479050     0.01607971    -0.00000500     0.00004226    -0.00061073
N        -0.04338323    -0.05880571     1.29952001     0.00013072    -0.00009382     0.00060957
H         0.92829914    -0.01520593    -0.49587088     0.00051549     0.00005244    -0.00010407
H         0.81908242    -0.13931131     1.82973243    -0.00060872     0.00034732    -0.00129257
H        -0.91466258    -0.02827582     1.87997361    -0.00136906     0.00031871     0.00053945
H        -1.01975685     0.03479449    -0.57198699    -0.00029453     0.00008164    -0.00033606
     6
  Step:     4            Position(A)                                  Velocity(au)
C        -0.03556036     0.02506757     0.01236507    -0.00001643     0.00005786    -0.00074050
N        -0.04269181    -0.05932138     1.30316617     0.00011902    -0.00009435     0.00071637
H         0.93123927    -0.01505343    -0.49652955     0.00054878     0.00000769    -0.00013490
H         0.81601986    -0.13754789     1.82280032    -0.00049017     0.00029716    -0.00121946
H        -0.92211037    -0.02665155     1.88280431    -0.00133071     0.00027658     0.00048743
H        -1.02108575     0.03511859    -0.57363123    -0.00018603     0.00004020    -0.00026406
     6
  Step:     5            Position(A)                                  Velocity(au)
C        -0.03568118     0.02542548     0.00795277    -0.00002719     0.00007141    -0.00086052
N        -0.04207700    -0.05984117     1.30738206     0.00010257    -0.00009488     0.00081313
H         0.93432198    -0.01512150    -0.49735137     0.00056677    -0.00002816    -0.00016281
H         0.81370284    -0.13605000     1.81634893    -0.00033613     0.00024967    -0.00111408
H        -0.92926699    -0.02524043     1.88532311    -0.00125985     0.00023988     0.00042487
H        -1.02179854     0.03523569    -0.57488496    -0.00007210     0.00000606    -0.00019356
     6
  Step:     6            Position(A)                                  Velocity(au)
C        -0.03585937     0.02585291     0.00290193    -0.00003705     0.00008279    -0.00096705
N        -0.04156384    -0.06036475     1.31210822     0.00008190    -0.00009512     0.00089685
H         0.93747203    -0.01536314    -0.49832002     0.00057178    -0.00005605    -0.00018746
H         0.81232345    -0.13480230     1.81054871    -0.00014990     0.00020475    -0.00097942
H        -0.93596497    -0.02401356     1.88747661    -0.00116018     0.00020773     0.00035368
H        -1.02187865     0.03518528    -0.57575977     0.00004173    -0.00002122    -0.00012622
     6
  Step:     7            Position(A)                                  Velocity(au)
C        -0.03608963     0.02633831    -0.00270920    -0.00004574     0.00009198    -0.00105686
N        -0.04117406    -0.06088987     1.31727000     0.00005780    -0.00009474     0.00096502
H         0.94062600    -0.01573948    -0.49941820     0.00056575    -0.00007746    -0.00020881
H         0.81205014    -0.13379259     1.80555059     0.00006211     0.00016195    -0.00082032
H        -0.94205818    -0.02295014     1.88922252    -0.00103631     0.00017868     0.00027640
H        -1.02133849     0.03500169    -0.57627654     0.00015029    -0.00004264    -0.00006392
     6
  Step:     8            Position(A)                                  Velocity(au)
C        -0.03636519     0.02687016    -0.00878620    -0.00005299     0.00009900    -0.00112753
N        -0.04092460    -0.06141256     1.32278070     0.00003134    -0.00009352     0.00101600
H         0.94372877    -0.01621979    -0.50062933     0.00055017    -0.00009371    -0.00022709
H         0.81301030    -0.13301125     1.80147652     0.00029051     0.00012110    -0.00064336
H        -0.94742585    -0.02203744     1.89053335    -0.00089370     0.00015154     0.00019611
H        -1.02021656     0.03471371    -0.57646671     0.00024901    -0.00005910    -0.00000866
     6
  Step:     9            Position(A)                                  Velocity(au)
C        -0.03667778     0.02743702    -0.01522279    -0.00005859     0.00010391    -0.00117777
N        -0.04082623    -0.06192773     1.32854585     0.00000377    -0.00009133     0.00104917
H         0.94673194    -0.01677952    -0.50193853     0.00052648    -0.00010582    -0.00024268
H         0.81527433    -0.13244860     1.79841040     0.00052378     0.00008247    -0.00045647
H        -0.95197674    -0.02126826     1.89139897    -0.00073856     0.00012561     0.00011621
H        -1.01857487     0.03434579    -0.57637263     0.00033400    -0.00007132     0.00003770
     6
  Step:    10            Position(A)                                  Velocity(au)
C        -0.03701785     0.02802773    -0.02190687    -0.00006236     0.00010685    -0.00120779
N        -0.04088255    -0.06242999     1.33446873    -0.00002356    -0.00008823     0.00106522
H         0.94959392    -0.01739861    -0.50333284     0.00049623    -0.00011456    -0.00025599
H         0.81884532    -0.13209247     1.79639130     0.00074967     0.00004667    -0.00026824
H        -0.95565353    -0.02063815     1.89182791    -0.00057765     0.00010061     0.00004006
H        -1.01649568     0.03391918    -0.57604672     0.00040226    -0.00007988     0.00007364
     6
  Step:    11            Position(A)                                  Velocity(au)
C        -0.03737505     0.02863181    -0.02872826    -0.00006427     0.00010806    -0.00121936
N        -0.04108969    -0.06291432     1.34045708    -0.00004940    -0.00008439     0.00106613
H         0.95228083    -0.01806053    -0.50480099     0.00046114    -0.00012063    -0.00026740
H         0.82365708    -0.13192669     1.79541095     0.00095697     0.00001440    -0.00008684
H        -0.95843599    -0.02014329     1.89184694    -0.00041780     0.00007657    -0.00002934
H        -1.01407679     0.03345252    -0.57554924     0.00045197    -0.00008533     0.00009819
     6
  Step:    12            Position(A)                                  Velocity(au)
C        -0.03773886     0.02924007    -0.03558706    -0.00010508     0.00017606    -0.00198394
N        -0.04143674    -0.06337674     1.34642985    -0.00011864    -0.00013065     0.00172177
H         0.95476751    -0.01875203    -0.50633281     0.00069035    -0.00020353    -0.00045264
H         0.82958177    -0.13193095     1.79541703     0.00185567    -0.00002248     0.00013225
H        -0.96034094    -0.01977909     1.89149878    -0.00043273     0.00008758    -0.00014637
H        -1.01142498     0.03296185    -0.57494508     0.00078757    -0.00014395     0.00018123
     6
  Step:    13            Position(A)                                  Velocity(au)
C        -0.03832881     0.03020517    -0.04633579    -0.00006035     0.00009723    -0.00106891
N        -0.04215705    -0.06408473     1.35578231    -0.00007875    -0.00007053     0.00093297
H         0.95879735    -0.01987711    -0.50919525     0.00043123    -0.00011455    -0.00032686
H         0.84041122    -0.13212893     1.79664410     0.00114874    -0.00002668     0.00016963
H        -0.96236274    -0.01929407     1.89055947    -0.00017147     0.00004958    -0.00010508
H        -1.00722256     0.03213799    -0.57425290     0.00040512    -0.00008678     0.00003466
     6
  Step:    14            Position(A)                                  Velocity(au)
C        -0.03866010     0.03074898    -0.05231246    -0.00005622     0.00009493    -0.00104273
N        -0.04265145    -0.06446972     1.36098251    -0.00009439    -0.00006573     0.00090499
H         0.96109964    -0.02052975    -0.51105418     0.00038305    -0.00011603    -0.00033040
H         0.84723634    -0.13233683     1.79798906     0.00124905    -0.00004480     0.00029623
H        -0.96295208    -0.01907678     1.88984852    -0.00004482     0.00002800    -0.00014126
H        -1.00494239     0.03165112    -0.57407330     0.00039438    -0.00008489     0.00002453
     6
  Step:    15            Position(A)                                  Velocity(au)
C        -0.03896466     0.03127873    -0.05812831    -0.00005135     0.00009299    -0.00102010
N        -0.04322452    -0.06482812     1.36601715    -0.00010726    -0.00006161     0.00088138
H         0.96312943    -0.02118929    -0.51293181     0.00033770    -0.00011797    -0.00033612
H         0.85453711    -0.13263556     1.79999431     0.00132605    -0.00005928     0.00040595
H        -0.96286967    -0.01897745     1.88896186     0.00006576     0.00000790    -0.00016827
H        -1.00276240     0.03117794    -0.57397545     0.00037297    -0.00008264     0.00000618
     6
  Step:    16            Position(A)                                  Velocity(au)
C        -0.03923858     0.03179657    -0.06380438    -0.00004575     0.00009140    -0.00100071
N        -0.04385981    -0.06516376     1.37091158    -0.00011725    -0.00005809     0.00086173
H         0.96490402    -0.02185871    -0.51484076     0.00029487    -0.00012049    -0.00034411
H         0.86217483    -0.13300466     1.80256222     0.00137837    -0.00007034     0.00049963
H        -0.96221127    -0.01898774     1.88795294     0.00016010    -0.00001101    -0.00018584
H        -1.00074071     0.03072016    -0.57400369     0.00034119    -0.00008006    -0.00001997
     6
  Step:    17            Position(A)                                  Velocity(au)
C        -0.03947809     0.03230451    -0.06935975    -0.00003939     0.00009001    -0.00098309
N        -0.04454050    -0.06548005     1.37568869    -0.00012413    -0.00005504     0.00084467
H         0.96643892    -0.02254155    -0.51679393     0.00025404    -0.00012354    -0.00035402
H         0.87000715    -0.13342503     1.80560190     0.00140372    -0.00007807     0.00057764
H        -0.96107283    -0.01910104     1.88687615     0.00023757    -0.00002898    -0.00019344
H        -0.99893305     0.03027936    -0.57419962     0.00029906    -0.00007707    -0.00005345
     6
  Step:    18            Position(A)                                  Velocity(au)
C        -0.03967939     0.03280379    -0.07480535    -0.00003230     0.00008868    -0.00096562
N        -0.04524884    -0.06577971     1.38036361    -0.00012766    -0.00005236     0.00082869
H         0.96774676    -0.02324111    -0.51880231     0.00021484    -0.00012704    -0.00036539
H         0.87788270    -0.13387823     1.80902616     0.00140008    -0.00008249     0.00064007
H        -0.95955277    -0.01931204     1.88578826     0.00029719    -0.00004612    -0.00019050
H        -0.99739420     0.02985770    -0.57460179     0.00024682    -0.00007354    -0.00009358
     6
  Step:    19            Position(A)                                  Velocity(au)
C        -0.03983880     0.03329487    -0.08014321    -0.00002454     0.00008730    -0.00094703
N        -0.04596614    -0.06606475     1.38494302    -0.00012770    -0.00004993     0.00081256
H         0.96883816    -0.02396021    -0.52087435     0.00017721    -0.00013091    -0.00037780
H         0.88564245    -0.13434624     1.81274985     0.00136658    -0.00008366     0.00068711
H        -0.95775393    -0.01961613     1.88474871     0.00033794    -0.00006250    -0.00017660
H        -0.99617667     0.02945811    -0.57524469     0.00018527    -0.00006935    -0.00013947
     6
  Step:    20            Position(A)                                  Velocity(au)
C        -0.03995312     0.03377755    -0.08536835    -0.00001625     0.00008579    -0.00092655
N        -0.04667315    -0.06633667     1.38942676    -0.00012422    -0.00004771     0.00079547
H         0.96972328    -0.02470128    -0.52301617     0.00014128    -0.00013515    -0.00039094
H         0.89312523    -0.13481139     1.81669007     0.00130376    -0.00008168     0.00071930
H        -0.95578350    -0.02000911     1.88381855     0.00035910    -0.00007813    -0.00015163
H        -0.99532779     0.02908420    -0.57615743     0.00011572    -0.00006441    -0.00019000
     6
  Step:    21            Position(A)                                  Velocity(au)
C        -0.04001995     0.03425121    -0.09047149    -0.00000761     0.00008411    -0.00090383
N        -0.04735081    -0.06659655     1.39381011    -0.00011735    -0.00004563     0.00077695
H         0.97041305    -0.02546669    -0.52523214     0.00010738    -0.00013976    -0.00040460
H         0.90017546    -0.13525671     1.82076794     0.00121356    -0.00007670     0.00073761
H        -0.95375100    -0.02048703     1.88305853     0.00036056    -0.00009307    -0.00011589
H        -0.99488677     0.02874014    -0.57736261     0.00004000    -0.00005865    -0.00024388
     6
  Step:    22            Position(A)                                  Velocity(au)
C        -0.04003795     0.03471498    -0.09544141     0.00000116     0.00008226    -0.00087886
N        -0.04798102    -0.06684524     1.39808583    -0.00010735    -0.00004368     0.00075686
H         0.97092003    -0.02625894    -0.52752544     0.00007588    -0.00014484    -0.00041869
H         0.90665023    -0.13566616     1.82491068     0.00109902    -0.00006892     0.00074338
H        -0.95176515    -0.02104633     1.88252692     0.00034284    -0.00010740    -0.00007009
H        -0.99488204     0.02843053    -0.57887540    -0.00003972    -0.00005202    -0.00029972
     6
  Step:    23            Position(A)                                  Velocity(au)
C        -0.04000706     0.03516800    -0.10026682     0.00000982     0.00008024    -0.00085187
N        -0.04854728    -0.06708340     1.40224576    -0.00009458    -0.00004183     0.00073525
H         0.97125873    -0.02708096    -0.52989862     0.00004715    -0.00015048    -0.00043315
H         0.91242456    -0.13602487     1.82905330     0.00096391    -0.00005859     0.00073823
H        -0.94992984    -0.02168408     1.88227729     0.00030726    -0.00012128    -0.00001531
H        -0.99532943     0.02816039    -0.58070317    -0.00012104    -0.00004444    -0.00035614
     6
  Step:    24            Position(A)                                  Velocity(au)
C        -0.03992847     0.03560941    -0.10493764     0.00001815     0.00007807    -0.00082323
N        -0.04903532    -0.06731156     1.40628205    -0.00007949    -0.00004007     0.00071230
H         0.97144566    -0.02793637    -0.53235397     0.00002155    -0.00015683    -0.00044800
H         0.91739537    -0.13631929     1.83314011     0.00081248    -0.00004594     0.00072398
H        -0.94833997    -0.02239829     1.88235626     0.00025581    -0.00013491     0.00004704
H        -0.99623129     0.02793513    -0.58284545    -0.00020154    -0.00003585    -0.00041178
     6
  Step:    25            Position(A)                                  Velocity(au)
C        -0.03980469     0.03603852    -0.10944571     0.00002592     0.00007581    -0.00079336
N        -0.04943353    -0.06753016     1.41018784    -0.00006258    -0.00003838     0.00068829
H         0.97149903    -0.02882961    -0.53489379    -0.00000065    -0.00016408    -0.00046330
H         0.92148360    -0.13653714     1.83712558     0.00064918    -0.00003121     0.00070254
H        -0.94707756    -0.02318832     1.88280177     0.00019113    -0.00014858     0.00011527
H        -0.99757660     0.02776064    -0.58529444    -0.00027891    -0.00002616    -0.00046542
     6
  Step:    26            Position(A)                                  Velocity(au)
C        -0.03963937     0.03645478    -0.11378515     0.00003295     0.00007346    -0.00076271
N        -0.04973321    -0.06773952     1.41395776    -0.00004440    -0.00003673     0.00066350
H         0.97143843    -0.02976622    -0.53752059    -0.00001925    -0.00017246    -0.00047910
H         0.92463494    -0.13666734     1.84097473     0.00047840    -0.00001457     0.00067581
H        -0.94620854    -0.02405520     1.88364169     0.00011630    -0.00016262     0.00018750
H        -0.99934167     0.02764340    -0.58803579    -0.00035102    -0.00001524    -0.00051601
     6
  Step:    27            Position(A)                                  Velocity(au)
C        -0.03943721     0.03685784    -0.11795235     0.00003906     0.00007107    -0.00073166
N        -0.04992874    -0.06793987     1.41758803    -0.00002549    -0.00003513     0.00063824
H         0.97128436    -0.03075304    -0.54023724    -0.00003413    -0.00018221    -0.00049548
H         0.92681926    -0.13669969     1.84466297     0.00030432     0.00000385     0.00064562
H        -0.94578049    -0.02500202     1.88489299     0.00003472    -0.00017744     0.00026177
H        -1.00149164     0.02759067    -0.59104959    -0.00041607    -0.00000292    -0.00056267
     6
  Step:    28            Position(A)                                  Velocity(au)
C        -0.03920371     0.03724748    -0.12194573     0.00004413     0.00006866    -0.00070052
N        -0.05001755    -0.06813134     1.42107643    -0.00000639    -0.00003354     0.00061275
H         0.97105781    -0.03179850    -0.54304696    -0.00004523    -0.00019367    -0.00051252
H         0.92802924    -0.13662445     1.84817566     0.00013085     0.00002402     0.00061368
H        -0.94582128    -0.02603428     1.88656136    -0.00005004    -0.00019352     0.00033607
H        -1.00398233     0.02761080    -0.59431161    -0.00047258     0.00001102    -0.00060477
     6
  Step:    29            Position(A)                                  Velocity(au)
C        -0.03894503     0.03762365    -0.12576529     0.00004806     0.00006626    -0.00066950
N        -0.05000003    -0.06831393     1.42442206     0.00001240    -0.00003194     0.00058720
H         0.97077990    -0.03291303    -0.54595344    -0.00005256    -0.00020725    -0.00053032
H         0.92827863    -0.13643177     1.85150737    -0.00003845     0.00004606     0.00058158
H        -0.94633864    -0.02716032     1.88864125    -0.00013446    -0.00021141     0.00040846
H        -1.00676237     0.02771354    -0.59779462    -0.00051949     0.00002689    -0.00064189
     6
  Step:    30            Position(A)                                  Velocity(au)
C        -0.03866773     0.03798639    -0.12941174     0.00005080     0.00006387    -0.00063861
N        -0.04987933    -0.06848753     1.42762470     0.00003040    -0.00003031     0.00056164
H         0.97047169    -0.03410966    -0.54896096    -0.00005612    -0.00022351    -0.00054901
H         0.92760049    -0.13611085     1.85466129    -0.00020029     0.00007023     0.00055080
H        -0.94732074    -0.02839185     1.89111642    -0.00021517    -0.00023179     0.00047710
H        -1.00977551     0.02791067    -0.60146978    -0.00055614     0.00004514    -0.00067389
     6
  Step:    31            Position(A)                                  Velocity(au)
C        -0.03837861     0.03833578    -0.13288563     0.00005232     0.00006150    -0.00060773
N        -0.04966113    -0.06865185     1.43068419     0.00004718    -0.00002861     0.00053601
H         0.97015421    -0.03540509    -0.55207477    -0.00005584    -0.00024327    -0.00056885
H         0.92604546    -0.13564869     1.85764860    -0.00035168     0.00009713     0.00052271
H        -0.94873774    -0.02974475     1.89396076    -0.00028916    -0.00025555     0.00054032
H        -1.01296319     0.02821687    -0.60530828    -0.00058238     0.00006643    -0.00070096
     6
  Step:    32            Position(A)                                  Velocity(au)
C        -0.03808456     0.03867194    -0.13618617     0.00005260     0.00005915    -0.00057645
N        -0.04935337    -0.06880645     1.43359962     0.00006239    -0.00002682     0.00051005
H         0.96984919    -0.03682142    -0.55530200    -0.00005143    -0.00026779    -0.00059037
H         0.92368030    -0.13502816     1.86048801    -0.00048984     0.00012779     0.00049864
H        -0.95054402    -0.03124053     1.89713946    -0.00035387    -0.00028391     0.00059671
H        -1.01626737     0.02865112    -0.60928350    -0.00059863     0.00009174    -0.00072381
     6
  Step:    33            Position(A)                                  Velocity(au)
C        -0.03779244     0.03899501    -0.13930969     0.00005166     0.00005683    -0.00054382
N        -0.04896583    -0.06895075     1.43636829     0.00007572    -0.00002490     0.00048316
H         0.96958107    -0.03838942    -0.55865392    -0.00004186    -0.00029918    -0.00061486
H         0.92058659    -0.13422461     1.86320550    -0.00061218     0.00016410     0.00047992
H        -0.95268134    -0.03290874     1.90061055    -0.00040740    -0.00031871     0.00064513
H        -1.01963437     0.02923922    -0.61337458    -0.00060632     0.00012267    -0.00074416
     6
  Step:    34            Position(A)                                  Velocity(au)
C        -0.03750905     0.03930507    -0.14224477     0.00004950     0.00005450    -0.00050719
N        -0.04850979    -0.06908390     1.43898241     0.00008694    -0.00002279     0.00045354
H         0.96938286    -0.04015451    -0.56215207    -0.00002400    -0.00034088    -0.00064576
H         0.91686001    -0.13319996     1.86583479    -0.00071610     0.00020918     0.00046809
H        -0.95508286    -0.03479125     1.90432684    -0.00044866    -0.00036251     0.00068496
H        -1.02302228     0.03001778    -0.61757411    -0.00060917     0.00016149    -0.00076620
     6
  Step:    35            Position(A)                                  Velocity(au)
C        -0.03724120     0.03960200    -0.14495841     0.00004611     0.00005210    -0.00045967
N        -0.04799755    -0.06920459     1.44141955     0.00009585    -0.00002035     0.00041652
H         0.96931376    -0.04218588    -0.56584600     0.00001081    -0.00039603    -0.00069211
H         0.91261111    -0.13189485     1.86841883    -0.00079855     0.00026529     0.00046498
H        -0.95767821    -0.03694615     1.90823917    -0.00047736    -0.00041585     0.00071657
H        -1.02641890     0.03103779    -0.62190803    -0.00061634     0.00020848    -0.00080007
     6
  Step:    36            Position(A)                                  Velocity(au)
C        -0.03699570     0.03988516    -0.14736251     0.00004168     0.00004958    -0.00039248
N        -0.04744260    -0.06931045     1.44361973     0.00010208    -0.00001744     0.00036607
H         0.96950318    -0.04456376    -0.56985767     0.00007356    -0.00045619    -0.00076561
H         0.90796938    -0.13024630     1.87101161    -0.00085667     0.00032223     0.00047146
H        -0.96039759    -0.03942110     1.91230476    -0.00049259    -0.00046630     0.00074180
H        -1.02988430     0.03233892    -0.62648171    -0.00063950     0.00025174    -0.00085794
     6
  Step:    37            Position(A)                                  Velocity(au)
C        -0.03677738     0.04015383    -0.14932632     0.00003664     0.00004703    -0.00030830
N        -0.04686144    -0.06939866     1.44549361     0.00010524    -0.00001417     0.00030398
H         0.97013240    -0.04726286    -0.57436656     0.00015896    -0.00050294    -0.00086255
H         0.90307708    -0.12830875     1.87366571    -0.00089070     0.00036096     0.00048600
H        -0.96316025    -0.04213571     1.91649478    -0.00049177    -0.00049558     0.00076128
H        -1.03353596     0.03383942    -0.63145614    -0.00067543     0.00027414    -0.00093517
     6
  Step:    38            Position(A)                                  Velocity(au)
C        -0.03658817     0.04040828    -0.15079211     0.00003489     0.00004959    -0.00024362
N        -0.04627194    -0.06946811     1.44700123     0.00011723    -0.00001202     0.00026510
H         0.97127144    -0.05015854    -0.57945281     0.00027682    -0.00058851    -0.00107610
H         0.89806111    -0.12623089     1.87641788    -0.00100571     0.00041772     0.00056398
H        -0.96586813    -0.04493399     1.92077334    -0.00052685    -0.00055697     0.00086090
H        -1.03739781     0.03538853    -0.63688462    -0.00078903     0.00030379    -0.00112974
     6
  Step:    39            Position(A)                                  Velocity(au)
C        -0.03640598     0.04067914    -0.15211819     0.00003034     0.00004787    -0.00023443
N        -0.04562649    -0.06952979     1.44843972     0.00011379    -0.00001014     0.00025287
H         0.97275330    -0.05334720    -0.58541103     0.00025164    -0.00056806    -0.00106435
H         0.89243467    -0.12399850     1.87957793    -0.00100760     0.00039508     0.00057745
H        -0.96868445    -0.04797206     1.92554497    -0.00047914    -0.00054622     0.00084961
H        -1.04157710     0.03701239    -0.64304618    -0.00070761     0.00028967    -0.00108320
     6
  Step:    40            Position(A)                                  Velocity(au)
C        -0.03625094     0.04094040    -0.15339815     0.00002523     0.00004617    -0.00022592
N        -0.04500701    -0.06958079     1.44981228     0.00010802    -0.00000818     0.00024069
H         0.97406882    -0.05647343    -0.59128473     0.00021914    -0.00056432    -0.00104822
H         0.88686007    -0.12183898     1.88283711    -0.00098794     0.00038947     0.00059993
H        -0.97119454    -0.05100615     1.93021812    -0.00041789    -0.00055313     0.00082693
H        -1.04526400     0.03860871    -0.64892615    -0.00061503     0.00029148    -0.00103131
     6
  Step:    41            Position(A)                                  Velocity(au)
C        -0.03612560     0.04119217    -0.15462877     0.00001975     0.00004449    -0.00021638
N        -0.04442609    -0.06962065     1.45111448     0.00010007    -0.00000614     0.00022743
H         0.97518853    -0.05961842    -0.59705974     0.00018224    -0.00057302    -0.00103037
H         0.88145581    -0.11967035     1.88624484    -0.00094769     0.00039635     0.00063100
H        -0.97332835    -0.05411887     1.93473449    -0.00034495    -0.00057240     0.00079462
H        -1.04841179     0.04025150    -0.65450694    -0.00051562     0.00030428    -0.00097729
     6
  Step:    42            Position(A)                                  Velocity(au)
C        -0.03603151     0.04143464    -0.15580185     0.00001407     0.00004286    -0.00020534
N        -0.04389533    -0.06964904     1.45233871     0.00009017    -0.00000406     0.00021280
H         0.97609320    -0.06283887    -0.60273069     0.00014220    -0.00059032    -0.00101180
H         0.87633255    -0.11743614     1.88984666    -0.00088859     0.00041176     0.00066983
H        -0.97502647    -0.05736473     1.93904523    -0.00026231    -0.00059978     0.00075429
H        -1.05099185     0.04198881    -0.65978242    -0.00041202     0.00032415    -0.00092259
     6
  Step:    43            Position(A)                                  Velocity(au)
C        -0.03596934     0.04166803    -0.15690882     0.00000833     0.00004126    -0.00019284
N        -0.04342485    -0.06966579     1.45347734     0.00007860    -0.00000196     0.00019687
H         0.97676752    -0.06617322    -0.60829459     0.00009953    -0.00061348    -0.00099271
H         0.87158906    -0.11509827     1.89368259    -0.00081302     0.00043301     0.00071531
H        -0.97624103    -0.06077869     1.94311002    -0.00017209    -0.00063237     0.00070740
H        -1.05298685     0.04385084    -0.66475128    -0.00030597     0.00034849    -0.00086787
     6
  Step:    44            Position(A)                                  Velocity(au)
C        -0.03593906     0.04189257    -0.15794213     0.00000265     0.00003971    -0.00017908
N        -0.04302293    -0.06967085     1.45452372     0.00006572     0.00000013     0.00017983
H         0.97719788    -0.06964779    -0.61374860     0.00005448    -0.00064073    -0.00097310
H         0.86730903    -0.11263028     1.89778574    -0.00072391     0.00045843     0.00076610
H        -0.97693649    -0.06438327     1.94689655    -0.00007653    -0.00066838     0.00065535
H        -1.05438777     0.04585667    -0.66941472    -0.00019884     0.00037570    -0.00081351
     6