     6
  Step:     0            Position(A)                                  Velocity(au)
C        -0.04051991     0.02828272    -0.00110314     0.00008970    -0.00005942    -0.00015289
N        -0.04115399    -0.05703346     1.30957321     0.00015653     0.00012473     0.00011669
H         0.91971202    -0.06759477    -0.47677965    -0.00059879     0.00026850     0.00047568
H         0.82765777    -0.13057207     1.87593583    -0.00088508    -0.00070580    -0.00123537
H        -0.90477865    -0.06511543     1.86030895    -0.00160865    -0.00051099     0.00106390
H        -1.00080093     0.04904250    -0.55256882    -0.00015147    -0.00007693    -0.00010396
     6
  Step:     1            Position(A)                                  Velocity(au)
C        -0.04004743     0.02796733    -0.00198195     0.00008205    -0.00005590    -0.00016748
N        -0.04029176    -0.05635673     1.31028074     0.00015605     0.00012284     0.00014161
H         0.91674977    -0.06617195    -0.47457113    -0.00047554     0.00025111     0.00032727
H         0.82275955    -0.13441447     1.86916673    -0.00088992    -0.00070066    -0.00122722
H        -0.91368184    -0.06791781     1.86624495    -0.00162398    -0.00051334     0.00109165
H        -1.00164881     0.04861880    -0.55330456    -0.00015681    -0.00007796    -0.00016391
     6
  Step:     2            Position(A)                                  Velocity(au)
C        -0.03962203     0.02767100    -0.00293576     0.00007250    -0.00005239    -0.00018005
N        -0.03944636    -0.05568929     1.31112276     0.00015023     0.00012117     0.00016543
H         0.91450838    -0.06484695    -0.47319842    -0.00033649     0.00023260     0.00017094
H         0.81791975    -0.13823908     1.86250687    -0.00086181    -0.00069857    -0.00119338
H        -0.92254925    -0.07073270     1.87225444    -0.00159478    -0.00051468     0.00109020
H        -1.00251685     0.04818944    -0.55436240    -0.00015840    -0.00007890    -0.00022126
     6
  Step:     3            Position(A)                                  Velocity(au)
C        -0.03925353     0.02739361    -0.00395354     0.00006135    -0.00004895    -0.00019064
N        -0.03864666    -0.05502983     1.31209231     0.00013933     0.00011979     0.00018780
H         0.91306509    -0.06362490    -0.47269920    -0.00018582     0.00021346     0.00000939
H         0.81332231    -0.14206412     1.85609864    -0.00080031    -0.00070020    -0.00113402
H        -0.93114545    -0.07355380     1.87818314    -0.00152505    -0.00051488     0.00106218
H        -1.00338339     0.04775485    -0.55572751    -0.00015593    -0.00007979    -0.00027573
     6
  Step:     4            Position(A)                                  Velocity(au)
C        -0.03894987     0.02713470    -0.00502458     0.00004896    -0.00004563    -0.00019936
N        -0.03791971    -0.05437673     1.31318053     0.00012378     0.00011875     0.00020845
H         0.91247239    -0.06250806    -0.47309549    -0.00002821     0.00019425    -0.00015454
H         0.80915069    -0.14591122     1.85008141    -0.00070632    -0.00070618    -0.00105031
H        -0.93925920    -0.07637429     1.88389274    -0.00141968    -0.00051394     0.00101083
H        -1.00422532     0.04731523    -0.55738353    -0.00014920    -0.00008067    -0.00032713
     6
  Step:     5            Position(A)                                  Velocity(au)
C        -0.03871680     0.02689347    -0.00613887     0.00003577    -0.00004250    -0.00020638
N        -0.03728987    -0.05372808     1.31437727     0.00010410     0.00011812     0.00022721
H         0.91275582    -0.06149561    -0.47439316     0.00013144     0.00017551    -0.00031803
H         0.80557982    -0.14980499     1.84458555    -0.00058211    -0.00071696    -0.00094438
H        -0.94670748    -0.07918746     1.88926352    -0.00128394    -0.00051194     0.00093965
H        -1.00501889     0.04687053    -0.55931342    -0.00013818    -0.00008161    -0.00037546
     6
  Step:     6            Position(A)                                  Velocity(au)
C        -0.03855772     0.02666877    -0.00728737     0.00002217    -0.00003961    -0.00021189
N        -0.03677830    -0.05308168     1.31567173     0.00008094     0.00011792     0.00024404
H         0.91391350    -0.06058372    -0.47658240     0.00028832     0.00015776    -0.00047842
H         0.80276832    -0.15377209     1.83972706    -0.00043126    -0.00073283    -0.00081924
H        -0.95333647    -0.08198726     1.89419516    -0.00112304    -0.00050901     0.00085211
H        -1.00574030     0.04642047    -0.56150012    -0.00012288    -0.00008263    -0.00042079
     6
  Step:     7            Position(A)                                  Velocity(au)
C        -0.03847367     0.02645920    -0.00846219     0.00000860    -0.00003700    -0.00021610
N        -0.03640246    -0.05243514     1.31705305     0.00005495     0.00011818     0.00025897
H         0.91591711    -0.05976579    -0.47963883     0.00043788     0.00014146    -0.00063328
H         0.80085132    -0.15784008     1.83560295    -0.00025854    -0.00075377    -0.00067860
H        -0.95902102    -0.08476848     1.89860643    -0.00094188    -0.00050530     0.00075148
H        -1.00636626     0.04596452    -0.56392719    -0.00010345    -0.00008378    -0.00046328
     6
  Step:     8            Position(A)                                  Velocity(au)
C        -0.03846347     0.02626311    -0.00965654    -0.00000458    -0.00003472    -0.00021919
N        -0.03617587    -0.05178601     1.31851086     0.00002687     0.00011890     0.00027212
H         0.91871405    -0.05903289    -0.48352511     0.00057600     0.00012697    -0.00078041
H         0.79993395    -0.16203573     1.83228751    -0.00006982    -0.00077946    -0.00052674
H        -0.96366239    -0.08752690     1.90243368    -0.00074491    -0.00050095     0.00064072
H        -1.00687441     0.04550197    -0.56657915    -0.00008004    -0.00008508    -0.00050311
