     6
  Step:     0            Position(A)                                  Velocity(au)
C        -0.04023182     0.00766963     0.04128381     0.00020746    -0.00007717     0.00005137
N        -0.04185214    -0.06421607     1.27464526     0.00008775    -0.00003936    -0.00006928
H         0.94012531     0.05584478    -0.50668625    -0.00106612     0.00052579     0.00007834
H         0.78117923    -0.04028437     1.83600245    -0.00210669     0.00014792    -0.00118619
H        -0.89796194     0.03259991     1.90955907    -0.00032967     0.00055478     0.00081887
H        -0.97528338     0.08303966    -0.55169276    -0.00018910     0.00023800     0.00063968
     6
  Step:     1            Position(A)                                  Velocity(au)
C        -0.03907940     0.00725291     0.04108538     0.00021292    -0.00007532    -0.00012379
N        -0.04142891    -0.06447367     1.27467512     0.00006444    -0.00005488     0.00007935
H         0.93432927     0.05885270    -0.50615097    -0.00104492     0.00057546     0.00011295
H         0.77027059    -0.03933651     1.82971623    -0.00185051     0.00019969    -0.00109134
H        -0.89962698     0.03574910     1.91369095    -0.00027327     0.00059634     0.00068655
H        -0.97652770     0.08447988    -0.54812366    -0.00026396     0.00028862     0.00066442
     6
  Step:     2            Position(A)                                  Velocity(au)
C        -0.03790246     0.00684566     0.03992949     0.00021621    -0.00007374    -0.00029756
N        -0.04114717    -0.06481650     1.27551333     0.00003623    -0.00007047     0.00022529
H         0.92869364     0.06214043    -0.50545059    -0.00100686     0.00062790     0.00013802
H         0.76093420    -0.03809976     1.82406292    -0.00153266     0.00025371    -0.00095481
H        -0.90095158     0.03912402     1.91707014    -0.00020651     0.00063714     0.00054498
H        -0.97817116     0.08619721    -0.54442388    -0.00033386     0.00033926     0.00068695
     6
  Step:     3            Position(A)                                  Velocity(au)
C        -0.03671325     0.00644589     0.03782887     0.00021715    -0.00007258    -0.00046777
N        -0.04103238    -0.06524493     1.27714069     0.00000376    -0.00008607     0.00036674
H         0.92331025     0.06572438    -0.50464049    -0.00095204     0.00068321     0.00015244
H         0.75349719    -0.03655996     1.81926677    -0.00115875     0.00031036    -0.00077927
H        -0.90188708     0.04272193     1.91965521    -0.00013233     0.00067738     0.00039758
H        -0.98018144     0.08819269    -0.54060565    -0.00039681     0.00038998     0.00070702
     6
  Step:     4            Position(A)                                  Velocity(au)
C        -0.03552488     0.00605101     0.03480794     0.00021554    -0.00007188    -0.00063198
N        -0.04110599    -0.06575892     1.27952867    -0.00003208    -0.00010154     0.00050184
H         0.91826985     0.06962086    -0.50378153    -0.00088049     0.00074089     0.00015529
H         0.74824724    -0.03470167     1.81553074    -0.00073776     0.00036950    -0.00056986
H        -0.90240044     0.04654053     1.92142315    -0.00005358     0.00071669     0.00024765
H        -0.98251577     0.09046704    -0.53668281    -0.00045088     0.00044040     0.00072398
     6
  Step:     5            Position(A)                                  Velocity(au)
C        -0.03435155     0.00565831     0.03090419     0.00021112    -0.00007161    -0.00078730
N        -0.04138385    -0.06635748     1.28263939    -0.00007004    -0.00011660     0.00062856
H         0.91366264     0.07384237    -0.50293894    -0.00079217     0.00079963     0.00014591
H         0.74541353    -0.03251135     1.81302271    -0.00028274     0.00043025    -0.00033453
H        -0.90247414     0.05057475     1.92236878     0.00002672     0.00075407     0.00009866
H        -0.98512173     0.09301821    -0.53267292    -0.00049435     0.00048962     0.00073678
     6
  Step:     6            Position(A)                                  Velocity(au)
C        -0.03320867     0.00526537     0.02617067     0.00020367    -0.00007167    -0.00093020
N        -0.04187438    -0.06703808     1.28642451    -0.00010852    -0.00013086     0.00074452
H         0.90957905     0.07839344    -0.50218079    -0.00068718     0.00085736     0.00012404
H         0.74514536    -0.02998143     1.81186071     0.00018898     0.00049097    -0.00008402
H        -0.90210731     0.05481335     1.92250551     0.00010518     0.00078796    -0.00004563
H        -0.98793919     0.09583854    -0.52859975    -0.00052597     0.00053621     0.00074393
     6
  Step:     7            Position(A)                                  Velocity(au)
C        -0.03211277     0.00487050     0.02067933     0.00019302    -0.00007190    -0.00105661
N        -0.04257672    -0.06779592     1.29082321    -0.00014558    -0.00014383     0.00084694
H         0.90610909     0.08326655    -0.50157551    -0.00056605     0.00091136     0.00009004
H         0.74749082    -0.02711459     1.81209920     0.00065621     0.00054924     0.00016853
H        -0.90131804     0.05923606     1.92186722     0.00017789     0.00081639    -0.00018096
H        -0.99090320     0.09891229    -0.52449559    -0.00054509     0.00057841     0.00074365
     6
  Step:     8            Position(A)                                  Velocity(au)
C        -0.03108108     0.00447283     0.01452402     0.00017914    -0.00007214    -0.00116216
N        -0.04347907    -0.06862343     1.29576008    -0.00017907    -0.00015494     0.00093286
H         0.90333964     0.08843908    -0.50118831    -0.00043021     0.00095863     0.00004504
H         0.75237851    -0.02392732     1.81371833     0.00109520     0.00060220     0.00040858
H        -0.90014653     0.06381217     1.92051089     0.00024049     0.00083745    -0.00030264
H        -0.99394750     0.10221415    -0.52040277    -0.00055179     0.00061434     0.00073413
     6
  Step:     9            Position(A)                                  Velocity(au)
C        -0.03013080     0.00407242     0.00782178     0.00016225    -0.00007223    -0.00124290
N        -0.04455787    -0.06951006     1.30114387    -0.00020687    -0.00016368     0.00099951
H         0.90134945     0.09387234    -0.50107719    -0.00028241     0.00099637    -0.00000900
H         0.75960758    -0.02045218     1.81661957     0.00148218     0.00064688     0.00062191
H        -0.89865741     0.06850113     1.91851902     0.00028851     0.00084966    -0.00040589
H        -0.99700792     0.10570900    -0.51637358    -0.00054688     0.00064235     0.00071394
     6
  Step:    10            Position(A)                                  Velocity(au)
C        -0.02927787     0.00367006     0.00071026     0.00014281    -0.00007209    -0.00129629
N        -0.04577827    -0.07044262     1.30686880    -0.00022723    -0.00016972     0.00104513
H         0.90020094     0.09951290    -0.50128836    -0.00012695     0.00102264    -0.00006940
H         0.76885161    -0.01673775     1.82063033     0.00179674     0.00068087     0.00079658
H        -0.89694004     0.07325543     1.91599980     0.00031799     0.00085256    -0.00048653
H        -1.00002559     0.10935332    -0.51246797    -0.00053189     0.00066144     0.00068251
     6
  Step:    11            Position(A)                                  Velocity(au)
C        -0.02853532     0.00326703    -0.00666024     0.00012164    -0.00007171    -0.00132230
N        -0.04709648    -0.07140616     1.31282001    -0.00023914    -0.00017301     0.00106978
H         0.89993122     0.10529723    -0.50185255     0.00003069     0.00103704    -0.00013312
H         0.77968054    -0.01284555     1.82551890     0.00202578     0.00070292     0.00092510
H        -0.89510486     0.07802584     1.91308353     0.00032630     0.00084707    -0.00054191
H        -1.00295019     0.11309857    -0.50874865    -0.00050912     0.00067168     0.00064055
     6
  Step:    12            Position(A)                                  Velocity(au)
C        -0.02791172     0.00286467    -0.01414047     0.00009975    -0.00007119    -0.00132414
N        -0.04846404    -0.07238569     1.31888349    -0.00024259    -0.00017390     0.00107594
H         0.90054558     0.11115989    -0.50278342     0.00018488     0.00104122    -0.00019736
H         0.79160310    -0.00884333     1.83102011     0.00216650     0.00071351     0.00100587
H        -0.89327533     0.08276881     1.90991358     0.00031270     0.00083574    -0.00057172
H        -1.00574352     0.11689691    -0.50527402    -0.00048153     0.00067451     0.00059013
     6
  Step:    13            Position(A)                                  Velocity(au)
C        -0.02740995     0.00246380    -0.02159962     0.00007817    -0.00007074    -0.00130796
N        -0.04983350    -0.07336821     1.32495914    -0.00023856    -0.00017313     0.00106839
H         0.90201711     0.11704453    -0.50407918     0.00033122     0.00103873    -0.00026015
H         0.80412361    -0.00479549     1.83686738     0.00222651     0.00071492     0.00104305
H        -0.89157691     0.08745487     1.90663323     0.00027826     0.00082244    -0.00057809
H        -1.00838290     0.12070855    -0.50209064    -0.00045242     0.00067265     0.00053428
     6
  Step:    14            Position(A)                                  Velocity(au)
C        -0.02702714     0.00206420    -0.02894136     0.00005776    -0.00007059    -0.00128125
N        -0.05116357    -0.07434480     1.33097336    -0.00022856    -0.00017157     0.00105294
H         0.90429363     0.12291420    -0.50572731     0.00046723     0.00103407    -0.00032059
H         0.81679828    -0.00075334     1.84282331     0.00222041     0.00071041     0.00104467
H        -0.89012654     0.09207556     1.90337194     0.00022516     0.00081147    -0.00056478
H        -1.01086308     0.12450857    -0.49922805    -0.00042486     0.00066941     0.00047608
     6
  Step:    15            Position(A)                                  Velocity(au)
C        -0.02675582     0.00166436    -0.03611078     0.00003901    -0.00007093    -0.00125046
N        -0.05242216    -0.07531143     1.33688456    -0.00021412    -0.00017003     0.00103463
H         0.90730889     0.12875617    -0.50771007     0.00059203     0.00103097    -0.00037834
H         0.82927152     0.00325050     1.84869910     0.00216390     0.00070308     0.00101943
H        -0.88902675     0.09664538     1.90023669     0.00015573     0.00080626    -0.00053574
H        -1.01319476     0.12829014    -0.49669861    -0.00040100     0.00066765     0.00041770
     6
  Step:    16            Position(A)                                  Velocity(au)
C        -0.02658579     0.00126175    -0.04308828     0.00003279    -0.00010634    -0.00180498
N        -0.05358604    -0.07626838     1.34267848    -0.00029060    -0.00025006     0.00150438
H         0.91099149     0.13457796    -0.51000761     0.00104351     0.00152649    -0.00064075
H         0.84127924     0.00720084     1.85435652     0.00306257     0.00102847     0.00144211
H        -0.88836475     0.10119705     1.89731096     0.00010657     0.00119683    -0.00073137
H        -1.01539976     0.13206192    -0.49450249    -0.00056516     0.00099022     0.00053293
     6
  Step:    17            Position(A)                                  Velocity(au)
C        -0.02643403     0.00065571    -0.05282699     0.00002196    -0.00010746    -0.00162816
N        -0.05516065    -0.07763614     1.35084701    -0.00026194    -0.00023226     0.00137458
H         0.91730341     0.14310342    -0.51408447     0.00116666     0.00147882    -0.00078506
H         0.85812255     0.01279270     1.86232413     0.00284654     0.00094169     0.00135130
H        -0.88803157     0.10781116     1.89344993     0.00000253     0.00113879    -0.00062184
H        -1.01881537     0.13755881    -0.49199767    -0.00063748     0.00094871     0.00035514
     6
  Step:    18            Position(A)                                  Velocity(au)
C        -0.02633643     0.00004145    -0.06157707     0.00000844    -0.00006738    -0.00090037
N        -0.05656050    -0.07890580     1.35828779    -0.00014187    -0.00013312     0.00077127
H         0.92423974     0.15137097    -0.51892248     0.00077955     0.00088634    -0.00056114
H         0.87360362     0.01789435     1.86970144     0.00159915     0.00052870     0.00076468
H        -0.88833597     0.11412873     1.89024959    -0.00007112     0.00067438    -0.00030960
H        -1.02263875     0.14283517    -0.49046960    -0.00043658     0.00056334     0.00011713
     6
  Step:    19            Position(A)                                  Velocity(au)
C        -0.02632259    -0.00034314    -0.06657360    -0.00000265    -0.00006921    -0.00087419
N        -0.05728024    -0.07965764     1.36258894    -0.00011335    -0.00013394     0.00075609
H         0.92880607     0.15637683    -0.52216756     0.00083373     0.00089097    -0.00058799
H         0.88203374     0.02084484     1.87373171     0.00138817     0.00051862     0.00066403
H        -0.88909376     0.11800148     1.88871587    -0.00019867     0.00070236    -0.00023373
H        -1.02504068     0.14603668    -0.48995221    -0.00041649     0.00057396     0.00006776
     6
  Step:    20            Position(A)                                  Velocity(au)
C        -0.02636622    -0.00073756    -0.07141718    -0.00001206    -0.00007134    -0.00085200
N        -0.05783644    -0.08041343     1.36679850    -0.00008474    -0.00013543     0.00074393
H         0.93362437     0.16139994    -0.52554102     0.00087495     0.00089841    -0.00061086
H         0.88922912     0.02373206     1.87717589     0.00117157     0.00051000     0.00056190
H        -0.89057222     0.12203470     1.88761871    -0.00032708     0.00073576    -0.00015714
H        -1.02732692     0.14929580    -0.48970684    -0.00039819     0.00058780     0.00002070
     6
  Step:    21            Position(A)                                  Velocity(au)
C        -0.02645786    -0.00114335    -0.07613079    -0.00001984    -0.00007353    -0.00083124
N        -0.05823080    -0.08117678     1.37093386    -0.00005624    -0.00013715     0.00073262
H         0.93862074     0.16645465    -0.52901982     0.00090080     0.00090563    -0.00062803
H         0.89517575     0.02656574     1.88003472     0.00094935     0.00050178     0.00045848
H        -0.89276278     0.12625485     1.88695317    -0.00045202     0.00077136    -0.00008165
H        -1.02950738     0.15263033    -0.48971999    -0.00038027     0.00060321    -0.00002442
     6
  Step:    22            Position(A)                                  Velocity(au)
C        -0.02658833    -0.00156075    -0.08072333    -0.00002599    -0.00007562    -0.00081048
N        -0.05846604    -0.08194884     1.37500055    -0.00002829    -0.00013879     0.00072095
H         0.94370932     0.17153889    -0.53257217     0.00090994     0.00091065    -0.00063853
H         0.89985762     0.02934974     1.88230883     0.00072363     0.00049352     0.00035491
H        -0.89563285     0.13067045     1.88670458    -0.00056879     0.00080652    -0.00000957
H        -1.03158425     0.15604904    -0.48998020    -0.00036191     0.00061911    -0.00006760
     6
  Step:    23            Position(A)                                  Velocity(au)
C        -0.02674860    -0.00198911    -0.08519564    -0.00003055    -0.00007750    -0.00078898
N        -0.05854722    -0.08272913     1.37899734    -0.00000146    -0.00014018     0.00070829
H         0.94879803     0.17663989    -0.53616153     0.00090197     0.00091227    -0.00064198
H         0.90326929     0.03208555     1.88400421     0.00049778     0.00048521     0.00025279
H        -0.89912443     0.13527541     1.88684609    -0.00067288     0.00083909     0.00005672
H        -1.03355517     0.15955483    -0.49047608    -0.00034266     0.00063487    -0.00010868
     6
  Step:    24            Position(A)                                  Velocity(au)
C        -0.02692985    -0.00242724    -0.08954448    -0.00003354    -0.00007911    -0.00076646
N        -0.05848232    -0.08351608     1.38291960     0.00002370    -0.00014117     0.00069443
H         0.95379372     0.18173845    -0.53974984     0.00087731     0.00090981    -0.00063850
H         0.90542298     0.03477465     1.88513515     0.00027571     0.00047713     0.00015395
H        -0.90315595     0.14005183     1.88733872    -0.00076041     0.00086733     0.00011510
H        -1.03541535     0.16314718    -0.49119534    -0.00032233     0.00065015    -0.00014744
     6
  Step:    25            Position(A)                                  Velocity(au)
C        -0.02712360    -0.00287359    -0.09376492    -0.00003506    -0.00008042    -0.00074291
N        -0.05828223    -0.08430744     1.38676133     0.00004666    -0.00014170     0.00067936
H         0.95860668     0.18681184    -0.54330015     0.00083706     0.00090298    -0.00062856
H         0.90635181     0.03742001     1.88572540     0.00006147     0.00046971     0.00006019
H        -0.90762606     0.14497244     1.88813297    -0.00082835     0.00088989     0.00016391
H        -1.03715894     0.16682367    -0.49212449    -0.00030088     0.00066480    -0.00018364
     6
  Step:    26            Position(A)                                  Velocity(au)
C        -0.02732188    -0.00332649    -0.09785189    -0.00003520    -0.00008141    -0.00071845
N        -0.05796052    -0.08510063     1.39051642     0.00006698    -0.00014175     0.00066319
H         0.96315395     0.19183589    -0.54677856     0.00078273     0.00089177    -0.00061290
H         0.90611038     0.04002713     1.88580818    -0.00014106     0.00046352    -0.00002681
H        -0.91241883     0.15000287     1.88917163    -0.00087468     0.00090577     0.00020205
H        -1.03877987     0.17058117    -0.49324882    -0.00027836     0.00067884    -0.00021708
     6
  Step:    27            Position(A)                                  Velocity(au)
C        -0.02751736    -0.00378419    -0.10180094    -0.00003410    -0.00008210    -0.00069330
N        -0.05753300    -0.08589295     1.39417919     0.00008432    -0.00014132     0.00064608
H         0.96736166     0.19678643    -0.55015551     0.00071615     0.00087632    -0.00059242
H         0.90477399     0.04260462     1.88542551    -0.00032834     0.00045919    -0.00010556
H        -0.91740949     0.15510370     1.89039290    -0.00089838     0.00091432     0.00022898
H        -1.04027243     0.17441665    -0.49455258    -0.00025489     0.00069239    -0.00024762
     6
  Step:    28            Position(A)                                  Velocity(au)
C        -0.02770339    -0.00424505    -0.10560869    -0.00003188    -0.00008251    -0.00066771
N        -0.05701712    -0.08668178     1.39774480     0.00009843    -0.00014046     0.00062821
H         0.97116637     0.20164024    -0.55340659     0.00063931     0.00085689    -0.00056811
H         0.90243683     0.04516459     1.88462719    -0.00049723     0.00045737    -0.00017478
H        -0.92247002     0.16023239     1.89173352    -0.00089940     0.00091516     0.00024474
H        -1.04163164     0.17832773    -0.49601926    -0.00023065     0.00070564    -0.00027517
     6
  Step:    29            Position(A)                                  Velocity(au)
C        -0.02787409    -0.00470755    -0.10927301    -0.00002868    -0.00008267    -0.00064189
N        -0.05643152    -0.08746476     1.40120922     0.00010915    -0.00013921     0.00060974
H         0.97451589     0.20637558    -0.55651301     0.00055423     0.00083382    -0.00054103
H         0.89920973     0.04772292     1.88346964    -0.00064502     0.00045877    -0.00023344
H        -0.92747428     0.16534493     1.89313165    -0.00087851     0.00090821     0.00024980
H        -1.04285350     0.18231320    -0.49763186    -0.00020582     0.00071886    -0.00029966
     6
  Step:    30            Position(A)                                  Velocity(au)
C        -0.02802436    -0.00517036    -0.11279292    -0.00002463    -0.00008263    -0.00061606
N        -0.05579545    -0.08823986     1.40456917     0.00011642    -0.00013765     0.00059080
H         0.97736942     0.21097258    -0.55946190     0.00046292     0.00080745    -0.00051222
H         0.89521759     0.05029931     1.88201453    -0.00076947     0.00046409    -0.00028071
H        -0.93230256     0.17039728     1.89452937    -0.00083721     0.00089357     0.00024506
H        -1.04393518     0.18637334    -0.49937317    -0.00018062     0.00073234    -0.00032111
     6
  Step:    31            Position(A)                                  Velocity(au)
C        -0.02814980    -0.00563237    -0.11616845    -0.00001986    -0.00008241    -0.00059035
N        -0.05512839    -0.08900550     1.40782195     0.00012024    -0.00013587     0.00057146
H         0.97969728     0.21541329    -0.56224622     0.00036729     0.00077812    -0.00048273
H         0.89059717     0.05291748     1.88032772    -0.00086870     0.00047407    -0.00031597
H        -0.93684513     0.17534652     1.89587457    -0.00077751     0.00087151     0.00023168
H        -1.04487511     0.19051023    -0.50122603    -0.00015529     0.00074646    -0.00033955
     6
  Step:    32            Position(A)                                  Velocity(au)
C        -0.02824668    -0.00609273    -0.11940037    -0.00001448    -0.00008208    -0.00056488
N        -0.05444969    -0.08976060     1.41096520     0.00012065    -0.00013395     0.00055177
H         0.98148030     0.21968156    -0.56486477     0.00026913     0.00074611    -0.00045357
H         0.88549479     0.05560523     1.87847807    -0.00094128     0.00048942    -0.00033883
H        -0.94100476     0.18015154     1.89712238    -0.00070175     0.00084238     0.00021101
H        -1.04567320     0.19472801    -0.50317350    -0.00013010     0.00076161    -0.00035503
     6
  Step:    33            Position(A)                                  Velocity(au)
C        -0.02831186    -0.00655088    -0.12248987    -0.00000857    -0.00008168    -0.00053966
N        -0.05377826    -0.09050456     1.41399665     0.00011775    -0.00013199     0.00053170
H         0.98270904     0.22376282    -0.56732199     0.00017006     0.00071167    -0.00042574
H         0.88006346     0.05839441     1.87653598    -0.00098634     0.00051087    -0.00034915
H        -0.94469825     0.18477341     1.89823589    -0.00061250     0.00080657     0.00018452
H        -1.04633102     0.19903322    -0.50519904    -0.00010537     0.00077825    -0.00036764
     6
  Step:    34            Position(A)                                  Velocity(au)
C        -0.02834260    -0.00700652    -0.12543816    -0.00000221    -0.00008126    -0.00051465
N        -0.05313230    -0.09123726     1.41691389     0.00011170    -0.00013004     0.00051120
H         0.98338296     0.22764373    -0.56962800     0.00007159     0.00067496    -0.00040027
H         0.87445960     0.06132084     1.87457172    -0.00100356     0.00053911    -0.00034714
H        -0.94785750     0.18917554     1.89918675    -0.00051247     0.00076446     0.00015375
H        -1.04685206     0.20343511    -0.50728665    -0.00008147     0.00079691    -0.00037749
     6
  Step:    35            Position(A)                                  Velocity(au)
C        -0.02833653    -0.00745973    -0.12824594     0.00000458    -0.00008090    -0.00048968
N        -0.05252901    -0.09195901     1.41971408     0.00010268    -0.00012819     0.00049013
H         0.98350972     0.23131176    -0.57179874    -0.00002491     0.00063607    -0.00037822
H         0.86883925     0.06442405     1.87265346    -0.00099332     0.00057481    -0.00033332
H        -0.95042992     0.19332340     1.89995547    -0.00040439     0.00071634     0.00012029
H        -1.04724221     0.20794617    -0.50942100    -0.00005889     0.00081823    -0.00038472
     6
  Step:    36            Position(A)                                  Velocity(au)
C        -0.02829137    -0.00791097    -0.13091268     0.00001178    -0.00008067    -0.00046442
N        -0.05198436    -0.09267044     1.42239346     0.00009093    -0.00012648     0.00046827
H         0.98310452     0.23475481    -0.57385642    -0.00011812     0.00059502    -0.00036080
H         0.86335451     0.06774710     1.87084535    -0.00095660     0.00061858    -0.00030855
H        -0.95237848     0.19718397     1.90053151    -0.00029098     0.00066237     0.00008573
H        -1.04751047     0.21258274    -0.51158769    -0.00003829     0.00084299    -0.00038953
     6
  Step:    37            Position(A)                                  Velocity(au)
C        -0.02820484    -0.00836119    -0.13343555     0.00001943    -0.00008068    -0.00043833
N        -0.05151297    -0.09337237     1.42494669     0.00007669    -0.00012492     0.00044524
H         0.98218982     0.23796074    -0.57583043    -0.00020675     0.00055178    -0.00034944
H         0.85814994     0.07133624     1.86920562    -0.00089497     0.00067093    -0.00027404
H        -0.95368144     0.20072491     1.90091340    -0.00017492     0.00060254     0.00005170
H        -1.04767003     0.21736594    -0.51377370    -0.00002056     0.00087212    -0.00039224
     6
  Step:    38            Position(A)                                  Velocity(au)
C        -0.02807438    -0.00881203    -0.13580809     0.00002759    -0.00008107    -0.00041055
N        -0.05112792    -0.09406561     1.42736602     0.00006024    -0.00012348     0.00042047
H         0.98079550     0.24091722    -0.57775907    -0.00028937     0.00050634    -0.00034598
H         0.85335933     0.07524024     1.86778479    -0.00081062     0.00073221    -0.00023130
H        -0.95433200     0.20391332     1.90110888    -0.00005882     0.00053662     0.00001987
H        -1.04774005     0.22232280    -0.51596830    -0.00000703     0.00090682    -0.00039343
     6
  Step:    39            Position(A)                                  Velocity(au)
C        -0.02789693    -0.00926605    -0.13801800     0.00003635    -0.00008204    -0.00037974
N        -0.05084060    -0.09475064     1.42963984     0.00004191    -0.00012206     0.00039307
H         0.97895996     0.24361228    -0.57969216    -0.00036422     0.00045896    -0.00035284
H         0.84910209     0.07950889     1.86662394    -0.00070636     0.00080225    -0.00018205
H        -0.95433799     0.20671449     1.90113517     0.00005471     0.00046423    -0.00000805
H        -1.04774849     0.22748749    -0.51816504     0.00000037     0.00094840    -0.00039423
     6
  Step:    40            Position(A)                                  Velocity(au)
C        -0.02766894    -0.00972719    -0.14004392     0.00004575    -0.00008391    -0.00034383
N        -0.05066045    -0.09542716     1.43175051     0.00002210    -0.00012045     0.00036164
H         0.97673272     0.24603676    -0.58169488    -0.00042884     0.00041080    -0.00037312
H         0.84548020     0.08418904     1.86575404    -0.00058549     0.00087968    -0.00012795
H        -0.95372175     0.20909159     1.90101908     0.00016306     0.00038526    -0.00003043
H        -1.04773596     0.23290182    -0.52036583    -0.00000102     0.00099795    -0.00039685
     6
  Step:    41            Position(A)                                  Velocity(au)
C        -0.02738694    -0.01020137    -0.14185082     0.00005557    -0.00008705    -0.00030005
N        -0.05059425    -0.09609337     1.43367116     0.00000143    -0.00011834     0.00032431
H         0.97417953     0.24819155    -0.58385139    -0.00047973     0.00036500    -0.00040998
H         0.84257550     0.08931500     1.86519765    -0.00045190     0.00096048    -0.00006994
H        -0.95252028     0.21100910     1.90079601     0.00026360     0.00030112    -0.00004613
H        -1.04775982     0.23861200    -0.52258886    -0.00001403     0.00105508    -0.00040521
     6
  Step:    42            Position(A)                                  Velocity(au)
C        -0.02704985    -0.01069688    -0.14338648     0.00006502    -0.00009180    -0.00024585
N        -0.05064455    -0.09674540     1.43536328    -0.00001912    -0.00011535     0.00027935
H         0.97138858     0.25010287    -0.58626197    -0.00051291     0.00032774    -0.00046453
H         0.84044604     0.09488870     1.86497486    -0.00031042     0.00103664    -0.00000775
H        -0.95078529     0.21244601     1.90050522     0.00035383     0.00021661    -0.00005539
H        -1.04789227     0.24465531    -0.52487987    -0.00003966     0.00111585    -0.00042470
     6
  Step:    43            Position(A)                                  Velocity(au)
C        -0.02666308    -0.01122330    -0.14458769     0.00007270    -0.00009815    -0.00018096
N        -0.05080708    -0.09737753     1.43678098    -0.00003820    -0.00011135     0.00022665
H         0.96846963     0.25184012    -0.58902276    -0.00052607     0.00030662    -0.00053318
H         0.83911973     0.10085532     1.86511137    -0.00016706     0.00109776     0.00005966
H        -0.94858129     0.21342049     1.90017933     0.00043188     0.00014015    -0.00006029
H        -1.04820128     0.25103413    -0.52731683    -0.00007424     0.00117230    -0.00045955
     6
  Step:    44            Position(A)                                  Velocity(au)
C        -0.02624101    -0.01178877    -0.14539963     0.00007719    -0.00010563    -0.00010826
N        -0.05106955    -0.09798412     1.43788480    -0.00005454    -0.00010648     0.00016835
H         0.96553607     0.25351406    -0.59219359    -0.00052048     0.00030687    -0.00060808
H         0.83858746     0.10710130     1.86563859    -0.00002856     0.00113564     0.00013243
H        -0.94598058     0.21400516     1.89983446     0.00049678     0.00008042    -0.00006376
H        -1.04871815     0.25769710    -0.52999236    -0.00010975     0.00121551    -0.00051000
     6