     6
  Step:     0            Position(A)                                  Velocity(au)
C        -0.04219823     0.00355266     0.00453500     0.00002715     0.00007906     0.00025773
N        -0.03793033    -0.05138738     1.30892024     0.00014169    -0.00011550    -0.00014677
H         0.93174543     0.02252410    -0.47154109     0.00012439    -0.00035946    -0.00027266
H         0.82447534    -0.10158556     1.82850313    -0.00073039     0.00071660    -0.00083116
H        -0.93814244    -0.05255589     1.87440557    -0.00130056     0.00036358     0.00056481
H        -1.00108643     0.13360292    -0.58258199    -0.00038605    -0.00005770    -0.00049261
     6
  Step:     1            Position(A)                                  Velocity(au)
C        -0.04207388     0.00398463     0.00561614     0.00001816     0.00007883     0.00013688
N        -0.03720396    -0.05204149     1.30839465     0.00012204    -0.00012390    -0.00004522
H         0.93257972     0.02065952    -0.47319864     0.00017892    -0.00032138    -0.00033109
H         0.82082620    -0.09760000     1.82417097    -0.00059017     0.00074182    -0.00074439
H        -0.94500706    -0.05047999     1.87733893    -0.00119650     0.00039659     0.00049987
H        -1.00298323     0.13334882    -0.58510522    -0.00030465    -0.00003457    -0.00042711
     6
  Step:     2            Position(A)                                  Velocity(au)
C        -0.04199963     0.00441482     0.00603209     0.00000896     0.00007849     0.00001504
N        -0.03659555    -0.05274246     1.30842564     0.00009890    -0.00013266     0.00005631
H         0.93370229     0.01900911    -0.47516230     0.00022932    -0.00028166    -0.00038454
H         0.81802049    -0.09347211     1.82036158    -0.00042389     0.00076903    -0.00064129
H        -0.95122883    -0.04821834     1.87987280    -0.00106831     0.00043135     0.00042057
H        -1.00441839     0.13322480    -0.58725341    -0.00021830    -0.00001034    -0.00035649
     6
  Step:     3            Position(A)                                  Velocity(au)
C        -0.04197592     0.00484279     0.00578055    -0.00000021     0.00007811    -0.00010686
N        -0.03612262    -0.05349203     1.30901035     0.00007286    -0.00014173     0.00015704
H         0.93508707     0.01757983    -0.47740314     0.00027437    -0.00024107    -0.00043264
H         0.81619139    -0.08919147     1.81715911    -0.00023539     0.00079817    -0.00052402
H        -0.95668792    -0.04576358     1.88193744    -0.00092028     0.00046713     0.00033004
H        -1.00537017     0.13323578    -0.58900306    -0.00012870     0.00001456    -0.00028235
     6
  Step:     4            Position(A)                                  Velocity(au)
C        -0.04200196     0.00526856     0.00486415    -0.00000914     0.00007777    -0.00022794
N        -0.03579925    -0.05429151     1.31014202     0.00004454    -0.00015097     0.00025629
H         0.93670114     0.01637419    -0.47989100     0.00031285    -0.00020035    -0.00047521
H         0.81544767    -0.08474823     1.81463408    -0.00002954     0.00082897    -0.00039522
H        -0.96128742    -0.04311269     1.88348010    -0.00075623     0.00050305     0.00023122
H        -1.00582503     0.13338397    -0.59033947    -0.00003720     0.00003965    -0.00020622
     6
  Step:     5            Position(A)                                  Velocity(au)
C        -0.04207581     0.00569251     0.00329009    -0.00001762     0.00007750    -0.00034727
N        -0.03563596    -0.05514157     1.31181058     0.00001463    -0.00016026     0.00035340
H         0.93850528     0.01539083    -0.48259538     0.00034366    -0.00016008    -0.00051218
H         0.81586863    -0.08013406     1.81284089     0.00018779     0.00086098    -0.00025805
H        -0.96495061    -0.04026714     1.88446375    -0.00057971     0.00053827     0.00012691
H        -1.00577661     0.13366898    -0.59125627     0.00005483     0.00006447    -0.00012959
     6
  Step:     6            Position(A)                                  Velocity(au)
C        -0.04219444     0.00611518     0.00107057    -0.00002544     0.00007730    -0.00046375
N        -0.03563944    -0.05604221     1.31400252    -0.00001613    -0.00016943     0.00044758
H         0.94045522     0.01462545    -0.48548604     0.00036600    -0.00012074    -0.00054353
H         0.81749905    -0.07534303     1.81181521     0.00040974     0.00089355    -0.00011620
H        -0.96762012    -0.03723266     1.88486649    -0.00039434     0.00057195     0.00001993
H        -1.00522609     0.13408828    -0.59175513     0.00014580     0.00008870    -0.00005398
     6
  Step:     7            Position(A)                                  Velocity(au)
C        -0.04235372     0.00653697    -0.00177607    -0.00003239     0.00007711    -0.00057593
N        -0.03581218    -0.05699253     1.31670015    -0.00004690    -0.00017827     0.00053782
H         0.94250358     0.01407185    -0.48853316     0.00037941    -0.00008260    -0.00056927
H         0.82034483    -0.07037259     1.81157147     0.00062862     0.00092581     0.00002614
H        -0.96925857    -0.03401886     1.88468144    -0.00020408     0.00060333    -0.00008684
H        -1.00418388     0.13463799    -0.59184596     0.00023370     0.00011211     0.00001899
     6
  Step:     8            Position(A)                                  Velocity(au)
C        -0.04254843     0.00695787    -0.00522377    -0.00003825     0.00007681    -0.00068207
N        -0.03615205    -0.05799057     1.31988035    -0.00007677    -0.00018655     0.00062285
H         0.94460177     0.01372274    -0.49170758     0.00038380    -0.00004585    -0.00058945
H         0.82436921    -0.06522487     1.81210086     0.00083608     0.00095666     0.00016444
H        -0.96985051    -0.03063892     1.88391738    -0.00001343     0.00063166    -0.00019029
H        -1.00267197     0.13531352    -0.59154756     0.00031609     0.00013457     0.00008755
     6
  Step:     9            Position(A)                                  Velocity(au)
C        -0.04277216     0.00737721    -0.00923696    -0.00004281     0.00007629    -0.00078010
N        -0.03665191    -0.05903306     1.32351319    -0.00010473    -0.00019396     0.00070112
H         0.94670178     0.01357036    -0.49498085     0.00037939    -0.00001060    -0.00060412
H         0.82949035    -0.05990811     1.81337016     0.00102351     0.00098471     0.00029403
H        -0.96940553    -0.02710938     1.88259994     0.00017241     0.00065628    -0.00028704
H        -1.00072634     0.13611000    -0.59088833     0.00039008     0.00015602     0.00014975
     6
  Step:    10            Position(A)                                  Velocity(au)
C        -0.04301738     0.00779352    -0.01376906    -0.00004585     0.00007537    -0.00086774
N        -0.03729926    -0.06011525     1.32756049    -0.00012975    -0.00020022     0.00077091
H         0.94875759     0.01360668    -0.49832517     0.00036666     0.00002304    -0.00061335
H         0.83558081    -0.05443826     1.81532174     0.00118251     0.00100835     0.00041042
H        -0.96796193    -0.02345002     1.88077311     0.00034758     0.00067653    -0.00037349
H        -0.99839898     0.13702262    -0.58990721     0.00045255     0.00017644     0.00020355
     6
  Step:    11            Position(A)                                  Velocity(au)
C        -0.04327539     0.00820446    -0.01876144    -0.00004718     0.00007390    -0.00094269
N        -0.03807611    -0.06123075     1.33197483    -0.00015082    -0.00020502     0.00083041
H         0.95072635     0.01382329    -0.50171308     0.00034635     0.00005492    -0.00061714
H         0.84246982    -0.04884023     1.81787501     0.00130559     0.00102586     0.00050957
H        -0.96559039    -0.01968362     1.87850048     0.00050572     0.00069191    -0.00044593
H        -0.99575903     0.13804659    -0.58865409     0.00050034     0.00019576     0.00024694
     6
  Step:    12            Position(A)                                  Velocity(au)
C        -0.04353659     0.00860682    -0.02414343    -0.00004667     0.00007176    -0.00100286
N        -0.03895910    -0.06237149     1.33669918    -0.00016702    -0.00020808     0.00087792
H         0.95256926     0.01421112    -0.50511685     0.00031935     0.00008485    -0.00061541
H         0.84994899    -0.04314854     1.82092958     0.00138692     0.00103558     0.00058830
H        -0.96239648    -0.01583547     1.87586562     0.00064025     0.00070208    -0.00050080
H        -0.99289268     0.13917700    -0.58718958     0.00053057     0.00021395     0.00027809
     6
  Step:    13            Position(A)                                  Velocity(au)
C        -0.04379069     0.00899672    -0.02983341    -0.00004428     0.00006886    -0.00104667
N        -0.03992011    -0.06352798     1.34166741    -0.00017762    -0.00020920     0.00091210
H         0.95425213     0.01476004    -0.50850744     0.00028671     0.00011258    -0.00060803
H         0.85778192    -0.03740695     1.82437006     0.00142301     0.00103619     0.00064461
H        -0.95852175    -0.01193237     1.87297148     0.00074501     0.00070702    -0.00053500
H        -0.98990136     0.14040869    -0.58558381     0.00054102     0.00023094     0.00029562
     6
  Step:    14            Position(A)                                  Velocity(au)
C        -0.04402721     0.00936983    -0.03574159    -0.00004003     0.00006517    -0.00107340
N        -0.04092730    -0.06468968     1.34680620    -0.00018219    -0.00020835     0.00093230
H         0.95574634     0.01545863    -0.51185439     0.00024982     0.00013793    -0.00059524
H         0.86571740    -0.03166647     1.82807254     0.00141335     0.00102700     0.00067795
H        -0.95414102    -0.00800102     1.86993724     0.00081502     0.00070713    -0.00054643
H        -0.98689763     0.14173606    -0.58391377     0.00053055     0.00024670     0.00029883
     6
  Step:    15            Position(A)                                  Velocity(au)
C        -0.04423607     0.00972172    -0.04177475    -0.00003411     0.00006075    -0.00108354
N        -0.04194692    -0.06584579     1.35203899    -0.00018072    -0.00020564     0.00093885
H         0.95703129     0.01629442    -0.51512936     0.00021037     0.00016080    -0.00057793
H         0.87350506    -0.02598181     1.83191213     0.00136058     0.00100823     0.00068935
H        -0.94945485    -0.00406572     1.86689262     0.00084740     0.00070338    -0.00053434
H        -0.98399914     0.14315321    -0.58225936     0.00049930     0.00026131     0.00028787
     6
  Step:    16            Position(A)                                  Velocity(au)
C        -0.04440814     0.01004835    -0.04784290    -0.00004320     0.00009001    -0.00174236
N        -0.04294558    -0.06698627     1.35729150    -0.00028035    -0.00032525     0.00150706
H         0.95809576     0.01725446    -0.51830881     0.00027481     0.00029280    -0.00090019
H         0.88091268    -0.02040631     1.83577140     0.00205143     0.00158442     0.00110033
H        -0.94467703    -0.00014552     1.86396958     0.00135957     0.00112603    -0.00080682
H        -0.98132128     0.14465440    -0.58069878     0.00072476     0.00044404     0.00042592
     6
  Step:    17            Position(A)                                  Velocity(au)
C        -0.04463589     0.01052676    -0.05723455    -0.00003615     0.00007857    -0.00156919
N        -0.04447387    -0.06876100     1.36545658    -0.00025566    -0.00030095     0.00137164
H         0.95980802     0.01886472    -0.52357518     0.00032696     0.00027502    -0.00095355
H         0.89204568    -0.01171845     1.84187865     0.00185751     0.00148012     0.00104370
H        -0.93722515     0.00599051     1.85965036     0.00124426     0.00104136    -0.00070243
H        -0.97766764     0.14718228    -0.57877441     0.00055461     0.00044937     0.00024996
     6
  Step:    18            Position(A)                                  Velocity(au)
C        -0.04481850     0.01094026    -0.06565486    -0.00002725     0.00006670    -0.00139061
N        -0.04584755    -0.07040234     1.37286105    -0.00022467    -0.00027619     0.00123047
H         0.96180712     0.02037618    -0.52913259     0.00037204     0.00025601    -0.00099496
H         0.90199742    -0.00360539     1.84761850     0.00162681     0.00137140     0.00096576
H        -0.93055335     0.01167503     1.85599620     0.00107940     0.00095980    -0.00057039
H        -0.97502586     0.14975523    -0.57786150     0.00036846     0.00045613     0.00007095
     6
  Step:    19            Position(A)                                  Velocity(au)
C        -0.04494639     0.01128676    -0.07307982    -0.00001719     0.00005525    -0.00122337
N        -0.04703388    -0.07190804     1.37947721    -0.00019091    -0.00025393     0.00109800
H         0.96404721     0.02178183    -0.53491227     0.00041171     0.00023839    -0.00103384
H         0.91058241     0.00390793     1.85288299     0.00138481     0.00127250     0.00088092
H        -0.92492597     0.01692694     1.85315110     0.00088371     0.00089141    -0.00042212
H        -0.97346923     0.15237965    -0.57796595     0.00017741     0.00046807    -0.00010548
     6
  Step:    20            Position(A)                                  Velocity(au)
C        -0.04501411     0.01156903    -0.07957631    -0.00000638     0.00004457    -0.00107421
N        -0.04801999    -0.07329197     1.38535583    -0.00015625    -0.00023544     0.00098024
H         0.96649225     0.02308896    -0.54089734     0.00044739     0.00022331    -0.00107652
H         0.91775601     0.01087522     1.85764306     0.00114417     0.00118993     0.00079718
H        -0.92049712     0.02181895     1.85119264     0.00066870     0.00084030    -0.00026401
H        -0.97300696     0.15508170    -0.57906184    -0.00001300     0.00048718    -0.00027814
     6
  Step:    21            Position(A)                                  Velocity(au)
C        -0.04501865     0.01179163    -0.08524724     0.00000495     0.00003460    -0.00094212
N        -0.04880374    -0.07457485     1.39058024    -0.00012130    -0.00022054     0.00087650
H         0.96911478     0.02431121    -0.54710586     0.00047892     0.00021060    -0.00112445
H         0.92354230     0.01738610     1.86191255     0.00090731     0.00112316     0.00071659
H        -0.91735169     0.02644495     1.85016073     0.00044020     0.00080541    -0.00009901
H        -0.97361646     0.15789794    -0.58111644    -0.00019996     0.00051325    -0.00044699
     6
  Step:    22            Position(A)                                  Velocity(au)
C        -0.04495834     0.01195884    -0.09018929     0.00001658     0.00002519    -0.00082315
N        -0.04938639    -0.07577634     1.39522960    -0.00008619    -0.00020839     0.00078341
H         0.97188726     0.02546134    -0.55356430     0.00050478     0.00019948    -0.00117573
H         0.92797688     0.02352768     1.86571544     0.00067277     0.00106851     0.00063839
H        -0.91553824     0.03089193     1.85007730     0.00020289     0.00078318     0.00007033
H        -0.97525946     0.16086345    -0.58409724    -0.00038037     0.00054456    -0.00061090
     6
  Step:    23            Position(A)                                  Velocity(au)
C        -0.04483277     0.01207407    -0.09447692     0.00002821     0.00001622    -0.00071365
N        -0.04977014    -0.07691141     1.39936433    -0.00005123    -0.00019811     0.00069778
H         0.97477470     0.02654793    -0.56028893     0.00052307     0.00018918    -0.00122737
H         0.93108577     0.02936692     1.86907062     0.00043954     0.00102214     0.00056156
H        -0.91507672     0.03522643     1.85094929    -0.00003694     0.00076966     0.00024036
H        -0.97788142     0.16400384    -0.58796620    -0.00055005     0.00057891    -0.00076742
     6
  Step:    24            Position(A)                                  Velocity(au)
C        -0.04464308     0.01214005    -0.09816414     0.00003952     0.00000765    -0.00061118
N        -0.04995885    -0.07799021     1.40302718    -0.00001698    -0.00018905     0.00061749
H         0.97773244     0.02757534    -0.56727989     0.00053211     0.00017911    -0.00127662
H         0.93288868     0.03494986     1.87199078     0.00020830     0.00098124     0.00048573
H        -0.91595108     0.03949275     1.85276330    -0.00027125     0.00076140     0.00040641
H        -0.98140617     0.16733268    -0.59267294    -0.00070427     0.00061423    -0.00091357
     6
  Step:    25            Position(A)                                  Velocity(au)
C        -0.04439211     0.01215933    -0.10129127     0.00005018    -0.00000050    -0.00051436
N        -0.04995944    -0.07901917     1.40624901     0.00001582    -0.00018071     0.00054132
H         0.98070748     0.02854491    -0.57452258     0.00053073     0.00016894    -0.00132138
H         0.93340826     0.04030726     1.87448621    -0.00001897     0.00094404     0.00041118
H        -0.91810101     0.04371569     1.85548060    -0.00049115     0.00075551     0.00056338
H        -0.98573370     0.17085218    -0.59815207    -0.00083857     0.00064870    -0.00104650
     6
  Step:    26            Position(A)                                  Velocity(au)
C        -0.04408439     0.01213449    -0.10389062     0.00005990    -0.00000818    -0.00042243
N        -0.04978268    -0.08000208     1.40905385     0.00004640    -0.00017277     0.00046865
H         0.98364121     0.02945620    -0.58199117     0.00051824     0.00015850    -0.00136012
H         0.93267748     0.04546015     1.87656856    -0.00023952     0.00090948     0.00033867
H        -0.92141916     0.04790407     1.85903556    -0.00068803     0.00074959     0.00070633
H        -0.99074223     0.17455485    -0.60432399    -0.00094928     0.00068083    -0.00116382
     6
  Step:    27            Position(A)                                  Velocity(au)
C        -0.04372585     0.01206830    -0.10599014     0.00006844    -0.00001536    -0.00033502
N        -0.04944334    -0.08094093     1.41146205     0.00007400    -0.00016499     0.00039920
H         0.98647212     0.03030795    -0.58965182     0.00049443     0.00014774    -0.00139181
H         0.93074400     0.05042380     1.87825342    -0.00045018     0.00087698     0.00026923
H        -0.92575424     0.05205375     1.86333741    -0.00085441     0.00074170     0.00083097
H        -0.99629294     0.17842536    -0.61109774    -0.00103376     0.00070942    -0.00126373
     6
  Step:    28            Position(A)                                  Velocity(au)
C        -0.04332351     0.01196374    -0.10761537     0.00007563    -0.00002198    -0.00025194
N        -0.04895994    -0.08183644     1.41349213     0.00009800    -0.00015722     0.00033282
H         0.98913829     0.03109871    -0.59746523     0.00045947     0.00013668    -0.00141574
H         0.92767235     0.05521038     1.87956186    -0.00064768     0.00084628     0.00020402
H        -0.93091845     0.05615024     1.86827428    -0.00098452     0.00073028     0.00093393
H        -1.00223556     0.18244211    -0.61837412    -0.00109051     0.00073352    -0.00134509
     6
  Step:    29            Position(A)                                  Velocity(au)
C        -0.04288513     0.01182399    -0.10879057     0.00008139    -0.00002801    -0.00017308
N        -0.04835397    -0.08268853     1.41516151     0.00011792    -0.00014936     0.00026943
H         0.99157945     0.03182723    -0.60538863     0.00041385     0.00012540    -0.00143152
H         0.92354467     0.05983067     1.88052118    -0.00082875     0.00081732     0.00014425
H        -0.93669777     0.06017127     1.87371862    -0.00107463     0.00071422     0.00101292
H        -1.00841464     0.18657885    -0.62604927    -0.00111914     0.00075247    -0.00140739
     6
  Step:    30            Position(A)                                  Velocity(au)
C        -0.04241877     0.01165236    -0.10953921     0.00008569    -0.00003344    -0.00009838
N        -0.04764918    -0.08349663     1.41648696     0.00013343    -0.00014136     0.00020898
H         0.99373848     0.03249264    -0.61337726     0.00035829     0.00011400    -0.00143899
H         0.91846039     0.06429527     1.88116525    -0.00099035     0.00079024     0.00009115
H        -0.94286346     0.06408915     1.87953334    -0.00112315     0.00069281     0.00106678
H        -1.01467537     0.19080612    -0.63401790    -0.00112026     0.00076585    -0.00145067
     6
  Step:    31            Position(A)                                  Velocity(au)
C        -0.04193248     0.01145222    -0.10988426     0.00008857    -0.00003826    -0.00002780
N        -0.04687061    -0.08425997     1.41748465     0.00014438    -0.00013321     0.00015138
H         0.99556250     0.03309455    -0.62138565     0.00029368     0.00010256    -0.00143821
H         0.91253514     0.06861560     1.88153445    -0.00112972     0.00076529     0.00004588
H        -0.94918362     0.06787316     1.88557789    -0.00113044     0.00066573     0.00109544
H        -1.02086843     0.19509269    -0.64217614    -0.00109534     0.00077351    -0.00147551
     6
  Step:    32            Position(A)                                  Velocity(au)
C        -0.04143399     0.01122694    -0.10984828     0.00009010    -0.00004248     0.00003875
N        -0.04604379    -0.08497781     1.41817013     0.00015074    -0.00012495     0.00009653
H         0.99700396     0.03363305    -0.62936893     0.00022108     0.00009118    -0.00142946
H         0.90589893     0.07280459     1.88167534    -0.00124447     0.00074284     0.00000951
H        -0.95543297     0.07149154     1.89171368    -0.00109853     0.00063300     0.00109971
H        -1.02685457     0.19940691    -0.65042426    -0.00104653     0.00077553    -0.00148290
     6
  Step:    33            Position(A)                                  Velocity(au)
C        -0.04093042     0.01097980    -0.10945334     0.00009041    -0.00004612     0.00010134
N        -0.04519409    -0.08564964     1.41855823     0.00015262    -0.00011663     0.00004430
H         0.99802131     0.03410865    -0.63728389     0.00014162     0.00007993    -0.00141318
H         0.89869430     0.07687739     1.88164023    -0.00133270     0.00072337    -0.00001699
H        -0.96140132     0.07491333     1.89780870    -0.00103077     0.00059492     0.00108117
H        -1.03250777     0.20371796    -0.65866875    -0.00097648     0.00077216    -0.00147420
     6
  Step:    34            Position(A)                                  Velocity(au)
C        -0.04042818     0.01071392    -0.10872094     0.00008965    -0.00004921     0.00016010
N        -0.04434596    -0.08627531     1.41866295     0.00015023    -0.00010834    -0.00000547
H         0.99857939     0.03452218    -0.64508988     0.00005645     0.00006885    -0.00138995
H         0.89107334     0.08085168     1.88148636    -0.00139307     0.00070734    -0.00003287
H        -0.96689972     0.07810975     1.90374116    -0.00093137     0.00055199     0.00104193
H        -1.03771739     0.20799679    -0.66682398    -0.00088800     0.00076381    -0.00145090
     6
  Step:    35            Position(A)                                  Velocity(au)
C        -0.03993292     0.01043223    -0.10767191     0.00008795    -0.00005180     0.00021519
N        -0.04352252    -0.08685511     1.41849734     0.00014387    -0.00010015    -0.00005297
H         0.99864946     0.03487473    -0.65274951    -0.00003328     0.00005799    -0.00136041
H         0.88319399     0.08474774     1.88127452    -0.00142499     0.00069520    -0.00003766
H        -0.97176442     0.08105520     1.90940196    -0.00080513     0.00050486     0.00098444
H        -1.04238834     0.21221673    -0.67481260    -0.00078395     0.00075098    -0.00141461
     6
  Step:    36            Position(A)                                  Velocity(au)
C        -0.03944942     0.01013745    -0.10632618     0.00008547    -0.00005393     0.00026679
N        -0.04274495    -0.08738981     1.41807349     0.00013391    -0.00009214    -0.00009838
H         0.99820908     0.03516749    -0.66022905    -0.00012649     0.00004735    -0.00132526
H         0.87521556     0.08858812     1.88106730    -0.00142864     0.00068732    -0.00003122
H        -0.97585953     0.08372799     1.91469640    -0.00065717     0.00045426     0.00091140
H        -1.04644144     0.21635400    -0.68256626    -0.00066713     0.00073421    -0.00136693
     6
  Step:    37            Position(A)                                  Velocity(au)
C        -0.03898169     0.00983203    -0.10470274     0.00008235    -0.00005565     0.00031509
N        -0.04203219    -0.08788060     1.41740246     0.00012080    -0.00008439    -0.00014189
H         0.99724175     0.03540172    -0.66749858    -0.00022216     0.00003694    -0.00128516
H         0.86729428     0.09239708     1.88092706    -0.00140500     0.00068393    -0.00001378
H        -0.97907817     0.08611073     1.91954515    -0.00049260     0.00040096     0.00082554
H        -1.04981296     0.22038793    -0.69002553    -0.00054022     0.00071407    -0.00130946
     6
  Step:    38            Position(A)                                  Velocity(au)
C        -0.03853292     0.00951815    -0.10281947     0.00007872    -0.00005699     0.00036029
N        -0.04140058    -0.08832905     1.41649433     0.00010499    -0.00007696    -0.00018368
H         0.99573658     0.03557862    -0.67453198    -0.00031935     0.00002674    -0.00124076
H         0.85957885     0.09619975     1.88091394    -0.00135574     0.00068509     0.00001408
H        -0.98134177     0.08819036     1.92388406    -0.00031631     0.00034570     0.00072949
H        -1.05245371     0.22430106    -0.69713966    -0.00040567     0.00069110    -0.00124365
     6
  Step:    39            Position(A)                                  Velocity(au)
C        -0.03810565     0.00919777    -0.10069319     0.00007469    -0.00005801     0.00040258
N        -0.04086378    -0.08873705     1.41535838     0.00008699    -0.00006988    -0.00022386
H         0.99368783     0.03569927    -0.68130660    -0.00041716     0.00001671    -0.00119262
H         0.85220667     0.10002125     1.88108379    -0.00128320     0.00069069     0.00005142
H        -0.98259827     0.08995795     1.92766345    -0.00013283     0.00028918     0.00062572
H        -1.05432754     0.22807893    -0.70386576    -0.00026567     0.00066580    -0.00117081
     6
  Step:    40            Position(A)                                  Velocity(au)
C        -0.03770181     0.00887260    -0.09833973     0.00007036    -0.00005875     0.00044211
N        -0.04043264    -0.08910663     1.41400325     0.00006729    -0.00006317    -0.00026254
H         0.99109461     0.03576458    -0.68780296    -0.00051475     0.00000683    -0.00114123
H         0.84529995     0.10388549     1.88148610    -0.00119037     0.00070038     0.00009688
H        -0.98281982     0.09140830     1.93084689     0.00005368     0.00023204     0.00051652
H        -1.05540994     0.23170982    -0.71016797    -0.00012216     0.00063862    -0.00109208
     6
  Step:    41            Position(A)                                  Velocity(au)
C        -0.03732282     0.00854414    -0.09577409     0.00006580    -0.00005922     0.00047901
N        -0.04011503    -0.08943989     1.41243725     0.00004646    -0.00005683    -0.00029974
H         0.98796056     0.03577526    -0.69400427    -0.00061130    -0.00000295    -0.00108700
H         0.83896216     0.10781389     1.88216172    -0.00108088     0.00071358     0.00014874
H        -0.98200104     0.09253976     1.93341044     0.00023929     0.00017489     0.00040404
H        -1.05568673     0.23518448    -0.71601662     0.00002312     0.00060996    -0.00100846
     6
  Step:    42            Position(A)                                  Velocity(au)
C        -0.03696975     0.00821376    -0.09301065     0.00006108    -0.00005946     0.00051334
N        -0.03991577    -0.08973890     1.41066862     0.00002504    -0.00005085    -0.00033543
H         0.98429376     0.03573181    -0.69989602    -0.00070599    -0.00001265    -0.00103028
H         0.83327502     0.11182416     1.88314088    -0.00095877     0.00072949     0.00020493
H        -0.98015763     0.09335393     1.93534187     0.00042033     0.00011828     0.00029032
H        -1.05515276     0.23849573    -0.72138726     0.00016861     0.00058013    -0.00092079
     6
  Step:    43            Position(A)                                  Velocity(au)
C        -0.03664332     0.00788265    -0.09006346     0.00005625    -0.00005949     0.00054511
N        -0.03983651    -0.09000559     1.40870583     0.00000360    -0.00004520    -0.00036951
H         0.98010676     0.03563449    -0.70546562    -0.00079797    -0.00002233    -0.00097138
H         0.82829632     0.11592908     1.88444147    -0.00082848     0.00074712     0.00026310
H        -0.97732510     0.09385561     1.93664011     0.00059326     0.00006280     0.00017736
H        -1.05381101     0.24163817    -0.72625994     0.00031288     0.00054944    -0.00082984
     6
  Step:    44            Position(A)                                  Velocity(au)
C        -0.03634404     0.00755194    -0.08694651     0.00005133    -0.00005932     0.00057430
N        -0.03987572    -0.09024171     1.40655796    -0.00001727    -0.00003983    -0.00040185
H         0.97541670     0.03548337    -0.71070218    -0.00088635    -0.00003201    -0.00091057
H         0.82405854     0.12013553     1.88606779    -0.00069460     0.00076532     0.00032073
H        -0.97355785     0.09405260     1.93731487     0.00075472     0.00000900     0.00006707
H        -1.05167212     0.24460799    -0.73061883     0.00045453     0.00051814    -0.00073631
     6