|===============================================================================
|
|  DFTB+ release 20.1
|
|  Copyright (C) 2006 - 2020  DFTB+ developers group
|
|===============================================================================
|
|  When publishing results obtained with DFTB+, please cite the following
|  reference:
|
|  * DFTB+, a software package for efficient approximate density functional
|    theory based atomistic simulations, J. Chem. Phys. 152, 124101 (2020).
|    [doi: 10.1063/1.5143190]
|
|  You should also cite additional publications crediting the parametrization
|  data you use. Please consult the documentation of the SK-files for the
|  references.
|
|===============================================================================

Reading input file 'dftb_in.hsd'
Parser version: 8

--------------------------------------------------------------------------------
Reading SK-files:
Done.


Processed input in HSD format written to 'dftb_pin.hsd'

Starting initialization...
--------------------------------------------------------------------------------
OpenMP threads:              1
Chosen random seed:          498594502
Mode:                        Static calculation
Self consistent charges:     Yes
SCC-tolerance:                 0.100000E-05
Max. scc iterations:                   1000
Shell resolved Hubbard:      No
Spin polarisation:           No
Nr. of up electrons:            16.000000
Nr. of down electrons:          16.000000
Periodic boundaries:         No
Electronic solver:           Relatively robust
Maximal SCC-cycles:                    1000
Initial charges:             Set automatically (system chrg:   0.100E+01)
Included shells:             C:  s, p
                             H:  s
                             N:  s, p
Spin coupling constants:     C   1(s)-1(s):  -0.455900E-01
                             C   1(s)-2(p):  -0.293000E-01
                             C   2(p)-1(s):  -0.293000E-01
                             C   2(p)-2(p):  -0.275500E-01
                             H   1(s)-1(s):  -0.792500E-01
                             N   1(s)-1(s):  -0.468700E-01
                             N   1(s)-2(p):  -0.317000E-01
                             N   2(p)-1(s):  -0.317000E-01
                             N   2(p)-2(p):  -0.307200E-01
Range separated hybrid:      Yes
  Screening parameter omega:   0.300000E+00
  Range separated algorithm:   MatrixBased
Extra options:
                             Mulliken analysis
                             Force calculation
Force type                   original
                             Eigenvector printing


REKS Calcuation:             Yes
SSR(2,2) Calcuation:         Yes
Energy Functional:           (PPS+OSS)/2
Number of Core Orbitals:                 15
Number of Active Orbitals:                2
Number of Basis:                         32
Number of States:                         2
State-Averaging Weight:          0.500000
                                 0.500000
State of Interest:                        1
Initial Guess:               Diagonalize H0 matrix
Newton-Raphson for FON opt:  Yes
NR max. Iterations:                      50
Level Shifting:              Yes
Shift Value:                     0.300000
W Scale Factor:              C  =    3.200000
                             H  =    3.200000
                             N  =    3.200000
Transition Dipole:           No
Gradient of Microstate:      No
CP-REKS Solver:              Preconditioned Conjugate-Gradient
CG max. Iterations:                     100
CG Tolerance:                  0.100000E-07
Memory for A and Hxc:        Direct Updating Without Saving
Non-Adiabatic Coupling:      Yes

--------------------------------------------------------------------------------

***  Geometry step: 0

  iSCC       reks energy        Diff energy         x_a       SCC error   
    1      -16.4096531292       0.0000000000     0.999112    1.19926956
    2      -16.4278546594      -0.0182015302     0.999903    0.05465750
    3      -16.4324241150      -0.0045694555     0.999975    0.02268239
    4      -16.4340209459      -0.0015968309     0.999990    0.01127130
    5      -16.4347004071      -0.0006794613     0.999994    0.00811601
    6      -16.4350300087      -0.0003296016     0.999996    0.00650540
    7      -16.4352067945      -0.0001767857     0.999997    0.00513397
    8      -16.4353100799      -0.0001032855     0.999998    0.00404269
    9      -16.4353751737      -0.0000650938     0.999998    0.00319960
   10      -16.4354190046      -0.0000438309     0.999999    0.00255515
   11      -16.4354502051      -0.0000312004     0.999999    0.00206244
   12      -16.4354734351      -0.0000232300     0.999999    0.00168319
   13      -16.4354913543      -0.0000179192     0.999999    0.00138819
   14      -16.4355055660      -0.0000142117     0.999999    0.00115586
   15      -16.4355170884      -0.0000115224     0.999999    0.00097049
   16      -16.4355265996      -0.0000095113     0.999999    0.00082069
   17      -16.4355345708      -0.0000079712     0.999999    0.00069818
   18      -16.4355413406      -0.0000067698     0.999999    0.00059690
   19      -16.4355471599      -0.0000058192     0.999999    0.00051236
   20      -16.4355522183      -0.0000050584     0.999999    0.00044120
   21      -16.4355566621      -0.0000044438     0.999999    0.00038087
   22      -16.4355606057      -0.0000039436     0.999999    0.00032941
   23      -16.4355641395      -0.0000035338     0.999999    0.00029017
   24      -16.4355673357      -0.0000031962     0.999999    0.00028349
   25      -16.4355702522      -0.0000029165     0.999999    0.00027756
   26      -16.4355729361      -0.0000026839     0.999999    0.00027229
   27      -16.4355754255      -0.0000024894     0.999999    0.00026760
   28      -16.4355777518      -0.0000023263     0.999999    0.00026342
   29      -16.4355799408      -0.0000021889     0.999999    0.00025970
   30      -16.4355820136      -0.0000020728     0.999999    0.00025636
   31      -16.4355839880      -0.0000019744     0.999999    0.00025336
   32      -16.4355858786      -0.0000018906     0.999999    0.00025066
   33      -16.4355876977      -0.0000018191     0.999999    0.00024823
   34      -16.4355894555      -0.0000017579     0.999999    0.00024602
   35      -16.4355911608      -0.0000017053     0.999999    0.00024401
   36      -16.4355928208      -0.0000016600     0.999999    0.00024219
   37      -16.4355944416      -0.0000016208     0.999999    0.00024052
   38      -16.4355960285      -0.0000015869     0.999999    0.00023899
   39      -16.4355975858      -0.0000015574     0.999999    0.00023758
   40      -16.4355991175      -0.0000015316     0.999999    0.00023628
   41      -16.4356006265      -0.0000015090     0.999999    0.00023508
   42      -16.4356021157      -0.0000014892     0.999999    0.00023397
   43      -16.4356035873      -0.0000014717     0.999999    0.00023294
   44      -16.4356050434      -0.0000014561     0.999999    0.00023198
   45      -16.4356064856      -0.0000014422     0.999999    0.00023108
   46      -16.4356079153      -0.0000014297     0.999999    0.00023023
   47      -16.4356093338      -0.0000014185     0.999999    0.00022944
   48      -16.4356107420      -0.0000014082     0.999999    0.00022869
   49      -16.4356121409      -0.0000013989     0.999999    0.00022798
   50      -16.4356135311      -0.0000013902     0.999999    0.00022731
   51      -16.4356149133      -0.0000013822     0.999999    0.00022667
   52      -16.4356162879      -0.0000013747     0.999999    0.00022605
   53      -16.4356176555      -0.0000013676     0.999999    0.00022546
   54      -16.4356190164      -0.0000013609     0.999999    0.00022490
   55      -16.4356203708      -0.0000013544     0.999999    0.00022435
   56      -16.4356217189      -0.0000013482     0.999999    0.00022382
   57      -16.4356230611      -0.0000013421     0.999999    0.00022338
   58      -16.4356243972      -0.0000013362     0.999999    0.00022397
   59      -16.4356257276      -0.0000013304     0.999999    0.00022451
   60      -16.4356270523      -0.0000013246     0.999999    0.00022500
   61      -16.4356283712      -0.0000013189     0.999999    0.00022545
   62      -16.4356296844      -0.0000013133     0.999999    0.00022587
   63      -16.4356309920      -0.0000013076     0.999999    0.00022624
   64      -16.4356322939      -0.0000013019     0.999999    0.00022657
   65      -16.4356335900      -0.0000012962     0.999999    0.00022687
   66      -16.4356348804      -0.0000012904     0.999999    0.00022713
   67      -16.4356361650      -0.0000012846     0.999999    0.00022735
   68      -16.4356374437      -0.0000012787     0.999999    0.00022754
   69      -16.4356387165      -0.0000012728     0.999999    0.00022769
   70      -16.4356399833      -0.0000012668     0.999999    0.00022782
   71      -16.4356412440      -0.0000012607     0.999999    0.00022791
   72      -16.4356424985      -0.0000012545     0.999999    0.00022797
   73      -16.4356437468      -0.0000012483     0.999999    0.00022800
   74      -16.4356449888      -0.0000012420     0.999999    0.00022800
   75      -16.4356462245      -0.0000012356     0.999999    0.00022798
   76      -16.4356474536      -0.0000012291     0.999999    0.00022792
   77      -16.4356486762      -0.0000012226     0.999999    0.00022784
   78      -16.4356498921      -0.0000012160     0.999999    0.00022773
   79      -16.4356511014      -0.0000012092     0.999999    0.00022760
   80      -16.4356523038      -0.0000012025     0.999999    0.00022745
   81      -16.4356534994      -0.0000011956     0.999999    0.00022727
   82      -16.4356546881      -0.0000011887     0.999999    0.00022706
   83      -16.4356558697      -0.0000011816     0.999999    0.00022684
   84      -16.4356570443      -0.0000011746     0.999999    0.00022659
   85      -16.4356582117      -0.0000011674     0.999999    0.00022632
   86      -16.4356593719      -0.0000011602     0.999999    0.00022603
   87      -16.4356605249      -0.0000011529     0.999999    0.00022572
   88      -16.4356616705      -0.0000011456     0.999999    0.00022539
   89      -16.4356628087      -0.0000011382     0.999999    0.00022504
   90      -16.4356639395      -0.0000011308     0.999999    0.00022467
   91      -16.4356650629      -0.0000011233     0.999999    0.00022428
   92      -16.4356661787      -0.0000011158     0.999999    0.00022388
   93      -16.4356672869      -0.0000011082     0.999999    0.00022346
   94      -16.4356683875      -0.0000011006     0.999999    0.00022302
   95      -16.4356694804      -0.0000010930     0.999999    0.00022256
   96      -16.4356705657      -0.0000010853     0.999999    0.00022209
   97      -16.4356716433      -0.0000010776     0.999999    0.00022161
   98      -16.4356727131      -0.0000010698     0.999999    0.00022111
   99      -16.4356737751      -0.0000010620     0.999999    0.00022059
  100      -16.4356748293      -0.0000010542     0.999999    0.00022006
  101      -16.4356758758      -0.0000010464     0.999999    0.00021952
  102      -16.4356769144      -0.0000010386     0.999999    0.00021897
  103      -16.4356779451      -0.0000010308     0.999999    0.00021840
  104      -16.4356789680      -0.0000010229     0.999999    0.00021782
  105      -16.4356799830      -0.0000010150     0.999999    0.00021723
  106      -16.4356809902      -0.0000010072     0.999999    0.00021663
  107      -16.4356819895      -0.0000009993     0.999999    0.00021601
  108      -16.4356829809      -0.0000009914     0.999999    0.00021539
  109      -16.4356839644      -0.0000009835     0.999999    0.00021475
  110      -16.4356849401      -0.0000009757     0.999999    0.00021411
  111      -16.4356859078      -0.0000009678     0.999999    0.00021345
  112      -16.4356868678      -0.0000009599     0.999999    0.00021279
  113      -16.4356878199      -0.0000009521     0.999999    0.00021212
  114      -16.4356887641      -0.0000009443     0.999999    0.00021143
  115      -16.4356897005      -0.0000009364     0.999999    0.00021074
  116      -16.4356906292      -0.0000009286     0.999999    0.00021005
  117      -16.4356915500      -0.0000009208     0.999999    0.00020934
  118      -16.4356924631      -0.0000009131     0.999999    0.00020863
  119      -16.4356933684      -0.0000009053     0.999999    0.00020791
  120      -16.4356942661      -0.0000008976     0.999999    0.00020719
  121      -16.4356951560      -0.0000008899     0.999999    0.00020646
  122      -16.4356960383      -0.0000008823     0.999999    0.00020572
  123      -16.4356969129      -0.0000008746     0.999999    0.00020497
  124      -16.4356977799      -0.0000008670     0.999999    0.00020423
  125      -16.4356986394      -0.0000008595     0.999999    0.00020347
  126      -16.4356994913      -0.0000008519     0.999999    0.00020271
  127      -16.4357003357      -0.0000008444     0.999999    0.00020195
  128      -16.4357011727      -0.0000008370     0.999999    0.00020118
  129      -16.4357020022      -0.0000008295     0.999999    0.00020041
  130      -16.4357028244      -0.0000008221     0.999999    0.00019964
  131      -16.4357036392      -0.0000008148     0.999999    0.00019886
  132      -16.4357044467      -0.0000008075     0.999999    0.00019807
  133      -16.4357052469      -0.0000008002     0.999999    0.00019729
  134      -16.4357060399      -0.0000007930     0.999999    0.00019650
  135      -16.4357068257      -0.0000007858     0.999999    0.00019571
  136      -16.4357076044      -0.0000007787     0.999999    0.00019492
  137      -16.4357083760      -0.0000007716     0.999999    0.00019412
  138      -16.4357091406      -0.0000007646     0.999999    0.00019332
  139      -16.4357098982      -0.0000007576     0.999999    0.00019253
  140      -16.4357106488      -0.0000007506     0.999999    0.00019173
  141      -16.4357113926      -0.0000007437     0.999999    0.00019092
  142      -16.4357121295      -0.0000007369     0.999999    0.00019012
  143      -16.4357128596      -0.0000007301     0.999999    0.00018932
  144      -16.4357135829      -0.0000007234     0.999999    0.00018851
  145      -16.4357142996      -0.0000007167     0.999999    0.00018771
  146      -16.4357150097      -0.0000007100     0.999999    0.00018690
  147      -16.4357157131      -0.0000007035     0.999999    0.00018610
  148      -16.4357164100      -0.0000006969     0.999999    0.00018529
  149      -16.4357171005      -0.0000006904     0.999999    0.00018448
  150      -16.4357177845      -0.0000006840     0.999999    0.00018368
  151      -16.4357184621      -0.0000006776     0.999999    0.00018287
  152      -16.4357191334      -0.0000006713     0.999999    0.00018207
  153      -16.4357197985      -0.0000006650     0.999999    0.00018127
  154      -16.4357204573      -0.0000006588     0.999999    0.00018046
  155      -16.4357211100      -0.0000006527     0.999999    0.00017966
  156      -16.4357217566      -0.0000006466     0.999999    0.00017886
  157      -16.4357223971      -0.0000006405     0.999999    0.00017806
  158      -16.4357230316      -0.0000006345     0.999999    0.00017726
  159      -16.4357236602      -0.0000006286     0.999999    0.00017646
  160      -16.4357242830      -0.0000006227     0.999999    0.00017567
  161      -16.4357248998      -0.0000006169     0.999999    0.00017488
  162      -16.4357255110      -0.0000006111     0.999999    0.00017408
  163      -16.4357261164      -0.0000006054     0.999999    0.00017329
  164      -16.4357267161      -0.0000005997     0.999999    0.00017251
  165      -16.4357273102      -0.0000005941     0.999999    0.00017172
  166      -16.4357278988      -0.0000005886     0.999999    0.00017094
  167      -16.4357284819      -0.0000005831     0.999999    0.00017016
  168      -16.4357290595      -0.0000005776     0.999999    0.00016938
  169      -16.4357296318      -0.0000005722     0.999999    0.00016860
  170      -16.4357301987      -0.0000005669     0.999999    0.00016783
  171      -16.4357307603      -0.0000005616     0.999999    0.00016706
  172      -16.4357313167      -0.0000005564     0.999999    0.00016629
  173      -16.4357318679      -0.0000005512     0.999999    0.00016553
  174      -16.4357324141      -0.0000005461     0.999999    0.00016476
  175      -16.4357329551      -0.0000005410     0.999999    0.00016400
  176      -16.4357334911      -0.0000005360     0.999999    0.00016325
  177      -16.4357340222      -0.0000005311     0.999999    0.00016250
  178      -16.4357345484      -0.0000005262     0.999999    0.00016175
  179      -16.4357350697      -0.0000005213     0.999999    0.00016100
  180      -16.4357355862      -0.0000005165     0.999999    0.00016026
  181      -16.4357360979      -0.0000005118     0.999999    0.00015952
  182      -16.4357366050      -0.0000005071     0.999999    0.00015878
  183      -16.4357371074      -0.0000005024     1.000000    0.00015805
  184      -16.4357376052      -0.0000004978     1.000000    0.00015732
  185      -16.4357380984      -0.0000004933     1.000000    0.00015659
  186      -16.4357385872      -0.0000004888     1.000000    0.00015587
  187      -16.4357390715      -0.0000004843     1.000000    0.00015515
  188      -16.4357395514      -0.0000004799     1.000000    0.00015444
  189      -16.4357400269      -0.0000004756     1.000000    0.00015372
  190      -16.4357404982      -0.0000004713     1.000000    0.00015302
  191      -16.4357409652      -0.0000004670     1.000000    0.00015231
  192      -16.4357414280      -0.0000004628     1.000000    0.00015161
  193      -16.4357418866      -0.0000004586     1.000000    0.00015092
  194      -16.4357423411      -0.0000004545     1.000000    0.00015022
  195      -16.4357427916      -0.0000004505     1.000000    0.00014954
  196      -16.4357432380      -0.0000004464     1.000000    0.00014885
  197      -16.4357436805      -0.0000004425     1.000000    0.00014817
  198      -16.4357441190      -0.0000004385     1.000000    0.00014749
  199      -16.4357445537      -0.0000004347     1.000000    0.00014682
  200      -16.4357449845      -0.0000004308     1.000000    0.00014615
  201      -16.4357454115      -0.0000004270     1.000000    0.00014549
  202      -16.4357458348      -0.0000004233     1.000000    0.00014483
  203      -16.4357462544      -0.0000004196     1.000000    0.00014417
  204      -16.4357466703      -0.0000004159     1.000000    0.00014352
  205      -16.4357470825      -0.0000004123     1.000000    0.00014287
  206      -16.4357474913      -0.0000004087     1.000000    0.00014223
  207      -16.4357478964      -0.0000004052     1.000000    0.00014159
  208      -16.4357482981      -0.0000004017     1.000000    0.00014095
  209      -16.4357486963      -0.0000003982     1.000000    0.00014032
  210      -16.4357490912      -0.0000003948     1.000000    0.00013969
  211      -16.4357494826      -0.0000003914     1.000000    0.00013907
  212      -16.4357498707      -0.0000003881     1.000000    0.00013845
  213      -16.4357502555      -0.0000003848     1.000000    0.00013783
  214      -16.4357506371      -0.0000003816     1.000000    0.00013722
  215      -16.4357510154      -0.0000003784     1.000000    0.00013661
  216      -16.4357513906      -0.0000003752     1.000000    0.00013601
  217      -16.4357517627      -0.0000003720     1.000000    0.00013541
  218      -16.4357521316      -0.0000003689     1.000000    0.00013481
  219      -16.4357524975      -0.0000003659     1.000000    0.00013422
  220      -16.4357528603      -0.0000003628     1.000000    0.00013364
  221      -16.4357532202      -0.0000003599     1.000000    0.00013305
  222      -16.4357535771      -0.0000003569     1.000000    0.00013248
  223      -16.4357539311      -0.0000003540     1.000000    0.00013190
  224      -16.4357542822      -0.0000003511     1.000000    0.00013133
  225      -16.4357546304      -0.0000003483     1.000000    0.00013077
  226      -16.4357549758      -0.0000003454     1.000000    0.00013020
  227      -16.4357553185      -0.0000003427     1.000000    0.00012965
  228      -16.4357556584      -0.0000003399     1.000000    0.00012909
  229      -16.4357559956      -0.0000003372     1.000000    0.00012854
  230      -16.4357563301      -0.0000003345     1.000000    0.00012800
  231      -16.4357566620      -0.0000003319     1.000000    0.00012745
  232      -16.4357569912      -0.0000003293     1.000000    0.00012692
  233      -16.4357573179      -0.0000003267     1.000000    0.00012638
  234      -16.4357576420      -0.0000003241     1.000000    0.00012585
  235      -16.4357579636      -0.0000003216     1.000000    0.00012533
  236      -16.4357582827      -0.0000003191     1.000000    0.00012481
  237      -16.4357585994      -0.0000003166     1.000000    0.00012429
  238      -16.4357589136      -0.0000003142     1.000000    0.00012378
  239      -16.4357592254      -0.0000003118     1.000000    0.00012327
  240      -16.4357595349      -0.0000003094     1.000000    0.00012276
  241      -16.4357598420      -0.0000003071     1.000000    0.00012226
  242      -16.4357601468      -0.0000003048     1.000000    0.00012176
  243      -16.4357604493      -0.0000003025     1.000000    0.00012127
  244      -16.4357607495      -0.0000003003     1.000000    0.00012078
  245      -16.4357610475      -0.0000002980     1.000000    0.00012029
  246      -16.4357613434      -0.0000002958     1.000000    0.00011981
  247      -16.4357616370      -0.0000002936     1.000000    0.00011933
  248      -16.4357619285      -0.0000002915     1.000000    0.00011885
  249      -16.4357622179      -0.0000002894     1.000000    0.00011838
  250      -16.4357625052      -0.0000002873     1.000000    0.00011791
  251      -16.4357627904      -0.0000002852     1.000000    0.00011745
  252      -16.4357630736      -0.0000002832     1.000000    0.00011699
  253      -16.4357633547      -0.0000002812     1.000000    0.00011653
  254      -16.4357636339      -0.0000002792     1.000000    0.00011608
  255      -16.4357639111      -0.0000002772     1.000000    0.00011563
  256      -16.4357641864      -0.0000002753     1.000000    0.00011519
  257      -16.4357644597      -0.0000002733     1.000000    0.00011475
  258      -16.4357647312      -0.0000002714     1.000000    0.00011431
  259      -16.4357650007      -0.0000002696     1.000000    0.00011387
  260      -16.4357652684      -0.0000002677     1.000000    0.00011344
  261      -16.4357655343      -0.0000002659     1.000000    0.00011302
  262      -16.4357657984      -0.0000002641     1.000000    0.00011259
  263      -16.4357660608      -0.0000002623     1.000000    0.00011217
  264      -16.4357663213      -0.0000002606     1.000000    0.00011176
  265      -16.4357665801      -0.0000002588     1.000000    0.00011134
  266      -16.4357668373      -0.0000002571     1.000000    0.00011093
  267      -16.4357670927      -0.0000002554     1.000000    0.00011053
  268      -16.4357673464      -0.0000002537     1.000000    0.00011013
  269      -16.4357675985      -0.0000002521     1.000000    0.00010973
  270      -16.4357678490      -0.0000002505     1.000000    0.00010933
  271      -16.4357680979      -0.0000002489     1.000000    0.00010894
  272      -16.4357683451      -0.0000002473     1.000000    0.00010855
  273      -16.4357685908      -0.0000002457     1.000000    0.00010816
  274      -16.4357688350      -0.0000002442     1.000000    0.00010778
  275      -16.4357690776      -0.0000002426     1.000000    0.00010740
  276      -16.4357693187      -0.0000002411     1.000000    0.00010703
  277      -16.4357695584      -0.0000002396     1.000000    0.00010666
  278      -16.4357697965      -0.0000002382     1.000000    0.00010629
  279      -16.4357700332      -0.0000002367     1.000000    0.00010592
  280      -16.4357702685      -0.0000002353     1.000000    0.00010556
  281      -16.4357705023      -0.0000002339     1.000000    0.00010520
  282      -16.4357707348      -0.0000002325     1.000000    0.00010484
  283      -16.4357709659      -0.0000002311     1.000000    0.00010449
  284      -16.4357711956      -0.0000002297     1.000000    0.00010414
  285      -16.4357714240      -0.0000002284     1.000000    0.00010379
  286      -16.4357716510      -0.0000002270     1.000000    0.00010345
  287      -16.4357718767      -0.0000002257     1.000000    0.00010311
  288      -16.4357721012      -0.0000002244     1.000000    0.00010277
  289      -16.4357723243      -0.0000002232     1.000000    0.00010244
  290      -16.4357725462      -0.0000002219     1.000000    0.00010211
  291      -16.4357727669      -0.0000002207     1.000000    0.00010178
  292      -16.4357729863      -0.0000002194     1.000000    0.00010145
  293      -16.4357732045      -0.0000002182     1.000000    0.00010113
  294      -16.4357734215      -0.0000002170     1.000000    0.00010081
  295      -16.4357736374      -0.0000002158     1.000000    0.00010050
  296      -16.4357738521      -0.0000002147     1.000000    0.00010018
  297      -16.4357740656      -0.0000002135     1.000000    0.00009987
  298      -16.4357742780      -0.0000002124     1.000000    0.00009957
  299      -16.4357744892      -0.0000002113     1.000000    0.00009926
  300      -16.4357746994      -0.0000002102     1.000000    0.00009896
  301      -16.4357749085      -0.0000002091     1.000000    0.00009866
  302      -16.4357751165      -0.0000002080     1.000000    0.00009836
  303      -16.4357753234      -0.0000002069     1.000000    0.00009807
  304      -16.4357755293      -0.0000002059     1.000000    0.00009778
  305      -16.4357757341      -0.0000002049     1.000000    0.00009749
  306      -16.4357759380      -0.0000002038     1.000000    0.00009721
  307      -16.4357761408      -0.0000002028     1.000000    0.00009693
  308      -16.4357763426      -0.0000002018     1.000000    0.00009665
  309      -16.4357765435      -0.0000002009     1.000000    0.00009637
  310      -16.4357767434      -0.0000001999     1.000000    0.00009610
  311      -16.4357769423      -0.0000001989     1.000000    0.00009582
  312      -16.4357771403      -0.0000001980     1.000000    0.00009556
  313      -16.4357773374      -0.0000001971     1.000000    0.00009529
  314      -16.4357775336      -0.0000001962     1.000000    0.00009503
  315      -16.4357777288      -0.0000001953     1.000000    0.00009477
  316      -16.4357779232      -0.0000001944     1.000000    0.00009451
  317      -16.4357781167      -0.0000001935     1.000000    0.00009425
  318      -16.4357783093      -0.0000001926     1.000000    0.00009400
  319      -16.4357785011      -0.0000001918     1.000000    0.00009375
  320      -16.4357786920      -0.0000001909     1.000000    0.00009350
  321      -16.4357788821      -0.0000001901     1.000000    0.00009326
  322      -16.4357790714      -0.0000001893     1.000000    0.00009301
  323      -16.4357792599      -0.0000001885     1.000000    0.00009277
  324      -16.4357794476      -0.0000001877     1.000000    0.00009254
  325      -16.4357796345      -0.0000001869     1.000000    0.00009230
  326      -16.4357798206      -0.0000001861     1.000000    0.00009207
  327      -16.4357800060      -0.0000001854     1.000000    0.00009184
  328      -16.4357801906      -0.0000001846     1.000000    0.00009161
  329      -16.4357803745      -0.0000001839     1.000000    0.00009139
  330      -16.4357805577      -0.0000001832     1.000000    0.00009116
  331      -16.4357807402      -0.0000001825     1.000000    0.00009094
  332      -16.4357809219      -0.0000001817     1.000000    0.00009072
  333      -16.4357811030      -0.0000001811     1.000000    0.00009051
  334      -16.4357812833      -0.0000001804     1.000000    0.00009030
  335      -16.4357814630      -0.0000001797     1.000000    0.00009008
  336      -16.4357816421      -0.0000001790     1.000000    0.00008988
  337      -16.4357818204      -0.0000001784     1.000000    0.00008967
  338      -16.4357819982      -0.0000001777     1.000000    0.00008947
  339      -16.4357821753      -0.0000001771     1.000000    0.00008926
  340      -16.4357823518      -0.0000001765     1.000000    0.00008906
  341      -16.4357825276      -0.0000001759     1.000000    0.00008887
  342      -16.4357827029      -0.0000001753     1.000000    0.00008867
  343      -16.4357828776      -0.0000001747     1.000000    0.00008848
  344      -16.4357830517      -0.0000001741     1.000000    0.00008829
  345      -16.4357832252      -0.0000001735     1.000000    0.00008810
  346      -16.4357833981      -0.0000001729     1.000000    0.00008791
  347      -16.4357835705      -0.0000001724     1.000000    0.00008773
  348      -16.4357837424      -0.0000001718     1.000000    0.00008755
  349      -16.4357839137      -0.0000001713     1.000000    0.00008737
  350      -16.4357840845      -0.0000001708     1.000000    0.00008719
  351      -16.4357842547      -0.0000001703     1.000000    0.00008702
  352      -16.4357844245      -0.0000001698     1.000000    0.00008684
  353      -16.4357845937      -0.0000001693     1.000000    0.00008667
  354      -16.4357847625      -0.0000001688     1.000000    0.00008651
  355      -16.4357849308      -0.0000001683     1.000000    0.00008634
  356      -16.4357850986      -0.0000001678     1.000000    0.00008617
  357      -16.4357852659      -0.0000001673     1.000000    0.00008601
  358      -16.4357854328      -0.0000001669     1.000000    0.00008585
  359      -16.4357855993      -0.0000001664     1.000000    0.00008569
  360      -16.4357857653      -0.0000001660     1.000000    0.00008554
  361      -16.4357859308      -0.0000001656     1.000000    0.00008538
  362      -16.4357860960      -0.0000001651     1.000000    0.00008523
  363      -16.4357862607      -0.0000001647     1.000000    0.00008508
  364      -16.4357864250      -0.0000001643     1.000000    0.00008493
  365      -16.4357865890      -0.0000001639     1.000000    0.00008479
  366      -16.4357867525      -0.0000001635     1.000000    0.00008464
  367      -16.4357869157      -0.0000001632     1.000000    0.00008450
  368      -16.4357870785      -0.0000001628     1.000000    0.00008436
  369      -16.4357872409      -0.0000001624     1.000000    0.00008422
  370      -16.4357874029      -0.0000001621     1.000000    0.00008409
  371      -16.4357875647      -0.0000001617     1.000000    0.00008396
  372      -16.4357877260      -0.0000001614     1.000000    0.00008382
  373      -16.4357878871      -0.0000001610     1.000000    0.00008369
  374      -16.4357880478      -0.0000001607     1.000000    0.00008357
  375      -16.4357882082      -0.0000001604     1.000000    0.00008344
  376      -16.4357883683      -0.0000001601     1.000000    0.00008332
  377      -16.4357885281      -0.0000001598     1.000000    0.00008319
  378      -16.4357886876      -0.0000001595     1.000000    0.00008307
  379      -16.4357888468      -0.0000001592     1.000000    0.00008295
  380      -16.4357890057      -0.0000001589     1.000000    0.00008284
  381      -16.4357891644      -0.0000001587     1.000000    0.00008272
  382      -16.4357893228      -0.0000001584     1.000000    0.00008261
  383      -16.4357894809      -0.0000001581     1.000000    0.00008250
  384      -16.4357896388      -0.0000001579     1.000000    0.00008239
  385      -16.4357897965      -0.0000001577     1.000000    0.00008228
  386      -16.4357899539      -0.0000001574     1.000000    0.00008218
  387      -16.4357901111      -0.0000001572     1.000000    0.00008208
  388      -16.4357902680      -0.0000001570     1.000000    0.00008197
  389      -16.4357904248      -0.0000001568     1.000000    0.00008188
  390      -16.4357905814      -0.0000001566     1.000000    0.00008178
  391      -16.4357907377      -0.0000001564     1.000000    0.00008168
  392      -16.4357908939      -0.0000001562     1.000000    0.00008159
  393      -16.4357910499      -0.0000001560     1.000000    0.00008150
  394      -16.4357912057      -0.0000001558     1.000000    0.00008141
  395      -16.4357913613      -0.0000001556     1.000000    0.00008132
  396      -16.4357915168      -0.0000001555     1.000000    0.00008123
  397      -16.4357916722      -0.0000001553     1.000000    0.00008115
  398      -16.4357918274      -0.0000001552     1.000000    0.00008106
  399      -16.4357919824      -0.0000001550     1.000000    0.00008098
  400      -16.4357921373      -0.0000001549     1.000000    0.00008090
  401      -16.4357922921      -0.0000001548     1.000000    0.00008082
  402      -16.4357924468      -0.0000001547     1.000000    0.00008075
  403      -16.4357926014      -0.0000001546     1.000000    0.00008067
  404      -16.4357927558      -0.0000001545     1.000000    0.00008060
  405      -16.4357929102      -0.0000001544     1.000000    0.00008053
  406      -16.4357930645      -0.0000001543     1.000000    0.00008046
  407      -16.4357932187      -0.0000001542     1.000000    0.00008039
  408      -16.4357933728      -0.0000001541     1.000000    0.00008033
  409      -16.4357935269      -0.0000001541     1.000000    0.00008027
  410      -16.4357936808      -0.0000001540     1.000000    0.00008020
  411      -16.4357938348      -0.0000001539     1.000000    0.00008014
  412      -16.4357939887      -0.0000001539     1.000000    0.00008009
  413      -16.4357941425      -0.0000001539     1.000000    0.00008003
  414      -16.4357942964      -0.0000001538     1.000000    0.00007997
  415      -16.4357944502      -0.0000001538     1.000000    0.00007992
  416      -16.4357946039      -0.0000001538     1.000000    0.00007987
  417      -16.4357947577      -0.0000001538     1.000000    0.00007982
  418      -16.4357949115      -0.0000001538     1.000000    0.00007977
  419      -16.4357950653      -0.0000001538     1.000000    0.00007973
  420      -16.4357952190      -0.0000001538     1.000000    0.00007968
  421      -16.4357953728      -0.0000001538     1.000000    0.00007964
  422      -16.4357955267      -0.0000001538     1.000000    0.00007960
  423      -16.4357956805      -0.0000001539     1.000000    0.00007956
  424      -16.4357958344      -0.0000001539     1.000000    0.00007952
  425      -16.4357959884      -0.0000001539     1.000000    0.00007949
  426      -16.4357961424      -0.0000001540     1.000000    0.00007945
  427      -16.4357962964      -0.0000001541     1.000000    0.00007942
  428      -16.4357964505      -0.0000001541     1.000000    0.00007939
  429      -16.4357966047      -0.0000001542     1.000000    0.00007936
  430      -16.4357967590      -0.0000001543     1.000000    0.00007933
  431      -16.4357969134      -0.0000001544     1.000000    0.00007931
  432      -16.4357970679      -0.0000001545     1.000000    0.00007928
  433      -16.4357972224      -0.0000001546     1.000000    0.00007926
  434      -16.4357973771      -0.0000001547     1.000000    0.00007924
  435      -16.4357975319      -0.0000001548     1.000000    0.00007922
  436      -16.4357976869      -0.0000001549     1.000000    0.00007921
  437      -16.4357978419      -0.0000001551     1.000000    0.00007919
  438      -16.4357979971      -0.0000001552     1.000000    0.00007918
  439      -16.4357981525      -0.0000001554     1.000000    0.00007917
  440      -16.4357983080      -0.0000001555     1.000000    0.00007916
  441      -16.4357984637      -0.0000001557     1.000000    0.00007915
  442      -16.4357986195      -0.0000001558     1.000000    0.00007914
  443      -16.4357987756      -0.0000001560     1.000000    0.00007914
  444      -16.4357989318      -0.0000001562     1.000000    0.00007913
  445      -16.4357990882      -0.0000001564     1.000000    0.00007913
  446      -16.4357992448      -0.0000001566     1.000000    0.00007913
  447      -16.4357994016      -0.0000001568     1.000000    0.00007913
  448      -16.4357995586      -0.0000001570     1.000000    0.00007914
  449      -16.4357997159      -0.0000001573     1.000000    0.00007914
  450      -16.4357998734      -0.0000001575     1.000000    0.00007915
  451      -16.4358000311      -0.0000001577     1.000000    0.00007916
  452      -16.4358001891      -0.0000001580     1.000000    0.00007917
  453      -16.4358003474      -0.0000001582     1.000000    0.00007918
  454      -16.4358005059      -0.0000001585     1.000000    0.00007919
  455      -16.4358006647      -0.0000001588     1.000000    0.00007921
  456      -16.4358008237      -0.0000001591     1.000000    0.00007923
  457      -16.4358009831      -0.0000001594     1.000000    0.00007925
  458      -16.4358011427      -0.0000001597     1.000000    0.00007927
  459      -16.4358013027      -0.0000001600     1.000000    0.00007929
  460      -16.4358014630      -0.0000001603     1.000000    0.00007931
  461      -16.4358016236      -0.0000001606     1.000000    0.00007934
  462      -16.4358017845      -0.0000001609     1.000000    0.00007937
  463      -16.4358019458      -0.0000001613     1.000000    0.00007940
  464      -16.4358021074      -0.0000001616     1.000000    0.00007943
  465      -16.4358022694      -0.0000001620     1.000000    0.00007946
  466      -16.4358024317      -0.0000001623     1.000000    0.00007950
  467      -16.4358025944      -0.0000001627     1.000000    0.00007953
  468      -16.4358027575      -0.0000001631     1.000000    0.00007957
  469      -16.4358029210      -0.0000001635     1.000000    0.00007961
  470      -16.4358030849      -0.0000001639     1.000000    0.00007965
  471      -16.4358032492      -0.0000001643     1.000000    0.00007970
  472      -16.4358034140      -0.0000001647     1.000000    0.00007974
  473      -16.4358035791      -0.0000001652     1.000000    0.00007979
  474      -16.4358037447      -0.0000001656     1.000000    0.00007984
  475      -16.4358039108      -0.0000001660     1.000000    0.00007989
  476      -16.4358040773      -0.0000001665     1.000000    0.00007994
  477      -16.4358042442      -0.0000001670     1.000000    0.00008000
  478      -16.4358044117      -0.0000001674     1.000000    0.00008005
  479      -16.4358045796      -0.0000001679     1.000000    0.00008011
  480      -16.4358047481      -0.0000001684     1.000000    0.00008017
  481      -16.4358049170      -0.0000001689     1.000000    0.00008023
  482      -16.4358050865      -0.0000001695     1.000000    0.00008030
  483      -16.4358052564      -0.0000001700     1.000000    0.00008036
  484      -16.4358054270      -0.0000001705     1.000000    0.00008043
  485      -16.4358055980      -0.0000001711     1.000000    0.00008050
  486      -16.4358057697      -0.0000001716     1.000000    0.00008057
  487      -16.4358059419      -0.0000001722     1.000000    0.00008064
  488      -16.4358061146      -0.0000001728     1.000000    0.00008071
  489      -16.4358062880      -0.0000001734     1.000000    0.00008079
  490      -16.4358064620      -0.0000001740     1.000000    0.00008087
  491      -16.4358066366      -0.0000001746     1.000000    0.00008095
  492      -16.4358068118      -0.0000001752     1.000000    0.00008103
  493      -16.4358069876      -0.0000001758     1.000000    0.00008111
  494      -16.4358071641      -0.0000001765     1.000000    0.00008120
  495      -16.4358073412      -0.0000001771     1.000000    0.00008129
  496      -16.4358075190      -0.0000001778     1.000000    0.00008138
  497      -16.4358076975      -0.0000001785     1.000000    0.00008147
  498      -16.4358078767      -0.0000001792     1.000000    0.00008156
  499      -16.4358080566      -0.0000001799     1.000000    0.00008166
  500      -16.4358082372      -0.0000001806     1.000000    0.00008175
  501      -16.4358084186      -0.0000001813     1.000000    0.00008185
  502      -16.4358086006      -0.0000001821     1.000000    0.00008196
  503      -16.4358087835      -0.0000001828     1.000000    0.00008206
  504      -16.4358089671      -0.0000001836     1.000000    0.00008216
  505      -16.4358091515      -0.0000001844     1.000000    0.00008227
  506      -16.4358093367      -0.0000001852     1.000000    0.00008238
  507      -16.4358095226      -0.0000001860     1.000000    0.00008249
  508      -16.4358097094      -0.0000001868     1.000000    0.00008260
  509      -16.4358098971      -0.0000001876     1.000000    0.00008272
  510      -16.4358100856      -0.0000001885     1.000000    0.00008284
  511      -16.4358102749      -0.0000001894     1.000000    0.00008296
  512      -16.4358104652      -0.0000001902     1.000000    0.00008308
  513      -16.4358106563      -0.0000001911     1.000000    0.00008320
  514      -16.4358108483      -0.0000001920     1.000000    0.00008332
  515      -16.4358110412      -0.0000001929     1.000000    0.00008345
  516      -16.4358112351      -0.0000001939     1.000000    0.00008362
  517      -16.4358114299      -0.0000001948     1.000000    0.00008386
  518      -16.4358116257      -0.0000001958     1.000000    0.00008410
  519      -16.4358118225      -0.0000001968     1.000000    0.00008435
  520      -16.4358120203      -0.0000001978     1.000000    0.00008461
  521      -16.4358122190      -0.0000001988     1.000000    0.00008486
  522      -16.4358124188      -0.0000001998     1.000000    0.00008512
  523      -16.4358126197      -0.0000002008     1.000000    0.00008538
  524      -16.4358128216      -0.0000002019     1.000000    0.00008564
  525      -16.4358130246      -0.0000002030     1.000000    0.00008591
  526      -16.4358132287      -0.0000002041     1.000000    0.00008618
  527      -16.4358134339      -0.0000002052     1.000000    0.00008645
  528      -16.4358136402      -0.0000002063     1.000000    0.00008673
  529      -16.4358138477      -0.0000002075     1.000000    0.00008701
  530      -16.4358140563      -0.0000002086     1.000000    0.00008729
  531      -16.4358142661      -0.0000002098     1.000000    0.00008758
  532      -16.4358144771      -0.0000002110     1.000000    0.00008787
  533      -16.4358146894      -0.0000002122     1.000000    0.00008817
  534      -16.4358149029      -0.0000002135     1.000000    0.00008846
  535      -16.4358151176      -0.0000002147     1.000000    0.00008876
  536      -16.4358153336      -0.0000002160     1.000000    0.00008907
  537      -16.4358155510      -0.0000002173     1.000000    0.00008937
  538      -16.4358157696      -0.0000002186     1.000000    0.00008969
  539      -16.4358159896      -0.0000002200     1.000000    0.00009000
  540      -16.4358162109      -0.0000002213     1.000000    0.00009032
  541      -16.4358164337      -0.0000002227     1.000000    0.00009064
  542      -16.4358166578      -0.0000002241     1.000000    0.00009097
  543      -16.4358168833      -0.0000002256     1.000000    0.00009130
  544      -16.4358171103      -0.0000002270     1.000000    0.00009163
  545      -16.4358173388      -0.0000002285     1.000000    0.00009197
  546      -16.4358175688      -0.0000002300     1.000000    0.00009231
  547      -16.4358178003      -0.0000002315     1.000000    0.00009265
  548      -16.4358180333      -0.0000002330     1.000000    0.00009300
  549      -16.4358182679      -0.0000002346     1.000000    0.00009335
  550      -16.4358185041      -0.0000002362     1.000000    0.00009371
  551      -16.4358187419      -0.0000002378     1.000000    0.00009407
  552      -16.4358189813      -0.0000002394     1.000000    0.00009444
  553      -16.4358192224      -0.0000002411     1.000000    0.00009481
  554      -16.4358194652      -0.0000002428     1.000000    0.00009518
  555      -16.4358197097      -0.0000002445     1.000000    0.00009556
  556      -16.4358199559      -0.0000002462     1.000000    0.00009594
  557      -16.4358202040      -0.0000002480     1.000000    0.00009633
  558      -16.4358204538      -0.0000002498     1.000000    0.00009672
  559      -16.4358207054      -0.0000002516     1.000000    0.00009712
  560      -16.4358209589      -0.0000002535     1.000000    0.00009752
  561      -16.4358212143      -0.0000002554     1.000000    0.00009792
  562      -16.4358214716      -0.0000002573     1.000000    0.00009833
  563      -16.4358217309      -0.0000002593     1.000000    0.00009875
  564      -16.4358219921      -0.0000002612     1.000000    0.00009917
  565      -16.4358222553      -0.0000002632     1.000000    0.00009959
  566      -16.4358225206      -0.0000002653     1.000000    0.00010002
  567      -16.4358227880      -0.0000002673     1.000000    0.00010045
  568      -16.4358230574      -0.0000002695     1.000000    0.00010089
  569      -16.4358233290      -0.0000002716     1.000000    0.00010133
  570      -16.4358236028      -0.0000002738     1.000000    0.00010178
  571      -16.4358238787      -0.0000002760     1.000000    0.00010224
  572      -16.4358241570      -0.0000002782     1.000000    0.00010270
  573      -16.4358244374      -0.0000002805     1.000000    0.00010316
  574      -16.4358247203      -0.0000002828     1.000000    0.00010363
  575      -16.4358250054      -0.0000002852     1.000000    0.00010410
  576      -16.4358252930      -0.0000002876     1.000000    0.00010458
  577      -16.4358255829      -0.0000002900     1.000000    0.00010507
  578      -16.4358258754      -0.0000002924     1.000000    0.00010556
  579      -16.4358261703      -0.0000002950     1.000000    0.00010606
  580      -16.4358264679      -0.0000002975     1.000000    0.00010656
  581      -16.4358267679      -0.0000003001     1.000000    0.00010707
  582      -16.4358270707      -0.0000003027     1.000000    0.00010759
  583      -16.4358273761      -0.0000003054     1.000000    0.00010811
  584      -16.4358276842      -0.0000003081     1.000000    0.00010863
  585      -16.4358279951      -0.0000003109     1.000000    0.00010917
  586      -16.4358283088      -0.0000003137     1.000000    0.00010971
  587      -16.4358286253      -0.0000003166     1.000000    0.00011025
  588      -16.4358289448      -0.0000003195     1.000000    0.00011080
  589      -16.4358292672      -0.0000003224     1.000000    0.00011136
  590      -16.4358295926      -0.0000003254     1.000000    0.00011193
  591      -16.4358299211      -0.0000003285     1.000000    0.00011250
  592      -16.4358302526      -0.0000003316     1.000000    0.00011307
  593      -16.4358305873      -0.0000003347     1.000000    0.00011366
  594      -16.4358309253      -0.0000003379     1.000000    0.00011425
  595      -16.4358312664      -0.0000003412     1.000000    0.00011485
  596      -16.4358316109      -0.0000003445     1.000000    0.00011545
  597      -16.4358319588      -0.0000003479     1.000000    0.00011607
  598      -16.4358323101      -0.0000003513     1.000000    0.00011669
  599      -16.4358326648      -0.0000003548     1.000000    0.00011731
  600      -16.4358330232      -0.0000003583     1.000000    0.00011795
  601      -16.4358333851      -0.0000003619     1.000000    0.00011859
  602      -16.4358337507      -0.0000003656     1.000000    0.00011924
  603      -16.4358341200      -0.0000003693     1.000000    0.00011989
  604      -16.4358344931      -0.0000003731     1.000000    0.00012056
  605      -16.4358348701      -0.0000003770     1.000000    0.00012123
  606      -16.4358352510      -0.0000003809     1.000000    0.00012191
  607      -16.4358356359      -0.0000003849     1.000000    0.00012260
  608      -16.4358360249      -0.0000003890     1.000000    0.00012330
  609      -16.4358364180      -0.0000003931     1.000000    0.00012400
  610      -16.4358368153      -0.0000003973     1.000000    0.00012472
  611      -16.4358372169      -0.0000004016     1.000000    0.00012544
  612      -16.4358376228      -0.0000004059     1.000000    0.00012617
  613      -16.4358380332      -0.0000004104     1.000000    0.00012691
  614      -16.4358384481      -0.0000004149     1.000000    0.00012765
  615      -16.4358388676      -0.0000004195     1.000000    0.00012841
  616      -16.4358392917      -0.0000004242     1.000000    0.00012918
  617      -16.4358397207      -0.0000004289     1.000000    0.00012995
  618      -16.4358401544      -0.0000004338     1.000000    0.00013074
  619      -16.4358405931      -0.0000004387     1.000000    0.00013153
  620      -16.4358410368      -0.0000004437     1.000000    0.00013234
  621      -16.4358414856      -0.0000004488     1.000000    0.00013315
  622      -16.4358419397      -0.0000004540     1.000000    0.00013397
  623      -16.4358423990      -0.0000004593     1.000000    0.00013481
  624      -16.4358428637      -0.0000004647     1.000000    0.00013565
  625      -16.4358433339      -0.0000004702     1.000000    0.00013650
  626      -16.4358438097      -0.0000004758     1.000000    0.00013737
  627      -16.4358442912      -0.0000004815     1.000000    0.00013824
  628      -16.4358447785      -0.0000004873     1.000000    0.00013913
  629      -16.4358452718      -0.0000004932     1.000000    0.00014002
  630      -16.4358457710      -0.0000004992     1.000000    0.00014093
  631      -16.4358462764      -0.0000005054     1.000000    0.00014185
  632      -16.4358467880      -0.0000005116     1.000000    0.00014278
  633      -16.4358473060      -0.0000005180     1.000000    0.00014372
  634      -16.4358478304      -0.0000005245     1.000000    0.00014467
  635      -16.4358483615      -0.0000005311     1.000000    0.00014564
  636      -16.4358488993      -0.0000005378     1.000000    0.00014661
  637      -16.4358494440      -0.0000005447     1.000000    0.00014760
  638      -16.4358499957      -0.0000005517     1.000000    0.00014860
  639      -16.4358505545      -0.0000005588     1.000000    0.00014962
  640      -16.4358511205      -0.0000005661     1.000000    0.00015064
  641      -16.4358516940      -0.0000005735     1.000000    0.00015168
  642      -16.4358522750      -0.0000005810     1.000000    0.00015273
  643      -16.4358528637      -0.0000005887     1.000000    0.00015387
  644      -16.4358534603      -0.0000005966     1.000000    0.00015519
  645      -16.4358540648      -0.0000006046     1.000000    0.00015652
  646      -16.4358546775      -0.0000006127     1.000000    0.00015787
  647      -16.4358552986      -0.0000006210     1.000000    0.00015923
  648      -16.4358559281      -0.0000006295     1.000000    0.00016062
  649      -16.4358565662      -0.0000006382     1.000000    0.00016203
  650      -16.4358572132      -0.0000006470     1.000000    0.00016345
  651      -16.4358578692      -0.0000006560     1.000000    0.00016490
  652      -16.4358585343      -0.0000006651     1.000000    0.00016637
  653      -16.4358592088      -0.0000006745     1.000000    0.00016785
  654      -16.4358598929      -0.0000006841     1.000000    0.00016936
  655      -16.4358605867      -0.0000006938     1.000000    0.00017089
  656      -16.4358612905      -0.0000007037     1.000000    0.00017245
  657      -16.4358620043      -0.0000007139     1.000000    0.00017402
  658      -16.4358627286      -0.0000007242     1.000000    0.00017562
  659      -16.4358634634      -0.0000007348     1.000000    0.00017724
  660      -16.4358642090      -0.0000007456     1.000000    0.00017888
  661      -16.4358649656      -0.0000007566     1.000000    0.00018055
  662      -16.4358657334      -0.0000007678     1.000000    0.00018224
  663      -16.4358665127      -0.0000007793     1.000000    0.00018396
  664      -16.4358673037      -0.0000007910     1.000000    0.00018570
  665      -16.4358681067      -0.0000008030     1.000000    0.00018747
  666      -16.4358689218      -0.0000008152     1.000000    0.00018926
  667      -16.4358697495      -0.0000008276     1.000000    0.00019108
  668      -16.4358705898      -0.0000008403     1.000000    0.00019292
  669      -16.4358714431      -0.0000008533     1.000000    0.00019480
  670      -16.4358723097      -0.0000008666     1.000000    0.00019670
  671      -16.4358731899      -0.0000008802     1.000000    0.00019863
  672      -16.4358740839      -0.0000008940     1.000000    0.00020058
  673      -16.4358749920      -0.0000009081     1.000000    0.00020257
  674      -16.4358759146      -0.0000009226     1.000000    0.00020459
  675      -16.4358768520      -0.0000009374     1.000000    0.00020664
  676      -16.4358778044      -0.0000009524     1.000000    0.00020871
  677      -16.4358787723      -0.0000009678     1.000000    0.00021082
  678      -16.4358797559      -0.0000009836     1.000000    0.00021296
  679      -16.4358807555      -0.0000009997     1.000000    0.00021514
  680      -16.4358817717      -0.0000010161     1.000000    0.00021735
  681      -16.4358828046      -0.0000010329     1.000000    0.00021959
  682      -16.4358838548      -0.0000010501     1.000000    0.00022186
  683      -16.4358849225      -0.0000010677     1.000000    0.00022417
  684      -16.4358860081      -0.0000010857     1.000000    0.00022651
  685      -16.4358871121      -0.0000011040     1.000000    0.00022889
  686      -16.4358882349      -0.0000011228     1.000000    0.00023131
  687      -16.4358893769      -0.0000011420     1.000000    0.00023377
  688      -16.4358905385      -0.0000011616     1.000000    0.00023626
  689      -16.4358917202      -0.0000011817     1.000000    0.00023879
  690      -16.4358929224      -0.0000012022     1.000000    0.00024136
  691      -16.4358941456      -0.0000012232     1.000000    0.00024397
  692      -16.4358953903      -0.0000012447     1.000000    0.00024662
  693      -16.4358966570      -0.0000012667     1.000000    0.00024931
  694      -16.4358979461      -0.0000012891     1.000000    0.00025205
  695      -16.4358992582      -0.0000013121     1.000000    0.00025482
  696      -16.4359005939      -0.0000013357     1.000000    0.00025764
  697      -16.4359019536      -0.0000013597     1.000000    0.00026051
  698      -16.4359033380      -0.0000013844     1.000000    0.00026342
  699      -16.4359047475      -0.0000014096     1.000000    0.00026637
  700      -16.4359061829      -0.0000014354     1.000000    0.00026938
  701      -16.4359076447      -0.0000014618     1.000000    0.00027243
  702      -16.4359091335      -0.0000014888     1.000000    0.00027552
  703      -16.4359106499      -0.0000015165     1.000000    0.00027867
  704      -16.4359121947      -0.0000015448     1.000000    0.00028187
  705      -16.4359137685      -0.0000015738     1.000000    0.00028511
  706      -16.4359153719      -0.0000016034     1.000000    0.00028841
  707      -16.4359170058      -0.0000016338     1.000000    0.00029176
  708      -16.4359186707      -0.0000016649     1.000000    0.00029517
  709      -16.4359203675      -0.0000016968     1.000000    0.00029863
  710      -16.4359220969      -0.0000017294     1.000000    0.00030214
  711      -16.4359238597      -0.0000017628     1.000000    0.00030571
  712      -16.4359256568      -0.0000017970     1.000000    0.00030933
  713      -16.4359274889      -0.0000018321     1.000000    0.00031302
  714      -16.4359293568      -0.0000018680     1.000000    0.00031676
  715      -16.4359312615      -0.0000019047     1.000000    0.00032056
  716      -16.4359332039      -0.0000019424     1.000000    0.00032443
  717      -16.4359351849      -0.0000019809     1.000000    0.00032835
  718      -16.4359372053      -0.0000020204     1.000000    0.00033234
  719      -16.4359392662      -0.0000020609     1.000000    0.00033639
  720      -16.4359413686      -0.0000021024     1.000000    0.00034050
  721      -16.4359435135      -0.0000021449     1.000000    0.00034468
  722      -16.4359457019      -0.0000021884     1.000000    0.00034892
  723      -16.4359479349      -0.0000022330     1.000000    0.00035324
  724      -16.4359502135      -0.0000022787     1.000000    0.00035762
  725      -16.4359525390      -0.0000023255     1.000000    0.00036207
  726      -16.4359549125      -0.0000023735     1.000000    0.00036659
  727      -16.4359573351      -0.0000024226     1.000000    0.00037118
  728      -16.4359598081      -0.0000024730     1.000000    0.00037584
  729      -16.4359623327      -0.0000025246     1.000000    0.00038058
  730      -16.4359649101      -0.0000025775     1.000000    0.00038539
  731      -16.4359675418      -0.0000026317     1.000000    0.00039028
  732      -16.4359702290      -0.0000026872     1.000000    0.00039524
  733      -16.4359729732      -0.0000027441     1.000000    0.00040027
  734      -16.4359757756      -0.0000028024     1.000000    0.00040539
  735      -16.4359786378      -0.0000028622     1.000000    0.00041058
  736      -16.4359815613      -0.0000029234     1.000000    0.00041585
  737      -16.4359845474      -0.0000029862     1.000000    0.00042121
  738      -16.4359875979      -0.0000030505     1.000000    0.00042664
  739      -16.4359907143      -0.0000031164     1.000000    0.00043215
  740      -16.4359938982      -0.0000031839     1.000000    0.00043775
  741      -16.4359971513      -0.0000032531     1.000000    0.00044343
  742      -16.4360004752      -0.0000033239     1.000000    0.00044919
  743      -16.4360038717      -0.0000033965     1.000000    0.00045504
  744      -16.4360073426      -0.0000034709     1.000000    0.00046097
  745      -16.4360108897      -0.0000035471     1.000000    0.00046699
  746      -16.4360145149      -0.0000036251     1.000000    0.00047309
  747      -16.4360182199      -0.0000037051     1.000000    0.00047928
  748      -16.4360220069      -0.0000037870     1.000000    0.00048555
  749      -16.4360258777      -0.0000038708     1.000000    0.00049191
  750      -16.4360298344      -0.0000039567     1.000000    0.00049836
  751      -16.4360338789      -0.0000040446     1.000000    0.00050489
  752      -16.4360380135      -0.0000041346     1.000000    0.00051151
  753      -16.4360422402      -0.0000042267     1.000000    0.00051822
  754      -16.4360465611      -0.0000043210     1.000000    0.00052501
  755      -16.4360509786      -0.0000044175     1.000000    0.00053188
  756      -16.4360554948      -0.0000045162     1.000000    0.00053885
  757      -16.4360601120      -0.0000046172     1.000000    0.00054589
  758      -16.4360648326      -0.0000047205     1.000000    0.00055302
  759      -16.4360696588      -0.0000048262     1.000000    0.00056023
  760      -16.4360745930      -0.0000049343     1.000000    0.00056752
  761      -16.4360796377      -0.0000050447     1.000000    0.00057489
  762      -16.4360847953      -0.0000051576     1.000000    0.00058234
  763      -16.4360900683      -0.0000052730     1.000000    0.00058986
  764      -16.4360954591      -0.0000053908     1.000000    0.00059746
  765      -16.4361009703      -0.0000055111     1.000000    0.00060513
  766      -16.4361066043      -0.0000056340     1.000000    0.00061287
  767      -16.4361123637      -0.0000057594     1.000000    0.00062068
  768      -16.4361182511      -0.0000058874     1.000000    0.00062855
  769      -16.4361242691      -0.0000060179     1.000000    0.00063648
  770      -16.4361304201      -0.0000061510     1.000000    0.00064447
  771      -16.4361367068      -0.0000062867     1.000000    0.00065252
  772      -16.4361431317      -0.0000064249     1.000000    0.00066061
  773      -16.4361496973      -0.0000065657     1.000000    0.00066874
  774      -16.4361564063      -0.0000067089     1.000000    0.00067692
  775      -16.4361632610      -0.0000068547     1.000000    0.00068513
  776      -16.4361702640      -0.0000070030     1.000000    0.00069336
  777      -16.4361774177      -0.0000071537     1.000000    0.00070162
  778      -16.4361847245      -0.0000073068     1.000000    0.00070990
  779      -16.4361921866      -0.0000074622     1.000000    0.00071819
  780      -16.4361998065      -0.0000076198     1.000000    0.00072647
  781      -16.4362075862      -0.0000077797     1.000000    0.00073475
  782      -16.4362155279      -0.0000079417     1.000000    0.00074302
  783      -16.4362236335      -0.0000081057     1.000000    0.00075126
  784      -16.4362319051      -0.0000082716     1.000000    0.00075947
  785      -16.4362403443      -0.0000084392     1.000000    0.00076764
  786      -16.4362489529      -0.0000086086     1.000000    0.00077575
  787      -16.4362577323      -0.0000087794     1.000000    0.00078381
  788      -16.4362666840      -0.0000089516     1.000000    0.00079178
  789      -16.4362758090      -0.0000091250     1.000000    0.00079967
  790      -16.4362851084      -0.0000092994     1.000000    0.00080745
  791      -16.4362945830      -0.0000094746     1.000000    0.00081513
  792      -16.4363042333      -0.0000096503     1.000000    0.00082268
  793      -16.4363140597      -0.0000098264     1.000000    0.00083008
  794      -16.4363240622      -0.0000100026     1.000000    0.00083733
  795      -16.4363342408      -0.0000101785     1.000000    0.00084441
  796      -16.4363445948      -0.0000103540     1.000000    0.00085130
  797      -16.4363551236      -0.0000105288     1.000000    0.00085799
  798      -16.4363658260      -0.0000107024     1.000000    0.00086446
  799      -16.4363767006      -0.0000108746     1.000000    0.00087069
  800      -16.4363877457      -0.0000110450     1.000000    0.00087666
  801      -16.4363989590      -0.0000112133     1.000000    0.00088236
  802      -16.4364103380      -0.0000113790     1.000000    0.00088777
  803      -16.4364218798      -0.0000115418     1.000000    0.00089287
  804      -16.4364335809      -0.0000117012     1.000000    0.00089764
  805      -16.4364454377      -0.0000118567     1.000000    0.00090207
  806      -16.4364574458      -0.0000120081     1.000000    0.00090612
  807      -16.4364696005      -0.0000121547     1.000000    0.00090980
  808      -16.4364818967      -0.0000122962     1.000000    0.00091307
  809      -16.4364943286      -0.0000124320     1.000000    0.00091591
  810      -16.4365068903      -0.0000125617     1.000000    0.00091831
  811      -16.4365195751      -0.0000126848     1.000000    0.00092026
  812      -16.4365323759      -0.0000128008     1.000000    0.00092173
  813      -16.4365452851      -0.0000129092     1.000000    0.00092271
  814      -16.4365582947      -0.0000130096     1.000000    0.00092317
  815      -16.4365713961      -0.0000131014     1.000000    0.00092311
  816      -16.4365845804      -0.0000131843     1.000000    0.00092252
  817      -16.4365978382      -0.0000132578     1.000000    0.00092137
  818      -16.4366111595      -0.0000133214     1.000000    0.00091966
  819      -16.4366245342      -0.0000133747     1.000000    0.00091737
  820      -16.4366379516      -0.0000134174     1.000000    0.00091450
  821      -16.4366514007      -0.0000134491     1.000000    0.00091104
  822      -16.4366648701      -0.0000134694     1.000000    0.00090699
  823      -16.4366783483      -0.0000134782     1.000000    0.00090233
  824      -16.4366918233      -0.0000134751     1.000000    0.00089707
  825      -16.4367052832      -0.0000134598     1.000000    0.00089120
  826      -16.4367187156      -0.0000134324     1.000000    0.00088474
  827      -16.4367321082      -0.0000133926     1.000000    0.00087767
  828      -16.4367454485      -0.0000133403     1.000000    0.00087002
  829      -16.4367587241      -0.0000132756     1.000000    0.00086178
  830      -16.4367719225      -0.0000131984     1.000000    0.00085296
  831      -16.4367850314      -0.0000131089     1.000000    0.00084359
  832      -16.4367980386      -0.0000130072     1.000000    0.00083366
  833      -16.4368109320      -0.0000128934     1.000000    0.00082321
  834      -16.4368236999      -0.0000127679     1.000000    0.00081225
  835      -16.4368363307      -0.0000126308     1.000000    0.00080080
  836      -16.4368488134      -0.0000124827     1.000000    0.00078887
  837      -16.4368611371      -0.0000123237     1.000000    0.00077651
  838      -16.4368732915      -0.0000121544     1.000000    0.00076373
  839      -16.4368852669      -0.0000119753     1.000000    0.00075055
  840      -16.4368970538      -0.0000117869     1.000000    0.00073701
  841      -16.4369086435      -0.0000115897     1.000000    0.00072314
  842      -16.4369200279      -0.0000113844     1.000000    0.00070897
  843      -16.4369311994      -0.0000111715     1.000000    0.00069453
  844      -16.4369421510      -0.0000109516     1.000000    0.00067985
  845      -16.4369528765      -0.0000107255     1.000000    0.00066496
  846      -16.4369633703      -0.0000104938     1.000000    0.00064990
  847      -16.4369736274      -0.0000102571     1.000000    0.00063470
  848      -16.4369836436      -0.0000100163     1.000000    0.00061939
  849      -16.4369934154      -0.0000097718     1.000000    0.00060400
  850      -16.4370029399      -0.0000095245     1.000000    0.00058857
  851      -16.4370122148      -0.0000092749     1.000000    0.00057313
  852      -16.4370212386      -0.0000090238     1.000000    0.00055769
  853      -16.4370300102      -0.0000087717     1.000000    0.00054415
  854      -16.4370385295      -0.0000085193     1.000000    0.00053719
  855      -16.4370467966      -0.0000082671     1.000000    0.00053000
  856      -16.4370548124      -0.0000080158     1.000000    0.00052260
  857      -16.4370625782      -0.0000077658     1.000000    0.00051500
  858      -16.4370700959      -0.0000075177     1.000000    0.00050723
  859      -16.4370773678      -0.0000072719     1.000000    0.00049930
  860      -16.4370843967      -0.0000070289     1.000000    0.00049124
  861      -16.4370911857      -0.0000067891     1.000000    0.00048305
  862      -16.4370977385      -0.0000065528     1.000000    0.00047477
  863      -16.4371040588      -0.0000063204     1.000000    0.00046640
  864      -16.4371101510      -0.0000060921     1.000000    0.00045797
  865      -16.4371160194      -0.0000058684     1.000000    0.00044948
  866      -16.4371216687      -0.0000056493     1.000000    0.00044097
  867      -16.4371271039      -0.0000054352     1.000000    0.00043243
  868      -16.4371323299      -0.0000052261     1.000000    0.00042389
  869      -16.4371373521      -0.0000050222     1.000000    0.00041536
  870      -16.4371421758      -0.0000048237     1.000000    0.00040685
  871      -16.4371468063      -0.0000046306     1.000000    0.00039837
  872      -16.4371512493      -0.0000044430     1.000000    0.00038993
  873      -16.4371555102      -0.0000042609     1.000000    0.00038156
  874      -16.4371595946      -0.0000040844     1.000000    0.00037324
  875      -16.4371635080      -0.0000039134     1.000000    0.00036500
  876      -16.4371672561      -0.0000037481     1.000000    0.00035684
  877      -16.4371708443      -0.0000035882     1.000000    0.00034877
  878      -16.4371742780      -0.0000034338     1.000000    0.00034080
  879      -16.4371775628      -0.0000032847     1.000000    0.00033293
  880      -16.4371807038      -0.0000031410     1.000000    0.00032516
  881      -16.4371837064      -0.0000030026     1.000000    0.00031751
  882      -16.4371865757      -0.0000028693     1.000000    0.00030997
  883      -16.4371893168      -0.0000027411     1.000000    0.00030256
  884      -16.4371919345      -0.0000026177     1.000000    0.00029526
  885      -16.4371944337      -0.0000024992     1.000000    0.00028810
  886      -16.4371968192      -0.0000023855     1.000000    0.00028106
  887      -16.4371990954      -0.0000022762     1.000000    0.00027415
  888      -16.4372012669      -0.0000021715     1.000000    0.00026737
  889      -16.4372033379      -0.0000020710     1.000000    0.00026072
  890      -16.4372053127      -0.0000019748     1.000000    0.00025421
  891      -16.4372071953      -0.0000018826     1.000000    0.00024783
  892      -16.4372089896      -0.0000017943     1.000000    0.00024158
  893      -16.4372106995      -0.0000017099     1.000000    0.00023546
  894      -16.4372123286      -0.0000016291     1.000000    0.00022948
  895      -16.4372138803      -0.0000015518     1.000000    0.00022363
  896      -16.4372153583      -0.0000014779     1.000000    0.00021791
  897      -16.4372167657      -0.0000014074     1.000000    0.00021232
  898      -16.4372181056      -0.0000013400     1.000000    0.00020685
  899      -16.4372193812      -0.0000012756     1.000000    0.00020158
  900      -16.4372205953      -0.0000012141     1.000000    0.00019726
  901      -16.4372217508      -0.0000011555     1.000000    0.00019299
  902      -16.4372228503      -0.0000010995     1.000000    0.00018879
  903      -16.4372238965      -0.0000010462     1.000000    0.00018465
  904      -16.4372248917      -0.0000009953     1.000000    0.00018058
  905      -16.4372258385      -0.0000009467     1.000000    0.00017656
  906      -16.4372267389      -0.0000009005     1.000000    0.00017262
  907      -16.4372275953      -0.0000008564     1.000000    0.00016874
  908      -16.4372284097      -0.0000008144     1.000000    0.00016492
  909      -16.4372291841      -0.0000007744     1.000000    0.00016118
  910      -16.4372299204      -0.0000007363     1.000000    0.00015750
  911      -16.4372306203      -0.0000007000     1.000000    0.00015388
  912      -16.4372312858      -0.0000006654     1.000000    0.00015034
  913      -16.4372319183      -0.0000006325     1.000000    0.00014686
  914      -16.4372325195      -0.0000006012     1.000000    0.00014344
  915      -16.4372330909      -0.0000005714     1.000000    0.00014009
  916      -16.4372336340      -0.0000005431     1.000000    0.00013681
  917      -16.4372341501      -0.0000005161     1.000000    0.00013360
  918      -16.4372346405      -0.0000004904     1.000000    0.00013045
  919      -16.4372351065      -0.0000004660     1.000000    0.00012736
  920      -16.4372355493      -0.0000004428     1.000000    0.00012433
  921      -16.4372359700      -0.0000004207     1.000000    0.00012137
  922      -16.4372363696      -0.0000003997     1.000000    0.00011848
  923      -16.4372367494      -0.0000003797     1.000000    0.00011564
  924      -16.4372371101      -0.0000003607     1.000000    0.00011286
  925      -16.4372374528      -0.0000003427     1.000000    0.00011015
  926      -16.4372377783      -0.0000003255     1.000000    0.00010749
  927      -16.4372380875      -0.0000003092     1.000000    0.00010489
  928      -16.4372383812      -0.0000002937     1.000000    0.00010235
  929      -16.4372386601      -0.0000002790     1.000000    0.00009986
  930      -16.4372389251      -0.0000002650     1.000000    0.00009743
  931      -16.4372391767      -0.0000002516     1.000000    0.00009505
  932      -16.4372394157      -0.0000002390     1.000000    0.00009273
  933      -16.4372396427      -0.0000002270     1.000000    0.00009046
  934      -16.4372398583      -0.0000002156     1.000000    0.00008824
  935      -16.4372400630      -0.0000002047     1.000000    0.00008608
  936      -16.4372402574      -0.0000001944     1.000000    0.00008396
  937      -16.4372404420      -0.0000001846     1.000000    0.00008189
  938      -16.4372406173      -0.0000001753     1.000000    0.00007987
  939      -16.4372407838      -0.0000001665     1.000000    0.00007790
  940      -16.4372409419      -0.0000001581     1.000000    0.00007597
  941      -16.4372410920      -0.0000001501     1.000000    0.00007409
  942      -16.4372412345      -0.0000001425     1.000000    0.00007225
  943      -16.4372413698      -0.0000001353     1.000000    0.00007046
  944      -16.4372414983      -0.0000001285     1.000000    0.00006870
  945      -16.4372416203      -0.0000001220     1.000000    0.00006699
  946      -16.4372417362      -0.0000001158     1.000000    0.00006532
  947      -16.4372418462      -0.0000001100     1.000000    0.00006369
  948      -16.4372419506      -0.0000001044     1.000000    0.00006210
  949      -16.4372420498      -0.0000000992     1.000000    0.00006055
  950      -16.4372421439      -0.0000000941     1.000000    0.00005904
  951      -16.4372422333      -0.0000000894     1.000000    0.00005756
  952      -16.4372423182      -0.0000000849     1.000000    0.00005612
  953      -16.4372423987      -0.0000000806     1.000000    0.00005471
  954      -16.4372424752      -0.0000000765     1.000000    0.00005334
  955      -16.4372425479      -0.0000000726     1.000000    0.00005200
  956      -16.4372426168      -0.0000000689     1.000000    0.00005069
  957      -16.4372426823      -0.0000000655     1.000000    0.00004942
  958      -16.4372427444      -0.0000000621     1.000000    0.00004817
  959      -16.4372428034      -0.0000000590     1.000000    0.00004696
  960      -16.4372428594      -0.0000000560     1.000000    0.00004578
  961      -16.4372429126      -0.0000000532     1.000000    0.00004462
  962      -16.4372429631      -0.0000000505     1.000000    0.00004350
  963      -16.4372430110      -0.0000000479     1.000000    0.00004240
  964      -16.4372430565      -0.0000000455     1.000000    0.00004133
  965      -16.4372430997      -0.0000000432     1.000000    0.00004028
  966      -16.4372431407      -0.0000000410     1.000000    0.00003926
  967      -16.4372431796      -0.0000000389     1.000000    0.00003827
  968      -16.4372432166      -0.0000000370     1.000000    0.00003730
  969      -16.4372432517      -0.0000000351     1.000000    0.00003636
  970      -16.4372432850      -0.0000000333     1.000000    0.00003544
  971      -16.4372433166      -0.0000000316     1.000000    0.00003454
  972      -16.4372433466      -0.0000000300     1.000000    0.00003366
  973      -16.4372433751      -0.0000000285     1.000000    0.00003281
  974      -16.4372434021      -0.0000000270     1.000000    0.00003198
  975      -16.4372434278      -0.0000000257     1.000000    0.00003116
  976      -16.4372434522      -0.0000000244     1.000000    0.00003037
  977      -16.4372434753      -0.0000000231     1.000000    0.00002960
  978      -16.4372434973      -0.0000000220     1.000000    0.00002885
  979      -16.4372435182      -0.0000000209     1.000000    0.00002812
  980      -16.4372435379      -0.0000000198     1.000000    0.00002740
  981      -16.4372435567      -0.0000000188     1.000000    0.00002670
  982      -16.4372435746      -0.0000000178     1.000000    0.00002602
  983      -16.4372435915      -0.0000000169     1.000000    0.00002536
  984      -16.4372436076      -0.0000000161     1.000000    0.00002472
  985      -16.4372436228      -0.0000000153     1.000000    0.00002409
  986      -16.4372436373      -0.0000000145     1.000000    0.00002347
  987      -16.4372436511      -0.0000000138     1.000000    0.00002287
  988      -16.4372436641      -0.0000000131     1.000000    0.00002229
  989      -16.4372436765      -0.0000000124     1.000000    0.00002172
  990      -16.4372436883      -0.0000000118     1.000000    0.00002117
  991      -16.4372436995      -0.0000000112     1.000000    0.00002063
  992      -16.4372437101      -0.0000000106     1.000000    0.00002010
  993      -16.4372437201      -0.0000000101     1.000000    0.00001959
  994      -16.4372437297      -0.0000000096     1.000000    0.00001909
  995      -16.4372437387      -0.0000000091     1.000000    0.00001860
  996      -16.4372437474      -0.0000000086     1.000000    0.00001813
  997      -16.4372437555      -0.0000000082     1.000000    0.00001767
  998      -16.4372437633      -0.0000000078     1.000000    0.00001721
  999      -16.4372437706      -0.0000000074     1.000000    0.00001677
 1000      -16.4372437776      -0.0000000070     1.000000    0.00001635

Total Energy:                      -16.4372437776 H         -447.2802 eV
Extrapolated to 0:                 -16.3726135042 H         -445.5215 eV

----------------------------------------------------------------------------------
 Solving CP-REKS equation for  1 state vector...
----------------------------------------------------------------------------------
  CG solver: Constructing Y initial guess
  CG solver: Iteration    1    eps =    0.068389234291
  CG solver: Iteration    2    eps =    0.012347971011
  CG solver: Iteration    3    eps =    0.002003587307
  CG solver: Iteration    4    eps =    0.000264511154
  CG solver: Iteration    5    eps =    0.000192947792
  CG solver: Iteration    6    eps =    0.000085668917
  CG solver: Iteration    7    eps =    0.000048234521
  CG solver: Iteration    8    eps =    0.000034711872
  CG solver: Iteration    9    eps =    0.000011546903
  CG solver: Iteration   10    eps =    0.000017804303
  CG solver: Iteration   11    eps =    0.000005447230
  CG solver: Iteration   12    eps =    0.000000731077
  CG solver: Iteration   13    eps =    0.000000080036
  CG solver: Iteration   14    eps =    0.000000010843
  CG solver: Iteration   15    eps =    0.000000000385
  Convergence reached in CG solver after   15 iterations
  CG solver: Calculating converged R, Z, Q2 matrix
----------------------------------------------------------------------------------

----------------------------------------------------------------------------------
 Solving CP-REKS equation for SI between  1 and  2 state vectors...
----------------------------------------------------------------------------------
  CG solver: Constructing Y initial guess
  CG solver: Iteration    1    eps =    0.001145539333
  CG solver: Iteration    2    eps =    0.000719853287
  CG solver: Iteration    3    eps =    0.000338949507
  CG solver: Iteration    4    eps =    0.000160002198
  CG solver: Iteration    5    eps =    0.000144992490
  CG solver: Iteration    6    eps =    0.000077199056
  CG solver: Iteration    7    eps =    0.000060124830
  CG solver: Iteration    8    eps =    0.000040064570
  CG solver: Iteration    9    eps =    0.000002283379
  CG solver: Iteration   10    eps =    0.000000246016
  CG solver: Iteration   11    eps =    0.000000039605
  CG solver: Iteration   12    eps =    0.000000007161
  Convergence reached in CG solver after   12 iterations
  CG solver: Calculating converged R, Z, Q2 matrix
----------------------------------------------------------------------------------

--------------------------------------------------
 Gradient Information
--------------------------------------------------
           1 st state (SSR)
     0.00000000     0.00000000     0.00000000
     0.00000000     0.00000000     0.00000000
     0.00000000     0.00000000     0.00000000
     0.00000000     0.00000000     0.00000000
     0.00000000     0.00000000     0.00000000
     0.00000000     0.00000000     0.00000000
     0.00000000     0.00000000     0.00000000
     0.00000000     0.00000000     0.00000000
     0.00000000     0.00000000     0.00000000
     0.00000000     0.00000000     0.00000000
     0.00000000     0.00000000     0.00000000
     0.00000000     0.00000000     0.00000000
     0.00000000     0.00000000     0.00000000
     0.00000000     0.00000000     0.00000000

           2 st state (SSR)
     0.00000000     0.00000000     0.00000000
     0.00000000     0.00000000     0.00000000
     0.00000000     0.00000000     0.00000000
     0.00000000     0.00000000     0.00000000
     0.00000000     0.00000000     0.00000000
     0.00000000     0.00000000     0.00000000
     0.00000000     0.00000000     0.00000000
     0.00000000     0.00000000     0.00000000
     0.00000000     0.00000000     0.00000000
     0.00000000     0.00000000     0.00000000
     0.00000000     0.00000000     0.00000000
     0.00000000     0.00000000     0.00000000
     0.00000000     0.00000000     0.00000000
     0.00000000     0.00000000     0.00000000
--------------------------------------------------
 Coupling Information
--------------------------------------------------
 between  1 and  2 states
--------------------------------------------------
 g vector - difference gradient
     0.00983199    -0.01860849    -0.03275508
     0.02682079    -0.08713927     0.38588278
     0.10939339     0.08737515     0.11892965
    -0.09723571    -0.06802169    -0.13886887
    -0.14702109    -0.06402863    -0.06105417
     0.38875329     0.13272777    -0.07469383
    -0.44574448    -0.11733738    -0.20731884
     0.00172684     0.10814326    -0.09771253
    -0.02782893    -0.04098486     0.00883697
     0.11233273    -0.02222170     0.01433056
     0.07429450    -0.05420731    -0.00951590
    -0.04013952     0.11942694     0.08652834
    -0.05864803     0.01871392     0.08400673
     0.09346424     0.00616229    -0.07659582

 h vector - derivative coupling
    -0.01947895     0.00592018     0.01223752
     0.01571333     0.00211337    -0.02302795
     0.00046081     0.00061327    -0.00032625
     0.00150580     0.00236932     0.00241773
     0.00153730    -0.00031926     0.00205682
     0.00284296    -0.01269408     0.01585941
     0.01947722     0.00600797    -0.01085545
    -0.00196072     0.00066063     0.00068507
    -0.00781115     0.00842157     0.00000981
    -0.00734678    -0.00895294     0.00144193
    -0.00199553    -0.00033131     0.00198794
    -0.00269038    -0.00353776    -0.00197046
    -0.00064164     0.00012174     0.00019210
     0.00038774    -0.00039270    -0.00070823

 G vector - GDV
     0.00000000     0.00000000     0.00000000
     0.00000000     0.00000000     0.00000000
     0.00000000     0.00000000     0.00000000
     0.00000000     0.00000000     0.00000000
     0.00000000     0.00000000     0.00000000
     0.00000000     0.00000000     0.00000000
     0.00000000     0.00000000     0.00000000
     0.00000000     0.00000000     0.00000000
     0.00000000     0.00000000     0.00000000
     0.00000000     0.00000000     0.00000000
     0.00000000     0.00000000     0.00000000
     0.00000000     0.00000000     0.00000000
     0.00000000     0.00000000     0.00000000
     0.00000000     0.00000000     0.00000000

 H vector - DCV - non-adiabatic coupling
     0.00000000     0.00000000     0.00000000
     0.00000000     0.00000000     0.00000000
     0.00000000     0.00000000     0.00000000
     0.00000000     0.00000000     0.00000000
     0.00000000     0.00000000     0.00000000
     0.00000000     0.00000000     0.00000000
     0.00000000     0.00000000     0.00000000
     0.00000000     0.00000000     0.00000000
     0.00000000     0.00000000     0.00000000
     0.00000000     0.00000000     0.00000000
     0.00000000     0.00000000     0.00000000
     0.00000000     0.00000000     0.00000000
     0.00000000     0.00000000     0.00000000
     0.00000000     0.00000000     0.00000000
--------------------------------------------------

WARNING!
-> SCC is NOT converged, maximal SCC iterations exceeded

--------------------------------------------------------------------------------
DFTB+ running times                          cpu [s]             wall clock [s]
--------------------------------------------------------------------------------
SCC                                    +     1.45  ( 79.7%)      1.45  ( 79.5%)
      Sparse to dense                        0.08  (  4.2%)      0.06  (  3.3%)
      Dense to sparse                        0.26  ( 14.4%)      0.28  ( 15.2%)
      Range separated Hamiltonian            0.13  (  6.9%)      0.13  (  6.9%)
  Density matrix creation                    0.16  (  8.7%)      0.16  (  8.9%)
  Force calculation                          0.37  ( 20.1%)      0.37  ( 20.1%)
--------------------------------------------------------------------------------
Missing                                +     0.37  ( 20.3%)      0.37  ( 20.5%)
Total                                  =     1.82  (100.0%)      1.82  (100.0%)
--------------------------------------------------------------------------------
