|===============================================================================
|
|  DFTB+ release 20.1
|
|  Copyright (C) 2006 - 2020  DFTB+ developers group
|
|===============================================================================
|
|  When publishing results obtained with DFTB+, please cite the following
|  reference:
|
|  * DFTB+, a software package for efficient approximate density functional
|    theory based atomistic simulations, J. Chem. Phys. 152, 124101 (2020).
|    [doi: 10.1063/1.5143190]
|
|  You should also cite additional publications crediting the parametrization
|  data you use. Please consult the documentation of the SK-files for the
|  references.
|
|===============================================================================

Reading input file 'dftb_in.hsd'
Parser version: 8

--------------------------------------------------------------------------------
Reading SK-files:
Done.


Processed input in HSD format written to 'dftb_pin.hsd'

Starting initialization...
--------------------------------------------------------------------------------
OpenMP threads:              1
Chosen random seed:          507640855
Mode:                        Static calculation
Self consistent charges:     Yes
SCC-tolerance:                 0.100000E-05
Max. scc iterations:                   1000
Shell resolved Hubbard:      No
Spin polarisation:           No
Nr. of up electrons:             6.000000
Nr. of down electrons:           6.000000
Periodic boundaries:         No
Electronic solver:           Relatively robust
Maximal SCC-cycles:                    1000
Initial charges:             Set automatically (system chrg:   0.100E+01)
Included shells:             C:  s, p
                             N:  s, p
                             H:  s
Spin coupling constants:     C   1(s)-1(s):  -0.455900E-01
                             C   1(s)-2(p):  -0.293000E-01
                             C   2(p)-1(s):  -0.293000E-01
                             C   2(p)-2(p):  -0.275500E-01
                             N   1(s)-1(s):  -0.468700E-01
                             N   1(s)-2(p):  -0.317000E-01
                             N   2(p)-1(s):  -0.317000E-01
                             N   2(p)-2(p):  -0.307200E-01
                             H   1(s)-1(s):  -0.792500E-01
Range separated hybrid:      Yes
  Screening parameter omega:   0.300000E+00
  Range separated algorithm:   MatrixBased
Extra options:
                             Mulliken analysis
                             Force calculation
Force type                   original
                             Eigenvector printing


REKS Calcuation:             Yes
SSR(2,2) Calcuation:         Yes
Energy Functional:           (PPS+OSS)/2
Number of Core Orbitals:                  5
Number of Active Orbitals:                2
Number of Basis:                         12
Number of States:                         2
State-Averaging Weight:          0.500000
                                 0.500000
State of Interest:                        1
Initial Guess:               Diagonalize H0 matrix
Newton-Raphson for FON opt:  Yes
NR max. Iterations:                      50
Level Shifting:              Yes
Shift Value:                     0.300000
W Scale Factor:              C  =    3.000000
                             N  =    3.000000
                             H  =    3.000000
Transition Dipole:           No
Gradient of Microstate:      No
CP-REKS Solver:              Preconditioned Conjugate-Gradient
CG max. Iterations:                     100
CG Tolerance:                  0.100000E-07
Memory for A and Hxc:        Direct Updating Without Saving
Non-Adiabatic Coupling:      Yes

--------------------------------------------------------------------------------

***  Geometry step: 0

  iSCC       reks energy        Diff energy         x_a       SCC error   
    1       -6.2650898016       0.0000000000     0.999449    1.18971716
    2       -6.2773990259      -0.0123092242     0.999761    0.09446166
    3       -6.2813073988      -0.0039083729     0.999864    0.03961575
    4       -6.2832897449      -0.0019823461     0.999909    0.01919101
    5       -6.2844219752      -0.0011322303     0.999932    0.00966279
    6       -6.2850992350      -0.0006772598     0.999944    0.00754474
    7       -6.2855101631      -0.0004109281     0.999951    0.00647169
    8       -6.2857596035      -0.0002494405     0.999955    0.00535077
    9       -6.2859105018      -0.0001508983     0.999958    0.00431509
   10       -6.2860015330      -0.0000910312     0.999959    0.00342010
   11       -6.2860564145      -0.0000548815     0.999960    0.00267816
   12       -6.2860895588      -0.0000331444     0.999961    0.00207976
   13       -6.2861096494      -0.0000200906     0.999961    0.00160608
   14       -6.2861218892      -0.0000122398     0.999962    0.00123592
   15       -6.2861293901      -0.0000075008     0.999962    0.00099352
   16       -6.2861340153      -0.0000046252     0.999962    0.00081861
   17       -6.2861368848      -0.0000028695     0.999962    0.00067234
   18       -6.2861386752      -0.0000017905     0.999962    0.00055065
   19       -6.2861397983      -0.0000011231     0.999962    0.00044987
   20       -6.2861405060      -0.0000007077     0.999962    0.00036674
   21       -6.2861409537      -0.0000004477     0.999962    0.00029841
   22       -6.2861412379      -0.0000002842     0.999962    0.00024240
   23       -6.2861414188      -0.0000001809     0.999962    0.00019661
   24       -6.2861415342      -0.0000001154     0.999962    0.00016008
   25       -6.2861416080      -0.0000000738     0.999962    0.00013054
   26       -6.2861416552      -0.0000000472     0.999962    0.00010623
   27       -6.2861416855      -0.0000000303     0.999962    0.00008629
   28       -6.2861417049      -0.0000000194     0.999962    0.00006999
   29       -6.2861417174      -0.0000000125     0.999962    0.00005669
   30       -6.2861417254      -0.0000000080     0.999962    0.00004586
   31       -6.2861417305      -0.0000000052     0.999962    0.00003707
   32       -6.2861417339      -0.0000000033     0.999962    0.00002993
   33       -6.2861417360      -0.0000000021     0.999962    0.00002415
   34       -6.2861417374      -0.0000000014     0.999962    0.00001948
   35       -6.2861417383      -0.0000000009     0.999962    0.00001570
   36       -6.2861417388      -0.0000000006     0.999962    0.00001264
   37       -6.2861417392      -0.0000000004     0.999962    0.00001018
   38       -6.2861417394      -0.0000000002     0.999962    0.00000819
   39       -6.2861417396      -0.0000000002     0.999962    0.00000659
   40       -6.2861417397      -0.0000000001     0.999962    0.00000530
   41       -6.2861417397      -0.0000000001     0.999962    0.00000426
   42       -6.2861417398      -0.0000000000     0.999962    0.00000343
   43       -6.2861417398      -0.0000000000     0.999962    0.00000275
   44       -6.2861417398      -0.0000000000     0.999962    0.00000221
   45       -6.2861417398      -0.0000000000     0.999962    0.00000178
   46       -6.2861417398      -0.0000000000     0.999962    0.00000143
   47       -6.2861417398      -0.0000000000     0.999962    0.00000115
   48       -6.2861417398      -0.0000000000     0.999962    0.00000092
  
--------------------------------------------------
 Final SA-REKS(2,2) energy:      -6.28614174
  
 State     Energy      FON(1)    FON(2)   Spin
  PPS   -6.41400221   1.999924  0.000076  0.00
  OSS   -6.15828127   1.000000  1.000000  0.00
 Trip   -6.23801972   1.000000  1.000000  1.00
--------------------------------------------------

 Lagrangian Wab:   0.00400417  0.00400403

--------------------------------------------------
 SSR: 2SI-2SA-REKS(2,2) Hamiltonian matrix
               PPS           OSS
   PPS    -6.41400221    0.00562778
   OSS     0.00562778   -6.15828127
--------------------------------------------------

----------------------------------------------------------------
 SSR: 2SI-2SA-REKS(2,2) states
                    E_n       C_{PPS}    C_{OSS}
 SSR state  1   -6.41412601  -0.999758   0.021992
 SSR state  2   -6.15815747  -0.021992  -0.999758
----------------------------------------------------------------

 unrelaxed SSR FONs for S0:  1.999441  0.000559

Total Energy:                       -6.4141260079 H         -174.5372 eV
Extrapolated to 0:                  -6.4141260079 H         -174.5372 eV

----------------------------------------------------------------------------------
 Solving CP-REKS equation for  1 state vector...
----------------------------------------------------------------------------------
  CG solver: Constructing Y initial guess
  CG solver: Iteration    1    eps =    0.000090392518
  CG solver: Iteration    2    eps =    0.000017339284
  CG solver: Iteration    3    eps =    0.000000662013
  CG solver: Iteration    4    eps =    0.000000235864
  CG solver: Iteration    5    eps =    0.000000009190
  Convergence reached in CG solver after    5 iterations
  CG solver: Calculating converged R, Z, Q2 matrix
----------------------------------------------------------------------------------

----------------------------------------------------------------------------------
 Solving CP-REKS equation for SI between  1 and  2 state vectors...
----------------------------------------------------------------------------------
  CG solver: Constructing Y initial guess
  CG solver: Iteration    1    eps =    0.001148547028
  CG solver: Iteration    2    eps =    0.000970626720
  CG solver: Iteration    3    eps =    0.000240605032
  CG solver: Iteration    4    eps =    0.000003019811
  CG solver: Iteration    5    eps =    0.000000373692
  CG solver: Iteration    6    eps =    0.000000008153
  Convergence reached in CG solver after    6 iterations
  CG solver: Calculating converged R, Z, Q2 matrix
----------------------------------------------------------------------------------

--------------------------------------------------
 Gradient Information
--------------------------------------------------
           1 st state (SSR)
     0.00325630    -0.00200274     0.03426164
    -0.00938288     0.00568635    -0.01907901
     0.00918591     0.00141734    -0.00924270
     0.01327096    -0.00223455     0.00277431
    -0.00646462    -0.00181585     0.00136592
    -0.00986568    -0.00105056    -0.01008017

           2 st state (SSR)
    -0.00597642    -0.00496239     0.13401683
     0.00961614     0.01189704    -0.14235445
    -0.00839314    -0.00891503     0.01079260
    -0.00935583     0.00390503    -0.00504806
     0.00498795    -0.00853154    -0.00831801
     0.00912131     0.00660690     0.01091110
--------------------------------------------------
 Coupling Information
--------------------------------------------------
 between  1 and  2 states
--------------------------------------------------
 g vector - difference gradient
     0.00462814     0.00155537    -0.05009651
    -0.00958498    -0.00322687     0.06179267
     0.00918686     0.00512560    -0.01001578
     0.01175921    -0.00300301     0.00392930
    -0.00610943     0.00337572     0.00489187
    -0.00987981    -0.00382682    -0.01050155

 h vector - derivative coupling
     0.00016607     0.00168385    -0.00387645
    -0.00173295    -0.00269267     0.00216445
     0.00883398    -0.00103567     0.00026279
     0.00987994     0.00158467     0.00032537
    -0.00857897     0.00033217     0.00102726
    -0.00856806     0.00012764     0.00009658

 G vector - GDV
     0.00461636     0.00147983    -0.04987759
    -0.00949951    -0.00310535     0.06163772
     0.00878952     0.00516619    -0.01001765
     0.01131339    -0.00306979     0.00391119
    -0.00572628     0.00335785     0.00484197
    -0.00949349    -0.00382873    -0.01049564

 H vector - DCV - non-adiabatic coupling
     0.00144323     0.00683917    -0.02373560
    -0.00841019    -0.01106368     0.01906300
     0.03605677    -0.00316164    -0.00069495
     0.04058101     0.00566899     0.00194492
    -0.03453284     0.00187637     0.00484973
    -0.03513798    -0.00015921    -0.00142709
--------------------------------------------------


--------------------------------------------------------------------------------
DFTB+ running times                          cpu [s]             wall clock [s]
--------------------------------------------------------------------------------
Global initialisation                  +     0.00  (  3.5%)      0.01  ( 21.1%)
SCC                                    +     0.03  ( 72.7%)      0.03  ( 57.9%)
Post-SCC processing                    +     0.01  ( 22.2%)      0.01  ( 17.5%)
--------------------------------------------------------------------------------
Missing                                +     0.00  (  1.6%)      0.00  (  3.5%)
Total                                  =     0.04  (100.0%)      0.06  (100.0%)
--------------------------------------------------------------------------------
