     6
  Step:     0            Position(A)                                  Velocity(au)
C        -0.04100368     0.01306147     0.01866963     0.00000173    -0.00010102    -0.00033631
N        -0.05381258    -0.06557260     1.29807793    -0.00004883     0.00010124     0.00022610
H         0.96161951     0.04877455    -0.51541316    -0.00027896     0.00028218     0.00049760
H         0.87252786    -0.07655758     1.83280778     0.00029237    -0.00033715     0.00032586
H        -0.85141243     0.02126844     1.84369415     0.00052149    -0.00057275    -0.00020670
H        -0.95927134     0.09231591    -0.53006355     0.00012304     0.00042461     0.00024869
     6
  Step:     1            Position(A)                                  Velocity(au)
C        -0.04094536     0.01250584     0.01646795     0.00001940    -0.00010229    -0.00046726
N        -0.05399632    -0.06506540     1.29959954    -0.00001751     0.00008442     0.00032902
H         0.95989759     0.05043425    -0.51254371    -0.00034859     0.00032457     0.00054839
H         0.87383132    -0.07825845     1.83441832     0.00018109    -0.00028534     0.00026210
H        -0.84944019     0.01837402     1.84307342     0.00019132    -0.00048601    -0.00001392
H        -0.95896684     0.09482413    -0.52883266    -0.00001174     0.00049252     0.00019917
     6
  Step:     2            Position(A)                                  Velocity(au)
C        -0.04079146     0.01194267     0.01355870     0.00003648    -0.00010373    -0.00059439
N        -0.05400407    -0.06464924     1.30167671     0.00001501     0.00006804     0.00042889
H         0.95780661     0.05232470    -0.50941483    -0.00041297     0.00036632     0.00059160
H         0.87450859    -0.07967862     1.83567467     0.00006498    -0.00023477     0.00019745
H        -0.84931976     0.01595242     1.84354185    -0.00015013    -0.00040061     0.00018793
H        -0.95939972     0.09770315    -0.52788508    -0.00014521     0.00055962     0.00014565
     6
  Step:     3            Position(A)                                  Velocity(au)
C        -0.04054628     0.01137116     0.00996585     0.00005253    -0.00010519    -0.00071586
N        -0.05383210    -0.06432115     1.30429126     0.00004762     0.00005226     0.00052465
H         0.95538004     0.05444152    -0.50607210    -0.00046965     0.00040674     0.00062517
H         0.87454214    -0.08082659     1.83657829    -0.00005250    -0.00018588     0.00013410
H        -0.85108252     0.01399165     1.84512918    -0.00049098    -0.00031794     0.00039090
H        -0.96055531     0.10094593    -0.52723938    -0.00027456     0.00062441     0.00008932
     6
  Step:     4            Position(A)                                  Velocity(au)
C        -0.04021650     0.01079130     0.00572347     0.00006706    -0.00010653    -0.00082934
N        -0.05348287    -0.06407729     1.30741906     0.00007908     0.00003725     0.00061480
H         0.95266620     0.05677655    -0.50257221    -0.00051546     0.00044498     0.00064692
H         0.87393397    -0.08171311     1.83714240    -0.00016732    -0.00013910     0.00007429
H        -0.85469365     0.01247246     1.84782032    -0.00081818    -0.00023934     0.00058619
H        -0.96240488     0.10453747    -0.52690748    -0.00039704     0.00068521     0.00003152
     6
  Step:     5            Position(A)                                  Velocity(au)
C        -0.03981147     0.01020389     0.00087828     0.00007954    -0.00010756    -0.00093208
N        -0.05296559    -0.06391300     1.31102800     0.00010808     0.00002317     0.00069754
H         0.94973183     0.05931744    -0.49898348    -0.00054680     0.00048017     0.00065468
H         0.87270870    -0.08235074     1.83739231    -0.00027488    -0.00009475     0.00002038
H        -0.86004775     0.01136907     1.85155234    -0.00111816    -0.00016600     0.00076470
H        -0.96490594     0.10845416    -0.52689397    -0.00050986     0.00074026    -0.00002627
     6
  Step:     6            Position(A)                                  Velocity(au)
C        -0.03934337     0.00961056    -0.00450828     0.00008944    -0.00010816    -0.00102111
N        -0.05229648    -0.06382290     1.31507611     0.00013330     0.00001018     0.00077077
H         0.94666387     0.06204756    -0.49538560    -0.00056005     0.00051147     0.00064658
H         0.87091658    -0.08275319     1.83736608    -0.00037014    -0.00005309    -0.00002522
H        -0.86696804     0.01065018     1.85621463    -0.00137777    -0.00009896     0.00091781
H        -0.96800179     0.11266354    -0.52719580    -0.00061018     0.00078785    -0.00008253
     6
  Step:     7            Position(A)                                  Velocity(au)
C        -0.03882722     0.00901363    -0.01035902     0.00009626    -0.00010819    -0.00109356
N        -0.05149862    -0.06380091     1.31951030     0.00015355    -0.00000158     0.00083240
H         0.94356848     0.06494615    -0.49186787    -0.00055220     0.00053812     0.00062133
H         0.86863534    -0.08293497     1.83711479    -0.00044803    -0.00001433    -0.00006014
H        -0.87521012     0.01027997     1.86165280    -0.00158542    -0.00003907     0.00103818
H        -0.97162091     0.11712446    -0.52780222    -0.00069519     0.00082642    -0.00013580
     6
  Step:     8            Position(A)                                  Velocity(au)
C        -0.03828056     0.00841608    -0.01658185     0.00009965    -0.00010758    -0.00114716
N        -0.05060123    -0.06384033     1.32426627     0.00016787    -0.00001200     0.00088062
H         0.94056726     0.06798871    -0.48852575    -0.00052133     0.00055957     0.00057855
H         0.86597003    -0.08291141     1.83670208    -0.00050397     0.00002132    -0.00008236
H        -0.88447198     0.01021886     1.86767675    -0.00173248     0.00001304     0.00112066
H        -0.97567707     0.12178771    -0.52869511    -0.00076244     0.00085475    -0.00018471
     6
  Step:     9            Position(A)                                  Velocity(au)
C        -0.03772275     0.00782134    -0.02307294     0.00009944    -0.00010630    -0.00118070
N        -0.04963818    -0.06393391     1.32927017     0.00017569    -0.00002100     0.00091432
H         0.93779061     0.07114785    -0.48545583    -0.00046711     0.00057559     0.00051902
H         0.86304982    -0.08269872     1.83620204    -0.00053450     0.00005367    -0.00009043
H        -0.89441113     0.01042451     1.87407305    -0.00181459     0.00005698     0.00116301
H        -0.98007100     0.12659760    -0.52984935    -0.00081019     0.00087219    -0.00022806
     6
  Step:    10            Position(A)                                  Velocity(au)
C        -0.03717387     0.00723303    -0.02972282     0.00009569    -0.00010439    -0.00119454
N        -0.04864580    -0.06407403     1.33444245     0.00017696    -0.00002855     0.00093346
H         0.93536837     0.07439488    -0.48274915    -0.00039109     0.00058641     0.00044480
H         0.86002119    -0.08231407     1.83569564    -0.00053791     0.00008264    -0.00008376
H        -0.90466808     0.01085302     1.88062083    -0.00183252     0.00009270     0.00116634
H        -0.98469428     0.13149499    -0.53123336    -0.00083781     0.00087896    -0.00026483
     6
  Step:    11            Position(A)                                  Velocity(au)
C        -0.03665320     0.00665451    -0.03642456     0.00008877    -0.00010202    -0.00119083
N        -0.04766030    -0.06425302     1.33970356     0.00017210    -0.00003471     0.00093932
H         0.93341938     0.07770225    -0.48048420    -0.00029645     0.00059289     0.00035900
H         0.85703752    -0.08177506     1.83526584    -0.00051458     0.00010832    -0.00006269
H        -0.91489355     0.01146067     1.88710944    -0.00179216     0.00012059     0.00113498
H        -0.98943530     0.13642182    -0.53280943    -0.00084617     0.00087633    -0.00029448
     6
  Step:    12            Position(A)                                  Velocity(au)
C        -0.03617787     0.00608836    -0.04308340     0.00012484    -0.00015662    -0.00184828
N        -0.04671494    -0.06446351     1.34498120     0.00025518    -0.00006244     0.00147206
H         0.93204233     0.08104683    -0.47872131    -0.00029538     0.00093957     0.00041784
H         0.85424781    -0.08109881     1.83499225    -0.00073523     0.00020644    -0.00004468
H        -0.92477538     0.01220604     1.89335484    -0.00268345     0.00022284     0.00169445
H        -0.99418798     0.14132706    -0.53453728    -0.00131965     0.00136517    -0.00049981
     6
  Step:    13            Position(A)                                  Velocity(au)
C        -0.03551522     0.00521061    -0.05305699     0.00006517    -0.00009277    -0.00101014
N        -0.04532804    -0.06480132     1.35297324     0.00013998    -0.00003417     0.00081461
H         0.93100525     0.08630379    -0.47698409    -0.00004054     0.00055480     0.00011933
H         0.85036248    -0.07999334     1.83491303    -0.00037576     0.00011112     0.00001519
H        -0.93944795     0.01343288     1.90265545    -0.00149393     0.00012570     0.00095146
H        -1.00176216     0.14889148    -0.53771089    -0.00081154     0.00078870    -0.00036917
     6
  Step:    14            Position(A)                                  Velocity(au)
C        -0.03518562     0.00469389    -0.05867884     0.00005104    -0.00009015    -0.00097721
N        -0.04458983    -0.06500438     1.35753316     0.00012010    -0.00003734     0.00079713
H         0.93113763     0.08944550    -0.47659624     0.00008762     0.00055682     0.00001853
H         0.84849864    -0.07930631     1.83516508    -0.00027733     0.00013118     0.00007746
H        -0.94742817     0.01417479     1.90774599    -0.00132046     0.00013483     0.00084517
H        -1.00623656     0.15329990    -0.53981769    -0.00076695     0.00077030    -0.00037387
     6
  Step:    15            Position(A)                                  Velocity(au)
C        -0.03493814     0.00419128    -0.06410662     0.00003664    -0.00008843    -0.00094913
N        -0.04397003    -0.06522355     1.36198660     0.00009921    -0.00004023     0.00078316
H         0.93199596     0.09259987    -0.47677454     0.00021594     0.00056343    -0.00008062
H         0.84722659    -0.07851008     1.83578886    -0.00016973     0.00015105     0.00014662
H        -0.95437870     0.01495743     1.91221204    -0.00114148     0.00014157     0.00073804
H        -1.01043429     0.15760151    -0.54193834    -0.00071996     0.00075682    -0.00037728
     6
  Step:    16            Position(A)                                  Velocity(au)
C        -0.03477293     0.00369792    -0.06936850     0.00002221    -0.00008751    -0.00092575
N        -0.04347252    -0.06545753     1.36635358     0.00007762    -0.00004298     0.00077258
H         0.93356969     0.09579119    -0.47750422     0.00034238     0.00057419    -0.00017774
H         0.84658702    -0.07760514     1.83681637    -0.00005527     0.00017122     0.00022132
H        -0.96028416     0.01576924     1.91605824    -0.00095941     0.00014663     0.00063150
H        -1.01434522     0.16182371    -0.54406687    -0.00067100     0.00074797    -0.00037989
     6
  Step:    17            Position(A)                                  Velocity(au)
C        -0.03468897     0.00320959    -0.07449176     0.00000794    -0.00008718    -0.00090578
N        -0.04309930    -0.06570569     1.37065347     0.00005558    -0.00004562     0.00076432
H         0.93583684     0.09904114    -0.47876845     0.00046429     0.00058790    -0.00027205
H         0.84660659    -0.07658929     1.83827162     0.00006349     0.00019191     0.00029981
H        -0.96514141     0.01660238     1.91929627    -0.00077512     0.00015041     0.00052597
H        -1.01796163     0.16599233    -0.54619998    -0.00061960     0.00074258    -0.00038164
     6
  Step:    18            Position(A)                                  Velocity(au)
C        -0.03468414     0.00272313    -0.07949638    -0.00000593    -0.00008722    -0.00088768
N        -0.04285110    -0.06596762     1.37489968     0.00003337    -0.00004816     0.00075707
H         0.93876105     0.10236475    -0.48054612     0.00057844     0.00060315    -0.00036234
H         0.84729693    -0.07545934     1.84016861     0.00018331     0.00021311     0.00037987
H        -0.96895102     0.01745107     1.92193926    -0.00058958     0.00015315     0.00042185
H        -1.02127321     0.17012675    -0.54833409    -0.00056523     0.00073928    -0.00038227
     6
  Step:    19            Position(A)                                  Velocity(au)
C        -0.03475515     0.00223662    -0.08439378    -0.00001913    -0.00008744    -0.00087015
N        -0.04272704    -0.06624296     1.37909852     0.00001140    -0.00005060     0.00074973
H         0.94228928     0.10576920    -0.48281032     0.00068145     0.00061855    -0.00044721
H         0.84865139    -0.07421211     1.84250901     0.00030035     0.00023471     0.00045899
H        -0.97171811     0.01831072     1.92400200    -0.00040454     0.00015503     0.00031999
H        -1.02426673     0.17423892    -0.55046418    -0.00050769     0.00073690    -0.00038157
     6
  Step:    20            Position(A)                                  Velocity(au)
C        -0.03489722     0.00174919    -0.08918819    -0.00003136    -0.00008768    -0.00085229
N        -0.04272415    -0.06653126     1.38325024    -0.00000987    -0.00005293     0.00074152
H         0.94635104     0.10925422    -0.48552718     0.00077011     0.00063295    -0.00052525
H         0.85064221    -0.07284510     1.84528080     0.00041046     0.00025657     0.00053456
H        -0.97345676     0.01917777     1.92550335    -0.00022250     0.00015627     0.00022164
H        -1.02692787     0.17833434    -0.55258406    -0.00044720     0.00073457    -0.00037945
     6
  Step:    21            Position(A)                                  Velocity(au)
C        -0.03510411     0.00126084    -0.09387870    -0.00004233    -0.00008782    -0.00083351
N        -0.04283693    -0.06683203     1.38735068    -0.00002994    -0.00005514     0.00073190
H         0.95085971     0.11281318    -0.48865575     0.00084173     0.00064539    -0.00059520
H         0.85321934    -0.07135674     1.84845804     0.00050958     0.00027852     0.00060413
H        -0.97419430     0.02004978     1.92646860    -0.00004653     0.00015711     0.00012834
H        -1.02924354     0.18241381    -0.55468700    -0.00038434     0.00073173    -0.00037594
     6
  Step:    22            Position(A)                                  Velocity(au)
C        -0.03536817     0.00077217    -0.09846120    -0.00005182    -0.00008778    -0.00081353
N        -0.04305721    -0.06714473     1.39139284    -0.00004829    -0.00005724     0.00072062
H         0.95571549     0.11643433    -0.49214890     0.00089429     0.00065514    -0.00065605
H         0.85631144    -0.06974652     1.85200188     0.00059404     0.00030036     0.00066552
H        -0.97397444     0.02092566     1.92693120     0.00012004     0.00015784     0.00004179
H        -1.03120370     0.18647498    -0.55676646    -0.00031990     0.00072802    -0.00037117
     6
  Step:    23            Position(A)                                  Velocity(au)
C        -0.03568062     0.00028426    -0.10292984    -0.00005963    -0.00008749    -0.00079224
N        -0.04337416    -0.06746885     1.39536809    -0.00006446    -0.00005923     0.00070754
H         0.96080942     0.12010210    -0.49595487     0.00092661     0.00066169    -0.00070718
H         0.85982849    -0.06801502     1.85586241     0.00066083     0.00032191     0.00071698
H        -0.97285882     0.02180583     1.92693353     0.00027379     0.00015875    -0.00003632
H        -1.03280272     0.19051364    -0.55881657    -0.00025486     0.00072331    -0.00036536
     6
  Step:    24            Position(A)                                  Velocity(au)
C        -0.03603183    -0.00020155    -0.10727813    -0.00006567    -0.00008694    -0.00076971
N        -0.04377461    -0.06780390     1.39926712    -0.00007807    -0.00006113     0.00069270
H         0.96602784     0.12379829    -0.50001911     0.00093834     0.00066472    -0.00074828
H         0.86366590    -0.06616393     1.85998120     0.00070782     0.00034301     0.00075730
H        -0.97092738     0.02269240     1.92652700     0.00041146     0.00016018    -0.00010436
H        -1.03404007     0.19452479    -0.56083257    -0.00019022     0.00071760    -0.00035877
     6
  Step:    25            Position(A)                                  Velocity(au)
C        -0.03641175    -0.00068374    -0.11149979    -0.00006987    -0.00008611    -0.00074608
N        -0.04424340    -0.06814949     1.40308059    -0.00008881    -0.00006297     0.00067619
H         0.97125687     0.12750316    -0.50428621     0.00092986     0.00066412    -0.00077942
H         0.86770938    -0.06419593     1.86429418     0.00073378     0.00036351     0.00078578
H        -0.96827763     0.02358928     1.92577161     0.00053003     0.00016246    -0.00016087
H        -1.03492060     0.19850339    -0.56281110    -0.00012697     0.00071099    -0.00035169
     6
  Step:    26            Position(A)                                  Velocity(au)
C        -0.03681017    -0.00116079    -0.11558931    -0.00007226    -0.00008501    -0.00072160
N        -0.04476392    -0.06850532     1.40679967    -0.00009647    -0.00006476     0.00065818
H         0.97638621     0.13119644    -0.50870164     0.00090223     0.00065991    -0.00080097
H         0.87184007    -0.06211454     1.86873463     0.00073843     0.00038329     0.00080228
H        -0.96502292     0.02450217     1.92473491     0.00062696     0.00016592    -0.00020466
H        -1.03545448     0.20244506    -0.56475031    -0.00006605     0.00070370    -0.00034443
     6
  Step:    27            Position(A)                                  Velocity(au)
C        -0.03721709    -0.00163121    -0.11954237    -0.00007289    -0.00008366    -0.00069653
N        -0.04531860    -0.06887123     1.41041637    -0.00010095    -0.00006653     0.00063890
H         0.98131272     0.13485825    -0.51321343     0.00085707     0.00065228    -0.00081357
H         0.87593962    -0.05992391     1.87323608     0.00072236     0.00040231     0.00080715
H        -0.96128979     0.02543857     1.92349059     0.00070025     0.00017088    -0.00023481
H        -1.03565678     0.20634652    -0.56664994    -0.00000828     0.00069600    -0.00033729
     6
  Step:    28            Position(A)                                  Velocity(au)
C        -0.03762299    -0.00209369    -0.12335614    -0.00007189    -0.00008211    -0.00067118
N        -0.04588955    -0.06924719     1.41392387    -0.00010224    -0.00006832     0.00061859
H         0.98594322     0.13846982    -0.51777360     0.00079638     0.00064149    -0.00081809
H         0.87989488    -0.05762850     1.87773495     0.00068688     0.00042055     0.00080113
H        -0.95721465     0.02640759     1.92211659     0.00074857     0.00017760    -0.00025080
H        -1.03554683     0.21020600    -0.56851131     0.00004566     0.00068821    -0.00033055
     6
  Step:    29            Position(A)                                  Velocity(au)
C        -0.03801906    -0.00254710    -0.12702935    -0.00006940    -0.00008038    -0.00064586
N        -0.04645910    -0.06963338     1.41731666    -0.00010045    -0.00007017     0.00059751
H         0.99019623     0.14201404    -0.52233916     0.00072234     0.00062791    -0.00081551
H         0.88360173    -0.05523277     1.88217261     0.00063393     0.00043806     0.00078530
H        -0.95293959     0.02741972     1.92069296     0.00077135     0.00018632    -0.00025247
H        -1.03514746     0.21402345    -0.57033719     0.00009524     0.00068068    -0.00032447
     6
  Step:    30            Position(A)                                  Velocity(au)
C        -0.03839731    -0.00299057    -0.13056234    -0.00006557    -0.00007854    -0.00062080
N        -0.04701034    -0.07003012     1.42059061    -0.00009575    -0.00007210     0.00057589
H         0.99400283     0.14547578    -0.52687268     0.00063724     0.00061190    -0.00080686
H         0.88696801    -0.05274084     1.88649705     0.00056580     0.00045495     0.00076094
H        -0.94860823     0.02848649     1.91929962     0.00076874     0.00019718    -0.00024007
H        -1.03448413     0.21780070    -0.57213162     0.00014010     0.00067374    -0.00031926
     6
  Step:    31            Position(A)                                  Velocity(au)
C        -0.03875070    -0.00342348    -0.13395670    -0.00006057    -0.00007662    -0.00059621
N        -0.04752754    -0.07043790     1.42374281    -0.00008838    -0.00007414     0.00055392
H         0.99730700     0.14884200    -0.53134270     0.00054333     0.00059381    -0.00079324
H         0.88991527    -0.05015612     1.89066372     0.00048501     0.00047139     0.00072943
H        -0.94436145     0.02961998     1.91801412     0.00074159     0.00021023    -0.00021418
H        -1.03358409     0.22154150    -0.57389967     0.00018000     0.00066774    -0.00031507
     6
  Step:    32            Position(A)                                  Velocity(au)
C        -0.03907312    -0.00384546    -0.13721493    -0.00005456    -0.00007466    -0.00057221
N        -0.04799654    -0.07085733     1.42677135    -0.00007866    -0.00007630     0.00053177
H         1.00006532     0.15210162    -0.53572377     0.00044274     0.00057398    -0.00077569
H         0.89237984    -0.04748098     1.89463609     0.00039424     0.00048761     0.00069218
H        -0.94033351     0.03083229     1.91690974     0.00069141     0.00022542    -0.00017575
H        -1.03247562     0.22525148    -0.57564716     0.00021484     0.00066303    -0.00031200
     6
  Step:    33            Position(A)                                  Velocity(au)
C        -0.03935937    -0.00425642    -0.14034021    -0.00004770    -0.00007272    -0.00054890
N        -0.04840506    -0.07128914     1.42967523    -0.00006694    -0.00007862     0.00050959
H         1.00224624     0.15524525    -0.53999629     0.00033748     0.00055260    -0.00075523
H         0.89431334    -0.04471634     1.89838566     0.00029614     0.00050392     0.00065059
H        -0.93664815     0.03213478     1.91605343     0.00062038     0.00024251    -0.00012605
H        -1.03118736     0.22893828    -0.57738031     0.00024459     0.00065997    -0.00031008
     6
  Step:    34            Position(A)                                  Velocity(au)
C        -0.03960512    -0.00465646    -0.14333647    -0.00004013    -0.00007082    -0.00052641
N        -0.04874303    -0.07173409     1.43245451    -0.00005362    -0.00008108     0.00048757
H         1.00382902     0.15826446    -0.54414641     0.00022932     0.00052974    -0.00073286
H         0.89568254    -0.04186105     1.90189173     0.00019338     0.00052079     0.00060597
H        -0.93341475     0.03353691     1.91550401     0.00053133     0.00026101    -0.00006663
H        -1.02974784     0.23261174    -0.57910534     0.00026930     0.00065902    -0.00030927
     6
  Step:    35            Position(A)                                  Velocity(au)
C        -0.03980669    -0.00504589    -0.14620840    -0.00003192    -0.00006900    -0.00050478
N        -0.04900285    -0.07219296     1.43511049    -0.00003920    -0.00008368     0.00046587
H         1.00480266     0.16115064    -0.54816599     0.00011990     0.00050507    -0.00070970
H         0.89646910    -0.03891074     1.90514081     0.00008858     0.00053906     0.00055951
H        -0.93072505     0.03504442     1.91531068     0.00042760     0.00027987     0.00000074
H        -1.02818529     0.23628479    -0.58082795     0.00028897     0.00066099    -0.00030938
     6
  Step:    36            Position(A)                                  Velocity(au)
C        -0.03996076    -0.00542525    -0.14896079    -0.00002303    -0.00006734    -0.00048378
N        -0.04917977    -0.07266641     1.43764519    -0.00002425    -0.00008635     0.00044442
H         1.00516496     0.16389199    -0.55205385     0.00001075     0.00047700    -0.00068759
H         0.89666945    -0.03585478     1.90812577    -0.00001551     0.00056095     0.00051213
H        -0.92865044     0.03665522     1.91551230     0.00031302     0.00029627     0.00007438
H        -1.02652815     0.23997646    -0.58255250     0.00030316     0.00066817    -0.00031002
     6
  Step:    37            Position(A)                                  Velocity(au)
C        -0.04006315    -0.00579579    -0.15159569    -0.00001225    -0.00006706    -0.00045612
N        -0.04927289    -0.07315453     1.44005947    -0.00001039    -0.00008816     0.00041823
H         1.00492234     0.16646246    -0.55582286    -0.00008995     0.00043423    -0.00068193
H         0.89629635    -0.03266411     1.91084381    -0.00011294     0.00060038     0.00046380
H        -0.92723928     0.03834366     1.91613892     0.00019170     0.00028883     0.00015610
H        -1.02480936     0.24372543    -0.58428025     0.00030153     0.00070072    -0.00031477
     6
  Step:    38            Position(A)                                  Velocity(au)
C        -0.04009714    -0.00617158    -0.15403698    -0.00000322    -0.00007227    -0.00039288
N        -0.04929535    -0.07364751     1.44229976     0.00000411    -0.00008631     0.00036721
H         1.00416393     0.16872458    -0.55964315    -0.00013492     0.00041697    -0.00071883
H         0.89541248    -0.02917304     1.91328743    -0.00020152     0.00061910     0.00042427
H        -0.92651697     0.03986961     1.91724952     0.00006209     0.00027303     0.00024486
H        -1.02317237     0.24777492    -0.58605567     0.00025556     0.00075141    -0.00037159
     6
  Step:    39            Position(A)                                  Velocity(au)
C        -0.04009896    -0.00659954    -0.15596524     0.00000197    -0.00008163    -0.00030257
N        -0.04922714    -0.07411444     1.44414349     0.00002042    -0.00008186     0.00029746
H         1.00342175     0.17109992    -0.56381761    -0.00013144     0.00044260    -0.00078001
H         0.89405502    -0.02577851     1.91556255    -0.00028477     0.00059752     0.00039614
H        -0.92654876     0.04138027     1.91886226    -0.00007142     0.00027635     0.00033259
H        -1.02196710     0.25208253    -0.58841301     0.00018027     0.00079370    -0.00047683
     6
  Step:    40            Position(A)                                  Velocity(au)
C        -0.04007519    -0.00707876    -0.15739967     0.00000625    -0.00009082    -0.00021572
N        -0.04906836    -0.07455723     1.44560561     0.00003629    -0.00007770     0.00023041
H         1.00270315     0.17364346    -0.56831198    -0.00012807     0.00047496    -0.00083598
H         0.89224761    -0.02253242     1.91768996    -0.00036289     0.00057002     0.00037144
H        -0.92731068     0.04294088     1.92094583    -0.00019821     0.00028760     0.00041399
H        -1.02116892     0.25659589    -0.59135504     0.00011029     0.00082937    -0.00058080
     6
  Step:    41            Position(A)                                  Velocity(au)
C        -0.04002951    -0.00760806    -0.15836074     0.00000987    -0.00009978    -0.00013231
N        -0.04882410    -0.07497729     1.44670213     0.00005104    -0.00007375     0.00016608
H         1.00199953     0.17637429    -0.57310104    -0.00012679     0.00051018    -0.00088750
H         0.89002520    -0.01944849     1.91968736    -0.00043424     0.00054057     0.00035000
H        -0.92874985     0.04457399     1.92345954    -0.00031355     0.00030195     0.00048707
H        -1.02074232     0.26129255    -0.59486276     0.00004759     0.00086121    -0.00068082
     6
  Step:    42            Position(A)                                  Velocity(au)
C        -0.03996564    -0.00818596    -0.15886783     0.00001278    -0.00010845    -0.00005220
N        -0.04850196    -0.07537560     1.44744843     0.00006429    -0.00006994     0.00010437
H         1.00129627     0.17930453    -0.57815990    -0.00012853     0.00054753    -0.00093428
H         0.88742922    -0.01653411     1.92157359    -0.00049775     0.00050963     0.00033204
H        -0.93078989     0.04629137     1.92635044    -0.00041353     0.00031818     0.00054963
H        -1.02064082     0.26615209    -0.59890953    -0.00000588     0.00088892    -0.00077566
     6
  Step:    43            Position(A)                                  Velocity(au)
C        -0.03988784    -0.00881058    -0.15893957     0.00001482    -0.00011672     0.00002462
N        -0.04811122    -0.07575283     1.44785935     0.00007579    -0.00006623     0.00004525
H         1.00057441     0.18244546    -0.58346057    -0.00013401     0.00058724    -0.00097539
H         0.88450601    -0.01379759     1.92336912    -0.00055264     0.00047655     0.00031791
H        -0.93333511     0.04810201     1.92955395    -0.00049500     0.00033638     0.00059962
H        -1.02080748     0.27114905    -0.60346349    -0.00004821     0.00091099    -0.00086443
     6
  Step:    44            Position(A)                                  Velocity(au)
C        -0.03980137    -0.00947938    -0.15859499     0.00001575    -0.00012442     0.00009772
N        -0.04766211    -0.07610947     1.44794991     0.00008547    -0.00006262    -0.00001097
H         0.99981127     0.18581190    -0.58896842    -0.00014403     0.00063062    -0.00100877
H         0.88130527    -0.01125339     1.92509646    -0.00059848     0.00043934     0.00030805
H        -0.93627507     0.05001886     1.93299494    -0.00055566     0.00035848     0.00063504
H        -1.02117505     0.27624705    -0.60848852    -0.00007724     0.00092432    -0.00094628
     6