     6
  Step:   300            Position(A)                                  Velocity(au)
C        -0.02817751     0.00107277     0.02511567    -0.00004883    -0.00005456     0.00011628
N        -0.03846718    -0.05118513     1.29029557     0.00017715     0.00004389    -0.00011247
H         0.14921531    -0.86998563    -0.61629145    -0.00172537     0.00021971    -0.00068701
H        -0.17178469     0.80953109     1.84795303    -0.00289617    -0.00052170     0.00038851
H        -0.15742361    -0.90675800     1.83350208     0.00089844     0.00031306     0.00064831
H        -0.16264190     0.99593357    -0.40279312     0.00184309     0.00002909    -0.00017253
