     6
  Step:     0            Position(A)                                  Velocity(au)
C        -0.03660255     0.01916377     0.02538336    -0.00004022     0.00010189    -0.00032164
N        -0.05012409    -0.05045439     1.28858777    -0.00014099    -0.00010365     0.00033429
H         0.91366394    -0.04731594    -0.48199827    -0.00003749    -0.00021425    -0.00004214
H         0.88387222    -0.10702488     1.86169092     0.00107750     0.00026293     0.00000589
H        -0.88472407    -0.09096922     1.86815813     0.00075379     0.00046648    -0.00105160
H        -0.99304948     0.04830703    -0.56494787     0.00064464    -0.00028895     0.00027516
     6
  Step:     1            Position(A)                                  Velocity(au)
C        -0.03684144     0.01973535     0.02344442    -0.00004662     0.00010704    -0.00038477
N        -0.05085225    -0.05103232     1.29061183    -0.00012365    -0.00010758     0.00040307
H         0.91372523    -0.04852596    -0.48258304     0.00006057    -0.00022835    -0.00017163
H         0.88922474    -0.10554164     1.86143147     0.00087403     0.00027955    -0.00010265
H        -0.88075522    -0.08844729     1.86256161     0.00068052     0.00045516    -0.00098125
H        -0.98946720     0.04673185    -0.56352943     0.00065870    -0.00028695     0.00023933
     6
  Step:     2            Position(A)                                  Velocity(au)
C        -0.03711259     0.02033472     0.02117413    -0.00005191     0.00011196    -0.00044228
N        -0.05147680    -0.05163122     1.29299718    -0.00010317    -0.00011124     0.00046581
H         0.91432651    -0.04981404    -0.48387583     0.00015877    -0.00024259    -0.00030012
H         0.89343372    -0.10396670     1.86056792     0.00066089     0.00029617    -0.00021357
H        -0.87727940    -0.08598994     1.85742362     0.00057345     0.00044278    -0.00088395
H        -0.98584360     0.04516796    -0.56232974     0.00065914    -0.00028468     0.00019488
     6
  Step:     3            Position(A)                                  Velocity(au)
C        -0.03740947     0.02096050     0.01860475    -0.00005591     0.00011658    -0.00049352
N        -0.05198124    -0.05224958     1.29570895    -0.00007986    -0.00011459     0.00052175
H         0.91546252    -0.05118044    -0.48586711     0.00025475    -0.00025671    -0.00042591
H         0.89645657    -0.10230082     1.85909444     0.00044193     0.00031245    -0.00032413
H        -0.87448023    -0.08360217     1.85288905     0.00043386     0.00042956    -0.00076113
H        -0.98225459     0.04361674    -0.56139701     0.00064544    -0.00028211     0.00014152
     6
  Step:     4            Position(A)                                  Velocity(au)
C        -0.03772466     0.02161087     0.01577175    -0.00005849     0.00012080    -0.00053792
N        -0.05235100    -0.05288558     1.29870864    -0.00005415    -0.00011756     0.00057030
H         0.91711512    -0.05262414    -0.48853811     0.00034612    -0.00027047    -0.00054725
H         0.89827139    -0.10054647     1.85701983     0.00022106     0.00032805    -0.00043158
H        -0.87253013    -0.08128766     1.84909183     0.00026478     0.00041577    -0.00061551
H        -0.97877825     0.04207977    -0.56078053     0.00061736    -0.00027921     0.00007922
     6
  Step:     5            Position(A)                                  Velocity(au)
C        -0.03805004     0.02228355     0.01271331    -0.00005952     0.00012454    -0.00057503
N        -0.05257428    -0.05353712     1.30195500    -0.00002663    -0.00012010     0.00061099
H         0.91925332    -0.05414267    -0.49186073     0.00043056    -0.00028358    -0.00066238
H         0.89887768    -0.09870787     1.85436761     0.00000240     0.00034267    -0.00053319
H        -0.87158024    -0.07904855     1.84614776     0.00007118     0.00040168    -0.00045114
H        -0.97549313     0.04055881    -0.56052935     0.00057504    -0.00027592     0.00000821
     6
  Step:     6            Position(A)                                  Velocity(au)
C        -0.03837699     0.02297581     0.00946967    -0.00005895     0.00012772    -0.00060450
N        -0.05264281    -0.05420182     1.30540491     0.00000196    -0.00012216     0.00064356
H         0.92183389    -0.05573206    -0.49579758     0.00050588    -0.00029575    -0.00076959
H         0.89829768    -0.09679091     1.85117627    -0.00020965     0.00035598    -0.00062613
H        -0.87175003    -0.07688539     1.84414753    -0.00014018     0.00038757    -0.00027324
H        -0.97247602     0.03905582    -0.56069052     0.00051910    -0.00027221    -0.00007090
     6
  Step:     7            Position(A)                                  Velocity(au)
C        -0.03869671     0.02368450     0.00608257    -0.00005678     0.00013026    -0.00062613
N        -0.05255274    -0.05487704     1.30901419     0.00003073    -0.00012369     0.00066786
H         0.92480224    -0.05738677    -0.50030229     0.00057010    -0.00030670    -0.00086723
H         0.89657803    -0.09480316     1.84749962    -0.00041037     0.00036767    -0.00070756
H        -0.87311787    -0.07479728     1.84315065    -0.00036096     0.00037370    -0.00008802
H        -0.96979920     0.03757291    -0.56130702     0.00045068    -0.00026807    -0.00015711
     6
  Step:     8            Position(A)                                  Velocity(au)
C        -0.03900048     0.02440608     0.00259465    -0.00005306     0.00013208    -0.00063980
N        -0.05230533    -0.05555992     1.31273824     0.00005870    -0.00012464     0.00068389
H         0.92809370    -0.05909971    -0.50531997     0.00062154    -0.00031614    -0.00095378
H         0.89379168    -0.09275376     1.84340713    -0.00059476     0.00037747    -0.00077459
H        -0.87571345    -0.07278212     1.84318100    -0.00058172     0.00036023     0.00009767
H        -0.96752746     0.03611237    -0.56241558     0.00037150    -0.00026345    -0.00024899
     6
  Step:     9            Position(A)                                  Velocity(au)
C        -0.03928008     0.02513662    -0.00095122    -0.00004793     0.00013314    -0.00064557
N        -0.05190744    -0.05624733     1.31653273     0.00008480    -0.00012498     0.00069176
H         0.93163530    -0.06086229    -0.51078797     0.00065891    -0.00032380    -0.00102794
H         0.89003938    -0.09065335     1.83898392    -0.00075762     0.00038512    -0.00082446
H        -0.87951313    -0.07083699     1.84422446    -0.00079256     0.00034729     0.00027687
H        -0.96571505     0.03467662    -0.56404434     0.00028382    -0.00025834    -0.00034473
     6
  Step:    10            Position(A)                                  Velocity(au)
C        -0.03952811     0.02587190    -0.00451273    -0.00004156     0.00013339    -0.00064367
N        -0.05137170    -0.05693593     1.32035414     0.00010801    -0.00012469     0.00069173
H         0.93534789    -0.06266459    -0.51663702     0.00068136    -0.00032949    -0.00108867
H         0.88545070    -0.08851379     1.83433026    -0.00089377     0.00039046    -0.00085460
H        -0.88443903    -0.06895861     1.84622916    -0.00098386     0.00033493     0.00044290
H        -0.96440274     0.03326823    -0.56621080     0.00019041    -0.00025272    -0.00044216
     6
  Step:    11            Position(A)                                  Velocity(au)
C        -0.03973834     0.02660751    -0.00804895    -0.00003421     0.00013281    -0.00063449
N        -0.05071637    -0.05762223     1.32416045     0.00012738    -0.00012373     0.00068419
H         0.93914864    -0.06449559    -0.52279277     0.00068856    -0.00033306    -0.00113531
H         0.88018378    -0.08634779     1.82956028    -0.00099836     0.00039339    -0.00086283
H        -0.89036221    -0.06714373     1.84910837    -0.00114710     0.00032311     0.00058997
H        -0.96361537     0.03188983    -0.56892008     0.00009439    -0.00024662    -0.00053893
     6
  Step:    12            Position(A)                                  Velocity(au)
C        -0.03990600     0.02733895    -0.01152130    -0.00002617     0.00013143    -0.00061862
N        -0.04996468    -0.05830269     1.32791171     0.00014211    -0.00012214     0.00066966
H         0.94295378    -0.06634360    -0.52917774     0.00068072    -0.00033446    -0.00116764
H         0.87442276    -0.08416840     1.82479937    -0.00106730     0.00039396    -0.00084763
H        -0.89711002    -0.06538948     1.85274600    -0.00127552     0.00031179     0.00071353
H        -0.96336007     0.03054407    -0.57216387    -0.00000091    -0.00024005    -0.00063259
     6
  Step:    13            Position(A)                                  Velocity(au)
C        -0.04002794     0.02806184    -0.01489452    -0.00001654     0.00013035    -0.00064224
N        -0.04914382    -0.05897383     1.33157086     0.00015223    -0.00012148     0.00068363
H         0.94668146    -0.06819673    -0.53571380     0.00061908    -0.00039258    -0.00115061
H         0.86837319    -0.08198828     1.82018051    -0.00111655     0.00046254    -0.00081199
H        -0.90447699    -0.06369353     1.85700422    -0.00135407     0.00022843     0.00079586
H        -0.96362549     0.02923344    -0.57592026    -0.00006685    -0.00016359    -0.00068013
     6
  Step:    14            Position(A)                                  Velocity(au)
C        -0.04008938     0.02878405    -0.01864147    -0.00000527     0.00013008    -0.00071365
N        -0.04827702    -0.05964941     1.33549068     0.00015706    -0.00012216     0.00073362
H         0.94981715    -0.07069593    -0.54193386     0.00050370    -0.00047144    -0.00108139
H         0.86204420    -0.07904049     1.81579732    -0.00114979     0.00056087    -0.00076385
H        -0.91212174    -0.06285703     1.86156918    -0.00137352     0.00010993     0.00083013
H        -0.96410120     0.02873050    -0.57970409    -0.00010023    -0.00005183    -0.00067561
     6
  Step:    15            Position(A)                                  Velocity(au)
C        -0.04008652     0.02950684    -0.02282213     0.00000635     0.00012946    -0.00078572
N        -0.04739908    -0.06033086     1.33972029     0.00015567    -0.00012260     0.00078351
H         0.95227683    -0.07343370    -0.54772643     0.00037807    -0.00050393    -0.00099785
H         0.85560071    -0.07575782     1.81169526    -0.00114506     0.00061004    -0.00070002
H        -0.91973471    -0.06247242     1.86622577    -0.00134442     0.00003717     0.00083278
H        -0.96473894     0.02865764    -0.58342528    -0.00012749     0.00001786    -0.00066015
     6
  Step:    16            Position(A)                                  Velocity(au)
C        -0.04001874     0.03022517    -0.02738830     0.00001787     0.00012789    -0.00084777
N        -0.04654409    -0.06101427     1.34421291     0.00014833    -0.00012231     0.00082390
H         0.95402594    -0.07630583    -0.55304218     0.00024892    -0.00052100    -0.00090761
H         0.84929712    -0.07224938     1.80800457    -0.00109411     0.00064312    -0.00061285
H        -0.92708811    -0.06244319     1.87083986    -0.00127744    -0.00002130     0.00081333
H        -0.96552045     0.02892928    -0.58705300    -0.00015160     0.00007499    -0.00064002
     6
  Step:    17            Position(A)                                  Velocity(au)
C        -0.03988716     0.03093351    -0.03227965     0.00002902     0.00012539    -0.00089876
N        -0.04574438    -0.06169537     1.34891156     0.00013556    -0.00012132     0.00085403
H         0.95505370    -0.07924590    -0.55785146     0.00012029    -0.00052799    -0.00081422
H         0.84339512    -0.06858330     1.80485844    -0.00099794     0.00066595    -0.00050328
H        -0.93398554    -0.06271004     1.87529908    -0.00117905    -0.00007039     0.00077601
H        -0.96643010     0.02949418    -0.59056518    -0.00017296     0.00012409    -0.00061678
     6
  Step:    18            Position(A)                                  Velocity(au)
C        -0.03969441     0.03162667    -0.03743351     0.00003957     0.00012212    -0.00093908
N        -0.04502894    -0.06237022     1.35375824     0.00011814    -0.00011975     0.00087446
H         0.95537035    -0.08220703    -0.56214250    -0.00000443    -0.00052804    -0.00072090
H         0.83814332    -0.06480621     1.80237954    -0.00086071     0.00068208    -0.00037405
H        -0.94026607    -0.06322991     1.87951314    -0.00105618    -0.00011250     0.00072509
H        -0.96745360     0.03031623    -0.59394663    -0.00019190     0.00016743    -0.00059179
     6
  Step:    19            Position(A)                                  Velocity(au)
C        -0.03944430     0.03230034    -0.04279069     0.00004936     0.00011825    -0.00096998
N        -0.04442207    -0.06303574     1.35869931     0.00009698    -0.00011781     0.00088651
H         0.95500414    -0.08515620    -0.56592039    -0.00012253    -0.00052354    -0.00063049
H         0.83376129    -0.06094890     1.80067169    -0.00068877     0.00069429    -0.00022894
H        -0.94580729    -0.06396928     1.88341494    -0.00091585    -0.00014922     0.00066481
H        -0.96857804     0.03136826    -0.59718901    -0.00020878     0.00020652    -0.00056631
     6
  Step:    20            Position(A)                                  Velocity(au)
C        -0.03914145     0.03295128    -0.04829945     0.00005831     0.00011398    -0.00099310
N        -0.04394254    -0.06368991     1.36368915     0.00007308    -0.00011568     0.00089187
H         0.95399779    -0.08807189    -0.56920536    -0.00023206    -0.00051642    -0.00054528
H         0.83042756    -0.05702863     1.79981486    -0.00048998     0.00070485    -0.00007222
H        -0.95052566    -0.06490146     1.88696052    -0.00076450    -0.00018169     0.00059906
H        -0.96979238     0.03262971    -0.60029061    -0.00022397     0.00024252    -0.00054145
     6
  Step:    21            Position(A)                                  Velocity(au)
C        -0.03879097     0.03357744    -0.05391740     0.00006636     0.00010951    -0.00101007
N        -0.04360323    -0.06433183     1.36869185     0.00004744    -0.00011355     0.00089219
H         0.95240414    -0.09094222    -0.57202969    -0.00033169    -0.00050816    -0.00046692
H         0.82827147    -0.05305169     1.79986253    -0.00027295     0.00071550     0.00009171
H        -0.95437278    -0.06600490     1.89012683    -0.00060759    -0.00021083     0.00053111
H        -0.97108747     0.03408549    -0.60325551    -0.00023784     0.00027643    -0.00051803
     6
  Step:    22            Position(A)                                  Velocity(au)
C        -0.03839823     0.03417772    -0.05961145     0.00007347     0.00010495    -0.00102225
N        -0.04341127    -0.06496155     1.37368099     0.00002099    -0.00011152     0.00088887
H         0.95028311    -0.09376286    -0.57443450    -0.00042044    -0.00049986    -0.00039651
H         0.82737072    -0.04901566     1.80084190    -0.00004652     0.00072738     0.00025850
H        -0.95733018    -0.06726255     1.89290856    -0.00044956    -0.00023741     0.00046358
H        -0.97245600     0.03572545    -0.60609212    -0.00025063     0.00030900    -0.00049651
     6
  Step:    23            Position(A)                                  Velocity(au)
C        -0.03796888     0.03475181    -0.06535590     0.00007956     0.00010038    -0.00103044
N        -0.04336841    -0.06557971     1.37863796    -0.00000538    -0.00010965     0.00088284
H         0.94769960    -0.09653548    -0.57646650    -0.00049740    -0.00049227    -0.00033469
H         0.82775095    -0.04491256     1.80275501     0.00018040     0.00074106     0.00042386
H        -0.95940313    -0.06866141     1.89531411    -0.00029397    -0.00026201     0.00039845
H        -0.97389189     0.03754308    -0.60881122    -0.00026244     0.00034078    -0.00047702
     6
  Step:    24            Position(A)                                  Velocity(au)
C        -0.03750889     0.03529974    -0.07112968     0.00008455     0.00009581    -0.00103500
N        -0.04347137    -0.06618716     1.38354931    -0.00003078    -0.00010790     0.00087459
H         0.94472316    -0.09926542    -0.57817568    -0.00056159    -0.00048578    -0.00028184
H         0.82938727    -0.04073216     1.80557976     0.00039899     0.00075648     0.00058349
H        -0.96061611    -0.07019127     1.89736246    -0.00014390    -0.00028498     0.00033731
H        -0.97538954     0.03953467    -0.61142423    -0.00027324     0.00037208    -0.00045944
     6
  Step:    25            Position(A)                                  Velocity(au)
C        -0.03702472     0.03582167    -0.07691362     0.00008831     0.00009124    -0.00103589
N        -0.04371218    -0.06678464     1.38840440    -0.00005441    -0.00010623     0.00086431
H         0.94142833    -0.10196014    -0.57961377    -0.00061192    -0.00048060    -0.00023819
H         0.83220639    -0.03646504     1.80927081     0.00060069     0.00077316     0.00073320
H        -0.96101006    -0.07184376     1.89908087    -0.00000223    -0.00030649     0.00028149
H        -0.97694310     0.04169806    -0.61394175    -0.00028285     0.00040296    -0.00044348
     6
  Step:    26            Position(A)                                  Velocity(au)
C        -0.03652347     0.03631778    -0.08268838     0.00009072     0.00008665    -0.00103289
N        -0.04407846    -0.06737251     1.39319345    -0.00007547    -0.00010455     0.00085199
H         0.93789524    -0.10462810    -0.58083351    -0.00064723    -0.00047682    -0.00020395
H         0.83608990    -0.03210502     1.81376102     0.00077766     0.00079034     0.00086903
H        -0.96064100    -0.07361113     1.90050344     0.00012821    -0.00032660     0.00023221
H        -0.97854570     0.04403104    -0.61637268    -0.00029106     0.00043340    -0.00042880
     6
  Step:    27            Position(A)                                  Velocity(au)
C        -0.03601288     0.03678806    -0.08843340     0.00009166     0.00008203    -0.00102575
N        -0.04455385    -0.06795065     1.39790656    -0.00009327    -0.00010276     0.00083757
H         0.93420986    -0.10727814    -0.58188838    -0.00066649    -0.00047449    -0.00017923
H         0.84087965    -0.02765044     1.81896309     0.00092326     0.00080710     0.00098753
H        -0.95958014    -0.07548635     1.90167069     0.00024461    -0.00034536     0.00019061
H        -0.98018928     0.04653172    -0.61872411    -0.00029760     0.00046329    -0.00041507
     6
  Step:    28            Position(A)                                  Velocity(au)
C        -0.03550130     0.03723249    -0.09412678     0.00009105     0.00007738    -0.00101432
N        -0.04511852    -0.06851842     1.40253334    -0.00010726    -0.00010079     0.00082101
H         0.93046312    -0.10991921    -0.58283218    -0.00066898    -0.00047363    -0.00016408
H         0.84638535    -0.02310489     1.82477318     0.00103245     0.00082254     0.00108605
H        -0.95791331    -0.07746237     1.90262894     0.00034434    -0.00036276     0.00015771
H        -0.98186431     0.04919731    -0.62100127    -0.00030224     0.00049246    -0.00040203
     6
  Step:    29            Position(A)                                  Velocity(au)
C        -0.03499748     0.03765104    -0.09974571     0.00008883     0.00007272    -0.00099859
N        -0.04575007    -0.06907476     1.40706297    -0.00011705    -0.00009858     0.00080235
H         0.92674896    -0.11256041    -0.58371833    -0.00065446    -0.00047432    -0.00015837
H         0.85239414    -0.01847699     1.83107539     0.00110217     0.00083586     0.00116292
H        -0.95573989    -0.07953211     1.90342962     0.00042510    -0.00037882     0.00013440
H        -0.98356001     0.05202396    -0.62320783    -0.00030478     0.00052073    -0.00038947
     6
  Step:    30            Position(A)                                  Velocity(au)
C        -0.03451028     0.03804374    -0.10526744     0.00008503     0.00006807    -0.00097875
N        -0.04642437    -0.06961826     1.41148469    -0.00012244    -0.00009609     0.00078172
H         0.92316166    -0.11521090    -0.58459898    -0.00062323    -0.00047659    -0.00016176
H         0.85868164    -0.01377967     1.83774720     0.00113147     0.00084647     0.00121753
H        -0.95317072    -0.08168860     1.90412838     0.00048513    -0.00039359     0.00012131
H        -0.98526462     0.05500681    -0.62534633    -0.00030513     0.00054797    -0.00037725
     6
  Step:    31            Position(A)                                  Velocity(au)
C        -0.03404839     0.03841079    -0.11067021     0.00007972     0.00006347    -0.00095517
N        -0.04711672    -0.07014734     1.41578825    -0.00012343    -0.00009331     0.00075932
H         0.91979262    -0.11788002    -0.58552386    -0.00057618    -0.00048052    -0.00017373
H         0.86502331    -0.00902899     1.84466515     0.00112139     0.00085399     0.00125032
H        -0.95032507    -0.08392520     1.90478365     0.00052330    -0.00040720     0.00011879
H        -0.98696584     0.05814025    -0.62741859    -0.00030326     0.00057412    -0.00036533
     6
  Step:    32            Position(A)                                  Velocity(au)
C        -0.03361997     0.03875254    -0.11593428     0.00007304     0.00005896    -0.00092835
N        -0.04780281    -0.07066032     1.41996441    -0.00012020    -0.00009024     0.00073545
H         0.91672719    -0.12057717    -0.58653916    -0.00051473    -0.00048615    -0.00019354
H         0.87120481    -0.00424276     1.85171020     0.00107463     0.00085831     0.00126259
H        -0.94732677    -0.08623602     1.90545501     0.00053926    -0.00041985     0.00012689
H        -0.98865129     0.06141829    -0.62942615    -0.00029922     0.00059919    -0.00035371
     6
  Step:    33            Position(A)                                  Velocity(au)
C        -0.03323233     0.03906953    -0.12104271     0.00006515     0.00005456    -0.00089891
N        -0.04845968    -0.07115563     1.42400546    -0.00011305    -0.00008691     0.00071044
H         0.91404149    -0.12331175    -0.58768628    -0.00044086    -0.00049346    -0.00022023
H         0.87703012     0.00056087     1.85877208     0.00099512     0.00085953     0.00125632
H        -0.94429989    -0.08861614     1.90620135     0.00053345    -0.00043175     0.00014527
H        -0.99030902     0.06483502    -0.63137056    -0.00029314     0.00062328    -0.00034243
     6
  Step:    34            Position(A)                                  Velocity(au)
C        -0.03289170     0.03936243    -0.12598187     0.00005629     0.00005031    -0.00086749
N        -0.04906643    -0.07163181     1.42790539    -0.00010243    -0.00008336     0.00068465
H         0.91179952    -0.12609283    -0.58900074    -0.00035691    -0.00050241    -0.00025267
H         0.88232769     0.00536460     1.86575273     0.00088762     0.00085795     0.00123396
H        -0.94136412    -0.09106192     1.90707881     0.00050710    -0.00044318     0.00017328
H        -0.99192783     0.06838500    -0.63325365    -0.00028519     0.00064654    -0.00033157
     6
  Step:    35            Position(A)                                  Velocity(au)
C        -0.03260297     0.03963204    -0.13074165     0.00004669     0.00004621    -0.00083472
N        -0.04960490    -0.07208765     1.43166010    -0.00008885    -0.00007963     0.00065840
H         0.91005110    -0.12892894    -0.59051130    -0.00026553    -0.00051288    -0.00028964
H         0.88695415     0.01015307     1.87256833     0.00075729     0.00085398     0.00119816
H        -0.93863030    -0.09357113     1.90813875     0.00046215    -0.00045441     0.00020992
H        -0.99349761     0.07206366    -0.63507765    -0.00027560     0.00066917    -0.00032120
     6
  Step:    36            Position(A)                                  Velocity(au)
C        -0.03236961     0.03987918    -0.13531541     0.00003661     0.00004227    -0.00080117
N        -0.05005994    -0.07252220     1.43526737    -0.00007287    -0.00007576     0.00063201
H         0.90883047    -0.13182764    -0.59223942    -0.00016952    -0.00052466    -0.00032982
H         0.89079540     0.01491344     1.87915010     0.00060924     0.00084811     0.00115157
H        -0.93619649    -0.09614293     1.90942602     0.00040118    -0.00046566     0.00025387
H        -0.99500947     0.07586746    -0.63684521    -0.00026457     0.00069138    -0.00031139
     6
  Step:    37            Position(A)                                  Velocity(au)
C        -0.03219359     0.04010465    -0.13969959     0.00002632     0.00003846    -0.00076733
N        -0.05041968    -0.07293476     1.43872659    -0.00005507    -0.00007181     0.00060572
H         0.90815574    -0.13479517    -0.59419900    -0.00007170    -0.00053749    -0.00037186
H         0.89376613     0.01963580     1.88544412     0.00044843     0.00084086     0.00109676
H        -0.93414472    -0.09877775     1.91097730     0.00032722    -0.00047716     0.00030360
H        -0.99645581     0.07979397    -0.63855936    -0.00025234     0.00071335    -0.00030220
     6
  Step:    38            Position(A)                                  Velocity(au)
C        -0.03207541     0.04030914    -0.14389328     0.00001606     0.00003477    -0.00073359
N        -0.05067554    -0.07332493     1.44203859    -0.00003602    -0.00006781     0.00057973
H         0.90802897    -0.13783616    -0.59639636     0.00002515    -0.00055104    -0.00041444
H         0.89580832     0.02431325     1.89141056     0.00027945     0.00083274     0.00103606
H        -0.93253855    -0.10147705     1.91281994     0.00024369    -0.00048905     0.00035737
H        -0.99783028     0.08384189    -0.64022345    -0.00023909     0.00073527    -0.00029365
     6
  Step:    39            Position(A)                                  Velocity(au)
C        -0.03201415     0.04049322    -0.14789770     0.00000607     0.00003117    -0.00070025
N        -0.05082222    -0.07369251     1.44520530    -0.00001630    -0.00006380     0.00055420
H         0.90843677    -0.14095326    -0.59883048     0.00011839    -0.00056494    -0.00045629
H         0.89688912     0.02894190     1.89702242     0.00010655     0.00082424     0.00097162
H        -0.93142144    -0.10424303     1.91497102     0.00015421    -0.00050141     0.00041330
H        -0.99912769     0.08801081    -0.64184097    -0.00022502     0.00075726    -0.00028575
     6
  Step:    40            Position(A)                                  Velocity(au)
C        -0.03200760     0.04065728    -0.15171563    -0.00000342     0.00002761    -0.00066751
N        -0.05085760    -0.07403757     1.44822944     0.00000355    -0.00005981     0.00052921
H         0.90935143    -0.14414700    -0.60149348     0.00020559    -0.00057877    -0.00049623
H         0.89699855     0.03352065     1.90226428    -0.00006643     0.00081582     0.00090532
H        -0.93081589    -0.10707822     1.91743684     0.00006252    -0.00051426     0.00046945
H        -1.00034388     0.09230109    -0.64341548    -0.00021027     0.00077942    -0.00027848
     6
  Step:    41            Position(A)                                  Velocity(au)
C        -0.03205236     0.04080150    -0.15535091    -0.00001222     0.00002407    -0.00063550
N        -0.05078257    -0.07436038     1.45111424     0.00002301    -0.00005590     0.00050480
H         0.91073233    -0.14741565    -0.60437120     0.00028460    -0.00059212    -0.00053318
H         0.89614743     0.03805107     1.90713100    -0.00023594     0.00080791     0.00083890
H        -0.93072341    -0.10998515     1.92021277    -0.00002772    -0.00052756     0.00052388
H        -1.00147555     0.09671356    -0.64495045    -0.00019500     0.00080179    -0.00027182
     6
  Step:    42            Position(A)                                  Velocity(au)
C        -0.03214402     0.04092586    -0.15880808    -0.00002017     0.00002050    -0.00060432
N        -0.05060085    -0.07466142     1.45386323     0.00004158    -0.00005209     0.00048102
H         0.91252771    -0.15075526    -0.60744394     0.00035358    -0.00060458    -0.00056622
H         0.89436539     0.04253720     1.91162665    -0.00039875     0.00080094     0.00077387
H        -0.93112529    -0.11296603     1.92328355    -0.00011302    -0.00054122     0.00057474
H        -1.00252017     0.10124937    -0.64644914    -0.00017931     0.00082440    -0.00026572
     6
  Step:    43            Position(A)                                  Velocity(au)
C        -0.03227733     0.04103016    -0.16209206    -0.00002712     0.00001688    -0.00057398
N        -0.05031876    -0.07494139     1.45648000     0.00005883    -0.00004841     0.00045784
H         0.91467654    -0.15415976    -0.61068735     0.00041103    -0.00061579    -0.00059458
H         0.89169935     0.04698551     1.91576358    -0.00055187     0.00079531     0.00071167
H        -0.93198411    -0.11602244     1.92662397    -0.00019020    -0.00055509     0.00062031
H        -1.00347579     0.10590974    -0.64791457    -0.00016330     0.00084722    -0.00026012
     6
  Step:    44            Position(A)                                  Velocity(au)
C        -0.03244639     0.04111403    -0.16520793    -0.00003297     0.00001317    -0.00054452
N        -0.04994495    -0.07520121     1.45896811     0.00007435    -0.00004492     0.00043525
H         0.91711070    -0.15762123    -0.61407340     0.00045586    -0.00062543    -0.00061767
H         0.88821207     0.05140479     1.91956169    -0.00069255     0.00079144     0.00065359
H        -0.93324600    -0.11915519     1.93019998    -0.00025655    -0.00056901     0.00065914
H        -1.00434097     0.11069580    -0.64934942    -0.00014705     0.00087023    -0.00025495
     6