     6
  Step:   600            Position(A)                                  Velocity(au)
C        -0.28792409    -0.28782854     0.07059466    -0.00039346    -0.00053150    -0.00101359
N         0.21264120     0.16391963     1.26544962     0.00015593     0.00023848    -0.00011438
H         0.40877760     0.28307740    -0.61035837    -0.00072537    -0.00029423     0.00066000
H         0.05410263    -0.46572547     1.92654821     0.00279770    -0.00060747     0.01041377
H         0.35362844     1.25341107     1.40669949     0.00024068     0.00214968     0.00450429
H        -1.55291204    -0.58836726    -0.25742930     0.00020877     0.00177144    -0.00191063
