 Fermi distribution function

Calculation with static geometry


********************************************************************************
 iSCC Total electronic   Diff electronic      SCC error    
   13   -0.53113345E+01   -0.56745719E-11    0.17328568E-06
********************************************************************************

 Total charge:     1.00000000

 Atomic gross charges (e)
 Atom           Charge
    1       0.31437499
    2      -0.20219062
    3       0.17456367
    4       0.28487144
    5       0.26121631
    6       0.16716420

Nr. of electrons (up):     12.00000000
Atom populations (up)
 Atom       Population
    1       3.68562501
    2       5.20219062
    3       0.82543633
    4       0.71512856
    5       0.73878369
    6       0.83283580

l-shell populations (up)
 Atom Sh.   l       Population
    1   1   0       1.36710129
    1   2   1       2.31852371
    2   1   0       1.48704051
    2   2   1       3.71515011
    3   1   0       0.82543633
    4   1   0       0.71512856
    5   1   0       0.73878369
    6   1   0       0.83283580

Orbital populations (up)
 Atom Sh.   l   m       Population  Label
    1   1   0   0       1.36710129  s
    1   2   1  -1       0.48070403  p_y
    1   2   1   0       0.87345558  p_z
    1   2   1   1       0.96436410  p_x
    2   1   0   0       1.48704051  s
    2   2   1  -1       1.35659132  p_y
    2   2   1   0       1.08477104  p_z
    2   2   1   1       1.27378775  p_x
    3   1   0   0       0.82543633  s
    4   1   0   0       0.71512856  s
    5   1   0   0       0.73878369  s
    6   1   0   0       0.83283580  s

Fermi level:                        -0.5072877548 H          -13.8040 eV
Band energy:                        -8.7358211232 H         -237.7138 eV
TS:                                  0.0000000000 H            0.0000 eV
Band free energy (E-TS):            -8.7358211232 H         -237.7138 eV
Extrapolated E(0K):                 -8.7358211232 H         -237.7138 eV
Input / Output electrons (q):     12.0000000000     12.0000000000

Energy H0:                          -5.4470686548 H         -148.2223 eV
Energy SCC:                          0.1357341961 H            3.6935 eV
Total Electronic energy:            -5.3113344587 H         -144.5288 eV
Repulsive energy:                    0.1494488873 H            4.0667 eV
Total energy:                       -5.1618855713 H         -140.4621 eV
Extrapolated to 0:                  -5.1618855713 H         -140.4621 eV
Total Mermin free energy:           -5.1618855713 H         -140.4621 eV
Force related energy:               -5.1618855713 H         -140.4621 eV

SCC converged

Excitation Energy:                   0.0984238594 H            2.6782 eV

Total Forces
    1     -0.009385558605      0.000895755732      0.074579800715
    2      0.018717833224      0.021057462936     -0.077602571113
    3     -0.000176524478     -0.014883335942     -0.001091293380
    4     -0.016080092425     -0.000227011779     -0.001677099125
    5     -0.001439431047     -0.014528695952      0.002935519314
    6      0.008363773331      0.007685825004      0.002855643589

Maximal derivative component:        0.776026E-01 au


