|===============================================================================
|
|  DFTB+ release 20.1
|
|  Copyright (C) 2006 - 2020  DFTB+ developers group
|
|===============================================================================
|
|  When publishing results obtained with DFTB+, please cite the following
|  reference:
|
|  * DFTB+, a software package for efficient approximate density functional
|    theory based atomistic simulations, J. Chem. Phys. 152, 124101 (2020).
|    [doi: 10.1063/1.5143190]
|
|  You should also cite additional publications crediting the parametrization
|  data you use. Please consult the documentation of the SK-files for the
|  references.
|
|===============================================================================

Reading input file 'dftb_in.hsd'
Parser version: 8

--------------------------------------------------------------------------------
Reading SK-files:
Done.


Processed input in HSD format written to 'dftb_pin.hsd'

Starting initialization...
--------------------------------------------------------------------------------
OpenMP threads:              1
Chosen random seed:          449656973
Mode:                        Static calculation
Self consistent charges:     Yes
SCC-tolerance:                 0.100000E-05
Max. scc iterations:                   1000
Shell resolved Hubbard:      No
Spin polarisation:           No
Nr. of up electrons:             6.000000
Nr. of down electrons:           6.000000
Periodic boundaries:         No
Electronic solver:           Relatively robust
Maximal SCC-cycles:                    1000
Initial charges:             Set automatically (system chrg:   0.100E+01)
Included shells:             C:  s, p
                             N:  s, p
                             H:  s
Spin coupling constants:     C   1(s)-1(s):  -0.455900E-01
                             C   1(s)-2(p):  -0.293000E-01
                             C   2(p)-1(s):  -0.293000E-01
                             C   2(p)-2(p):  -0.275500E-01
                             N   1(s)-1(s):  -0.468700E-01
                             N   1(s)-2(p):  -0.317000E-01
                             N   2(p)-1(s):  -0.317000E-01
                             N   2(p)-2(p):  -0.307200E-01
                             H   1(s)-1(s):  -0.792500E-01
Range separated hybrid:      Yes
  Screening parameter omega:   0.300000E+00
  Range separated algorithm:   MatrixBased
Extra options:
                             Mulliken analysis
                             Force calculation
Force type                   original
                             Eigenvector printing


REKS Calcuation:             Yes
SSR(2,2) Calcuation:         Yes
Energy Functional:           (PPS+OSS)/2
Number of Core Orbitals:                  5
Number of Active Orbitals:                2
Number of Basis:                         12
Number of States:                         2
State-Averaging Weight:          0.500000
                                 0.500000
State of Interest:                        1
Initial Guess:               Diagonalize H0 matrix
Newton-Raphson for FON opt:  Yes
NR max. Iterations:                      50
Level Shifting:              Yes
Shift Value:                     0.300000
W Scale Factor:              C  =    3.200000
                             N  =    3.200000
                             H  =    3.200000
Transition Dipole:           No
Gradient of Microstate:      No
CP-REKS Solver:              Preconditioned Conjugate-Gradient
CG max. Iterations:                     100
CG Tolerance:                  0.100000E-07
Memory for A and Hxc:        Direct Updating Without Saving
Non-Adiabatic Coupling:      Yes

--------------------------------------------------------------------------------

***  Geometry step: 0

  iSCC       reks energy        Diff energy         x_a       SCC error   
    1       -6.0688688557       0.0000000000     0.874194    1.05964795
    2       -6.0927140455      -0.0238451898     0.960445    0.15830784
    3       -6.1094220830      -0.0167080375     0.999755    0.10411820
    4       -6.1152086323      -0.0057865493     0.999997    0.04930767
    5       -6.1173354836      -0.0021268513     0.999999    0.01920441
    6       -6.1186908030      -0.0013553194     1.000000    0.01302470
    7       -6.1196136459      -0.0009228429     1.000000    0.01162780
    8       -6.1202528327      -0.0006391868     1.000000    0.01084511
    9       -6.1206986489      -0.0004458162     1.000000    0.00979428
   10       -6.1210115455      -0.0003128966     1.000000    0.00859376
   11       -6.1212331038      -0.0002215583     1.000000    0.00742968
   12       -6.1213919665      -0.0001588627     1.000000    0.00633175
   13       -6.1215077176      -0.0001157511     1.000000    0.00536735
   14       -6.1215936325      -0.0000859150     1.000000    0.00452085
   15       -6.1216586601      -0.0000650275     1.000000    0.00381195
   16       -6.1217088262      -0.0000501662     1.000000    0.00320924
   17       -6.1217482095      -0.0000393832     1.000000    0.00271715
   18       -6.1217795990      -0.0000313895     1.000000    0.00230297
   19       -6.1218049338      -0.0000253348     1.000000    0.00210446
   20       -6.1218255887      -0.0000206550     1.000000    0.00202287
   21       -6.1218425617      -0.0000169729     1.000000    0.00193167
   22       -6.1218565935      -0.0000140318     1.000000    0.00182295
   23       -6.1218682472      -0.0000116538     1.000000    0.00171699
   24       -6.1218779594      -0.0000097122     1.000000    0.00160211
   25       -6.1218860747      -0.0000081153     1.000000    0.00149675
   26       -6.1218928688      -0.0000067941     1.000000    0.00138634
   27       -6.1218985653      -0.0000056965     1.000000    0.00128908
   28       -6.1219033468      -0.0000047815     1.000000    0.00118787
   29       -6.1219073637      -0.0000040169     1.000000    0.00110185
   30       -6.1219107406      -0.0000033768     1.000000    0.00101135
   31       -6.1219135808      -0.0000028402     1.000000    0.00093740
   32       -6.1219159705      -0.0000023898     1.000000    0.00085745
   33       -6.1219179820      -0.0000020114     1.000000    0.00079523
   34       -6.1219196754      -0.0000016934     1.000000    0.00072487
   35       -6.1219211013      -0.0000014260     1.000000    0.00067358
   36       -6.1219223023      -0.0000012009     1.000000    0.00061147
   37       -6.1219233138      -0.0000010116     1.000000    0.00057017
   38       -6.1219241659      -0.0000008521     1.000000    0.00051488
   39       -6.1219248838      -0.0000007179     1.000000    0.00048269
   40       -6.1219254887      -0.0000006048     1.000000    0.00043279
   41       -6.1219259983      -0.0000005096     1.000000    0.00040894
   42       -6.1219264278      -0.0000004294     1.000000    0.00036305
   43       -6.1219267896      -0.0000003619     1.000000    0.00034699
   44       -6.1219270946      -0.0000003049     1.000000    0.00030376
   45       -6.1219273515      -0.0000002570     1.000000    0.00029513
   46       -6.1219275681      -0.0000002165     1.000000    0.00025325
   47       -6.1219277506      -0.0000001825     1.000000    0.00025191
   48       -6.1219279043      -0.0000001538     1.000000    0.00021006
   49       -6.1219280339      -0.0000001296     1.000000    0.00021611
   50       -6.1219281431      -0.0000001092     1.000000    0.00017293
   51       -6.1219282351      -0.0000000920     1.000000    0.00018672
   52       -6.1219283126      -0.0000000775     1.000000    0.00015235
   53       -6.1219283779      -0.0000000653     1.000000    0.00016289
   54       -6.1219284328      -0.0000000550     1.000000    0.00014634
   55       -6.1219284791      -0.0000000463     1.000000    0.00014397
   56       -6.1219285180      -0.0000000389     1.000000    0.00014511
   57       -6.1219285507      -0.0000000327     1.000000    0.00012944
   58       -6.1219285781      -0.0000000274     1.000000    0.00014873
   59       -6.1219286011      -0.0000000230     1.000000    0.00011892
   60       -6.1219286203      -0.0000000192     1.000000    0.00015744
   61       -6.1219286362      -0.0000000159     1.000000    0.00011215
   62       -6.1219286494      -0.0000000132     1.000000    0.00017167
   63       -6.1219286602      -0.0000000108     1.000000    0.00010900
   64       -6.1219286689      -0.0000000087     1.000000    0.00019204
   65       -6.1219286757      -0.0000000068     1.000000    0.00013711
   66       -6.1219286809      -0.0000000052     1.000000    0.00021941
   67       -6.1219286846      -0.0000000037     1.000000    0.00017903
   68       -6.1219286869      -0.0000000023     1.000000    0.00025490
   69       -6.1219286877      -0.0000000008     1.000000    0.00022805
   70       -6.1219286871       0.0000000005     1.000000    0.00029992
   71       -6.1219286851       0.0000000021     1.000000    0.00028606
   72       -6.1219286816       0.0000000035     1.000000    0.00035625
   73       -6.1219286762       0.0000000054     1.000000    0.00035524
   74       -6.1219286690       0.0000000072     1.000000    0.00042613
   75       -6.1219286594       0.0000000096     1.000000    0.00043827
   76       -6.1219286474       0.0000000120     1.000000    0.00051228
   77       -6.1219286320       0.0000000154     1.000000    0.00053834
   78       -6.1219286133       0.0000000187     1.000000    0.00061807
   79       -6.1219285896       0.0000000237     1.000000    0.00065932
   80       -6.1219285613       0.0000000283     1.000000    0.00074763
   81       -6.1219285254       0.0000000358     1.000000    0.00080588
   82       -6.1219284832       0.0000000423     1.000000    0.00090598
   83       -6.1219284295       0.0000000537     1.000000    0.00098370
   84       -6.1219283668       0.0000000627     1.000000    0.00109929
   85       -6.1219282867       0.0000000801     1.000000    0.00119967
   86       -6.1219281940       0.0000000927     1.000000    0.00133505
   87       -6.1219280745       0.0000001195     1.000000    0.00146217
   88       -6.1219279379       0.0000001366     1.000000    0.00162239
   89       -6.1219277596       0.0000001783     1.000000    0.00178137
   90       -6.1219275586       0.0000002009     1.000000    0.00197242
   91       -6.1219272924       0.0000002663     1.000000    0.00216963
   92       -6.1219269974       0.0000002949     1.000000    0.00239865
   93       -6.1219265994       0.0000003981     1.000000    0.00264195
   94       -6.1219261675       0.0000004319     1.000000    0.00291744
   95       -6.1219255715       0.0000005960     1.000000    0.00321655
   96       -6.1219249411       0.0000006305     1.000000    0.00354864
   97       -6.1219240471       0.0000008940     1.000000    0.00391549
   98       -6.1219231303       0.0000009168     1.000000    0.00431625
   99       -6.1219217865       0.0000013437     1.000000    0.00476543
  100       -6.1219204599       0.0000013267     1.000000    0.00524912
  101       -6.1219184355       0.0000020243     1.000000    0.00579846
  102       -6.1219165283       0.0000019072     1.000000    0.00638185
  103       -6.1219134715       0.0000030569     1.000000    0.00705301
  104       -6.1219107535       0.0000027180     1.000000    0.00775551
  105       -6.1219061266       0.0000046269     1.000000    0.00857464
  106       -6.1219022983       0.0000038282     1.000000    0.00941835
  107       -6.1218952803       0.0000070180     1.000000    0.01041669
  108       -6.1218899752       0.0000053051     1.000000    0.01142599
  109       -6.1218793140       0.0000106612     1.000000    0.01264021
  110       -6.1218721291       0.0000071849     1.000000    0.01384075
  111       -6.1218559267       0.0000162024     1.000000    0.01531277
  112       -6.1218465177       0.0000094090     1.000000    0.01672924
  113       -6.1218219288       0.0000245889     1.000000    0.01850484
  114       -6.1218102278       0.0000117010     1.000000    0.02015707
  115       -6.1217730703       0.0000371574     1.000000    0.02228229
  116       -6.1217597186       0.0000133517     1.000000    0.02417882
  117       -6.1217040398       0.0000556788     1.000000    0.02669296
  118       -6.1216911456       0.0000128942     1.000000    0.02882165
  119       -6.1216088877       0.0000822579     1.000000    0.03174528
  120       -6.1216011660       0.0000077217     1.000000    0.03406164
  121       -6.1214822349       0.0001189310     0.999999    0.03737914
  122       -6.1214883626      -0.0000061277     1.000000    0.03979544
  123       -6.1213215491       0.0001668135     0.999999    0.04343492
  124       -6.1213550818      -0.0000335327     1.000000    0.04581688
  125       -6.1211301905       0.0002248913     0.999999    0.04963549
  126       -6.1212088237      -0.0000786332     1.000000    0.05181592
  127       -6.1209197565       0.0002890672     0.999999    0.05560458
  128       -6.1210618090      -0.0001420525     1.000000    0.05741870
  129       -6.1207093141       0.0003524948     0.999998    0.06093714
  130       -6.1209279296      -0.0002186155     1.000000    0.06227042
  131       -6.1205202311       0.0004076985     0.999998    0.06530673
  132       -6.1208182544      -0.0002980232     1.000000    0.06613041
  133       -6.1203688249       0.0004494294     0.999997    0.06855738
  134       -6.1207378017      -0.0003689768     1.000000    0.06892941
  135       -6.1202615185       0.0004762832     0.999997    0.07072647
  136       -6.1206853768      -0.0004238582     1.000000    0.07075930
  137       -6.1201951820       0.0004901948     0.999997    0.07199313
  138       -6.1206558064      -0.0004606245     1.000000    0.07181125
  139       -6.1201610963       0.0004947102     0.999997    0.07259468
  140       -6.1206426441      -0.0004815478     1.000000    0.07230393
  141       -6.1201492390       0.0004934051     0.999997    0.07275774
  142       -6.1206400194      -0.0004907804     1.000000    0.07243321
  143       -6.1201509434       0.0004890760     0.999997    0.07266307
  144       -6.1206434160      -0.0004924726     1.000000    0.07235038
  145       -6.1201598304       0.0004835855     0.999997    0.07243824
  146       -6.1206497312      -0.0004899007     1.000000    0.07216062
  147       -6.1201717060       0.0004780251     0.999997    0.07216497
  148       -6.1206570197      -0.0004853137     1.000000    0.07193098
  149       -6.1201840665       0.0004729531     0.999997    0.07189097
  150       -6.1206641685      -0.0004801020     1.000000    0.07170067
  151       -6.1201955707       0.0004685978     0.999997    0.07164108
  152       -6.1206706146      -0.0004750439     1.000000    0.07149021
  153       -6.1202056134       0.0004650013     0.999997    0.07142575
  154       -6.1206761339      -0.0004705206     1.000000    0.07130840
  155       -6.1202140234       0.0004621105     0.999997    0.07124714
  156       -6.1206806971      -0.0004666736     1.000000    0.07115712
  157       -6.1202208650       0.0004598320     0.999997    0.07110293
  158       -6.1206843762      -0.0004635112     1.000000    0.07103459
  159       -6.1202263143       0.0004580619     0.999997    0.07098880
  160       -6.1206872881      -0.0004609737     1.000000    0.07093730
  161       -6.1202305870       0.0004567011     0.999997    0.07089981
  162       -6.1206895610      -0.0004589741     1.000000    0.07086117
  163       -6.1202338983       0.0004556628     0.999997    0.07083120
  164       -6.1206913174      -0.0004574191     1.000000    0.07080226
  165       -6.1202364431       0.0004548743     0.999997    0.07077871
  166       -6.1206926649      -0.0004562218     1.000000    0.07075703
  167       -6.1202383880       0.0004542769     0.999997    0.07073876
  168       -6.1206936942      -0.0004553062     1.000000    0.07072247
  169       -6.1202398698       0.0004538244     0.999997    0.07070843
  170       -6.1206944788      -0.0004546090     1.000000    0.07069614
  171       -6.1202409980       0.0004534808     0.999997    0.07068542
  172       -6.1206950771      -0.0004540791     1.000000    0.07067608
  173       -6.1202418581       0.0004532190     0.999997    0.07066793
  174       -6.1206955342      -0.0004536762     1.000000    0.07066077
  175       -6.1202425158       0.0004530184     0.999997    0.07065458
  176       -6.1206958849      -0.0004533691     1.000000    0.07064905
  177       -6.1202430213       0.0004528637     0.999997    0.07064434
  178       -6.1206961554      -0.0004531341     1.000000    0.07064002
  179       -6.1202434120       0.0004527434     0.999997    0.07063643
  180       -6.1206963653      -0.0004529533     1.000000    0.07063303
  181       -6.1202437161       0.0004526492     0.999997    0.07063028
  182       -6.1206965294      -0.0004528133     1.000000    0.07062758
  183       -6.1202439546       0.0004525748     0.999997    0.07062545
  184       -6.1206966585      -0.0004527040     1.000000    0.07062329
  185       -6.1202441429       0.0004525156     0.999997    0.07062164
  186       -6.1206967609      -0.0004526180     1.000000    0.07061990
  187       -6.1202442927       0.0004524683     0.999997    0.07061861
  188       -6.1206968427      -0.0004525500     1.000000    0.07061720
  189       -6.1202444126       0.0004524301     0.999997    0.07061618
  190       -6.1206969083      -0.0004524957     1.000000    0.07061504
  191       -6.1202445090       0.0004523992     0.999997    0.07061422
  192       -6.1206969612      -0.0004524522     1.000000    0.07061329
  193       -6.1202445871       0.0004523741     0.999997    0.07061264
  194       -6.1206970041      -0.0004524170     1.000000    0.07061188
  195       -6.1202446504       0.0004523537     0.999997    0.07061135
  196       -6.1206970390      -0.0004523886     1.000000    0.07061073
  197       -6.1202447019       0.0004523370     0.999997    0.07061031
  198       -6.1206970674      -0.0004523654     1.000000    0.07060979
  199       -6.1202447440       0.0004523234     0.999997    0.07060945
  200       -6.1206970906      -0.0004523466     1.000000    0.07060903
  201       -6.1202447784       0.0004523122     0.999997    0.07060875
  202       -6.1206971096      -0.0004523312     1.000000    0.07060841
  203       -6.1202448065       0.0004523031     0.999997    0.07060818
  204       -6.1206971251      -0.0004523186     1.000000    0.07060790
  205       -6.1202448295       0.0004522956     0.999997    0.07060771
  206       -6.1206971378      -0.0004523083     1.000000    0.07060748
  207       -6.1202448483       0.0004522895     0.999997    0.07060733
  208       -6.1206971482      -0.0004522998     1.000000    0.07060714
  209       -6.1202448637       0.0004522844     0.999997    0.07060701
  210       -6.1206971567      -0.0004522929     1.000000    0.07060686
  211       -6.1202448763       0.0004522803     0.999997    0.07060675
  212       -6.1206971636      -0.0004522873     1.000000    0.07060663
  213       -6.1202448867       0.0004522770     0.999997    0.07060654
  214       -6.1206971693      -0.0004522827     1.000000    0.07060644
  215       -6.1202448951       0.0004522742     0.999997    0.07060637
  216       -6.1206971740      -0.0004522789     1.000000    0.07060629
  217       -6.1202449020       0.0004522720     0.999997    0.07060623
  218       -6.1206971778      -0.0004522758     1.000000    0.07060616
  219       -6.1202449076       0.0004522702     0.999997    0.07060612
  220       -6.1206971809      -0.0004522733     1.000000    0.07060606
  221       -6.1202449122       0.0004522687     0.999997    0.07060602
  222       -6.1206971834      -0.0004522712     1.000000    0.07060598
  223       -6.1202449160       0.0004522674     0.999997    0.07060595
  224       -6.1206971855      -0.0004522695     1.000000    0.07060591
  225       -6.1202449190       0.0004522665     0.999997    0.07060588
  226       -6.1206971872      -0.0004522681     1.000000    0.07060585
  227       -6.1202449215       0.0004522656     0.999997    0.07060583
  228       -6.1206971886      -0.0004522670     1.000000    0.07060581
  229       -6.1202449236       0.0004522650     0.999997    0.07060579
  230       -6.1206971897      -0.0004522661     1.000000    0.07060577
  231       -6.1202449252       0.0004522644     0.999997    0.07060576
  232       -6.1206971906      -0.0004522654     1.000000    0.07060574
  233       -6.1202449266       0.0004522640     0.999997    0.07060573
  234       -6.1206971913      -0.0004522647     1.000000    0.07060572
  235       -6.1202449277       0.0004522636     0.999997    0.07060571
  236       -6.1206971920      -0.0004522643     1.000000    0.07060570
  237       -6.1202449286       0.0004522633     0.999997    0.07060569
  238       -6.1206971924      -0.0004522638     1.000000    0.07060568
  239       -6.1202449293       0.0004522631     0.999997    0.07060567
  240       -6.1206971929      -0.0004522635     1.000000    0.07060567
  241       -6.1202449299       0.0004522629     0.999997    0.07060566
  242       -6.1206971932      -0.0004522632     1.000000    0.07060565
  243       -6.1202449304       0.0004522628     0.999997    0.07060565
  244       -6.1206971935      -0.0004522630     1.000000    0.07060565
  245       -6.1202449308       0.0004522626     0.999997    0.07060564
  246       -6.1206971937      -0.0004522628     1.000000    0.07060564
  247       -6.1202449312       0.0004522625     0.999997    0.07060564
  248       -6.1206971939      -0.0004522627     1.000000    0.07060563
  249       -6.1202449314       0.0004522624     0.999997    0.07060563
  250       -6.1206971940      -0.0004522626     1.000000    0.07060563
  251       -6.1202449316       0.0004522624     0.999997    0.07060563
  252       -6.1206971941      -0.0004522625     1.000000    0.07060562
  253       -6.1202449318       0.0004522623     0.999997    0.07060562
  254       -6.1206971942      -0.0004522624     1.000000    0.07060562
  255       -6.1202449320       0.0004522623     0.999997    0.07060562
  256       -6.1206971943      -0.0004522623     1.000000    0.07060562
  257       -6.1202449321       0.0004522622     0.999997    0.07060562
  258       -6.1206971944      -0.0004522623     1.000000    0.07060562
  259       -6.1202449322       0.0004522622     0.999997    0.07060562
  260       -6.1206971944      -0.0004522622     1.000000    0.07060561
  261       -6.1202449322       0.0004522622     0.999997    0.07060561
  262       -6.1206971945      -0.0004522622     1.000000    0.07060561
  263       -6.1202449323       0.0004522621     0.999997    0.07060561
  264       -6.1206971945      -0.0004522622     1.000000    0.07060561
  265       -6.1202449324       0.0004522621     0.999997    0.07060561
  266       -6.1206971945      -0.0004522622     1.000000    0.07060561
  267       -6.1202449324       0.0004522621     0.999997    0.07060561
  268       -6.1206971945      -0.0004522621     1.000000    0.07060561
  269       -6.1202449324       0.0004522621     0.999997    0.07060561
  270       -6.1206971946      -0.0004522621     1.000000    0.07060561
  271       -6.1202449325       0.0004522621     0.999997    0.07060561
  272       -6.1206971946      -0.0004522621     1.000000    0.07060561
  273       -6.1202449325       0.0004522621     0.999997    0.07060561
  274       -6.1206971946      -0.0004522621     1.000000    0.07060561
  275       -6.1202449325       0.0004522621     0.999997    0.07060561
  276       -6.1206971946      -0.0004522621     1.000000    0.07060561
  277       -6.1202449325       0.0004522621     0.999997    0.07060561
  278       -6.1206971946      -0.0004522621     1.000000    0.07060561
  279       -6.1202449325       0.0004522621     0.999997    0.07060561
  280       -6.1206971946      -0.0004522621     1.000000    0.07060561
  281       -6.1202449325       0.0004522621     0.999997    0.07060561
  282       -6.1206971946      -0.0004522621     1.000000    0.07060561
  283       -6.1202449326       0.0004522621     0.999997    0.07060561
  284       -6.1206971946      -0.0004522621     1.000000    0.07060561
  285       -6.1202449326       0.0004522621     0.999997    0.07060561
  286       -6.1206971946      -0.0004522621     1.000000    0.07060561
  287       -6.1202449326       0.0004522621     0.999997    0.07060561
  288       -6.1206971946      -0.0004522621     1.000000    0.07060561
  289       -6.1202449326       0.0004522621     0.999997    0.07060561
  290       -6.1206971946      -0.0004522621     1.000000    0.07060561
  291       -6.1202449326       0.0004522621     0.999997    0.07060561
  292       -6.1206971946      -0.0004522621     1.000000    0.07060561
  293       -6.1202449326       0.0004522621     0.999997    0.07060561
  294       -6.1206971946      -0.0004522621     1.000000    0.07060561
  295       -6.1202449326       0.0004522621     0.999997    0.07060561
  296       -6.1206971946      -0.0004522621     1.000000    0.07060561
  297       -6.1202449326       0.0004522621     0.999997    0.07060561
  298       -6.1206971946      -0.0004522621     1.000000    0.07060561
  299       -6.1202449326       0.0004522621     0.999997    0.07060561
  300       -6.1206971946      -0.0004522621     1.000000    0.07060561
  301       -6.1202449326       0.0004522621     0.999997    0.07060561
  302       -6.1206971946      -0.0004522621     1.000000    0.07060561
  303       -6.1202449326       0.0004522621     0.999997    0.07060561
  304       -6.1206971946      -0.0004522621     1.000000    0.07060561
  305       -6.1202449326       0.0004522621     0.999997    0.07060561
  306       -6.1206971946      -0.0004522621     1.000000    0.07060561
  307       -6.1202449326       0.0004522621     0.999997    0.07060561
  308       -6.1206971946      -0.0004522621     1.000000    0.07060561
  309       -6.1202449326       0.0004522621     0.999997    0.07060561
  310       -6.1206971946      -0.0004522621     1.000000    0.07060561
  311       -6.1202449326       0.0004522621     0.999997    0.07060561
  312       -6.1206971946      -0.0004522621     1.000000    0.07060561
  313       -6.1202449326       0.0004522621     0.999997    0.07060561
  314       -6.1206971946      -0.0004522621     1.000000    0.07060561
  315       -6.1202449326       0.0004522621     0.999997    0.07060561
  316       -6.1206971946      -0.0004522621     1.000000    0.07060561
  317       -6.1202449326       0.0004522621     0.999997    0.07060561
  318       -6.1206971946      -0.0004522621     1.000000    0.07060561
  319       -6.1202449326       0.0004522621     0.999997    0.07060561
  320       -6.1206971946      -0.0004522621     1.000000    0.07060561
  321       -6.1202449326       0.0004522621     0.999997    0.07060561
  322       -6.1206971946      -0.0004522621     1.000000    0.07060561
  323       -6.1202449326       0.0004522621     0.999997    0.07060561
  324       -6.1206971946      -0.0004522621     1.000000    0.07060561
  325       -6.1202449326       0.0004522621     0.999997    0.07060561
  326       -6.1206971946      -0.0004522621     1.000000    0.07060561
  327       -6.1202449326       0.0004522621     0.999997    0.07060561
  328       -6.1206971946      -0.0004522621     1.000000    0.07060561
  329       -6.1202449326       0.0004522621     0.999997    0.07060561
  330       -6.1206971946      -0.0004522621     1.000000    0.07060561
  331       -6.1202449326       0.0004522621     0.999997    0.07060561
  332       -6.1206971946      -0.0004522621     1.000000    0.07060561
  333       -6.1202449326       0.0004522621     0.999997    0.07060561
  334       -6.1206971946      -0.0004522621     1.000000    0.07060561
  335       -6.1202449326       0.0004522621     0.999997    0.07060561
  336       -6.1206971946      -0.0004522621     1.000000    0.07060561
  337       -6.1202449326       0.0004522621     0.999997    0.07060561
  338       -6.1206971946      -0.0004522621     1.000000    0.07060561
  339       -6.1202449326       0.0004522621     0.999997    0.07060561
  340       -6.1206971946      -0.0004522621     1.000000    0.07060561
  341       -6.1202449326       0.0004522621     0.999997    0.07060561
  342       -6.1206971946      -0.0004522621     1.000000    0.07060561
  343       -6.1202449326       0.0004522621     0.999997    0.07060561
  344       -6.1206971946      -0.0004522621     1.000000    0.07060561
  345       -6.1202449326       0.0004522621     0.999997    0.07060561
  346       -6.1206971946      -0.0004522621     1.000000    0.07060561
  347       -6.1202449326       0.0004522621     0.999997    0.07060561
  348       -6.1206971946      -0.0004522621     1.000000    0.07060561
  349       -6.1202449326       0.0004522621     0.999997    0.07060561
  350       -6.1206971946      -0.0004522621     1.000000    0.07060561
  351       -6.1202449326       0.0004522621     0.999997    0.07060561
  352       -6.1206971946      -0.0004522621     1.000000    0.07060561
  353       -6.1202449326       0.0004522621     0.999997    0.07060561
  354       -6.1206971946      -0.0004522621     1.000000    0.07060561
  355       -6.1202449326       0.0004522621     0.999997    0.07060561
  356       -6.1206971946      -0.0004522621     1.000000    0.07060561
  357       -6.1202449326       0.0004522621     0.999997    0.07060561
  358       -6.1206971946      -0.0004522621     1.000000    0.07060561
  359       -6.1202449326       0.0004522621     0.999997    0.07060561
  360       -6.1206971946      -0.0004522621     1.000000    0.07060561
  361       -6.1202449326       0.0004522621     0.999997    0.07060561
  362       -6.1206971946      -0.0004522621     1.000000    0.07060561
  363       -6.1202449326       0.0004522621     0.999997    0.07060561
  364       -6.1206971946      -0.0004522621     1.000000    0.07060561
  365       -6.1202449326       0.0004522621     0.999997    0.07060561
  366       -6.1206971946      -0.0004522621     1.000000    0.07060561
  367       -6.1202449326       0.0004522621     0.999997    0.07060561
  368       -6.1206971946      -0.0004522621     1.000000    0.07060561
  369       -6.1202449326       0.0004522621     0.999997    0.07060561
  370       -6.1206971946      -0.0004522621     1.000000    0.07060561
  371       -6.1202449326       0.0004522621     0.999997    0.07060561
  372       -6.1206971946      -0.0004522621     1.000000    0.07060561
  373       -6.1202449326       0.0004522621     0.999997    0.07060561
  374       -6.1206971946      -0.0004522621     1.000000    0.07060561
  375       -6.1202449326       0.0004522621     0.999997    0.07060561
  376       -6.1206971946      -0.0004522621     1.000000    0.07060561
  377       -6.1202449326       0.0004522621     0.999997    0.07060561
  378       -6.1206971946      -0.0004522621     1.000000    0.07060561
  379       -6.1202449326       0.0004522621     0.999997    0.07060561
  380       -6.1206971946      -0.0004522621     1.000000    0.07060561
  381       -6.1202449326       0.0004522621     0.999997    0.07060561
  382       -6.1206971946      -0.0004522621     1.000000    0.07060561
  383       -6.1202449326       0.0004522621     0.999997    0.07060561
  384       -6.1206971946      -0.0004522621     1.000000    0.07060561
  385       -6.1202449326       0.0004522621     0.999997    0.07060561
  386       -6.1206971946      -0.0004522621     1.000000    0.07060561
  387       -6.1202449326       0.0004522621     0.999997    0.07060561
  388       -6.1206971946      -0.0004522621     1.000000    0.07060561
  389       -6.1202449326       0.0004522621     0.999997    0.07060561
  390       -6.1206971946      -0.0004522621     1.000000    0.07060561
  391       -6.1202449326       0.0004522621     0.999997    0.07060561
  392       -6.1206971946      -0.0004522621     1.000000    0.07060561
  393       -6.1202449326       0.0004522621     0.999997    0.07060561
  394       -6.1206971946      -0.0004522621     1.000000    0.07060561
  395       -6.1202449326       0.0004522621     0.999997    0.07060561
  396       -6.1206971946      -0.0004522621     1.000000    0.07060561
  397       -6.1202449326       0.0004522621     0.999997    0.07060561
  398       -6.1206971946      -0.0004522621     1.000000    0.07060561
  399       -6.1202449326       0.0004522621     0.999997    0.07060561
  400       -6.1206971946      -0.0004522621     1.000000    0.07060561
  401       -6.1202449326       0.0004522621     0.999997    0.07060561
  402       -6.1206971946      -0.0004522621     1.000000    0.07060561
  403       -6.1202449326       0.0004522621     0.999997    0.07060561
  404       -6.1206971946      -0.0004522621     1.000000    0.07060561
  405       -6.1202449326       0.0004522621     0.999997    0.07060561
  406       -6.1206971946      -0.0004522621     1.000000    0.07060561
  407       -6.1202449326       0.0004522621     0.999997    0.07060561
  408       -6.1206971946      -0.0004522621     1.000000    0.07060561
  409       -6.1202449326       0.0004522621     0.999997    0.07060561
  410       -6.1206971946      -0.0004522621     1.000000    0.07060561
  411       -6.1202449326       0.0004522621     0.999997    0.07060561
  412       -6.1206971946      -0.0004522621     1.000000    0.07060561
  413       -6.1202449326       0.0004522621     0.999997    0.07060561
  414       -6.1206971946      -0.0004522621     1.000000    0.07060561
  415       -6.1202449326       0.0004522621     0.999997    0.07060561
  416       -6.1206971946      -0.0004522621     1.000000    0.07060561
  417       -6.1202449326       0.0004522621     0.999997    0.07060561
  418       -6.1206971946      -0.0004522621     1.000000    0.07060561
  419       -6.1202449326       0.0004522621     0.999997    0.07060561
  420       -6.1206971946      -0.0004522621     1.000000    0.07060561
  421       -6.1202449326       0.0004522621     0.999997    0.07060561
  422       -6.1206971946      -0.0004522621     1.000000    0.07060561
  423       -6.1202449326       0.0004522621     0.999997    0.07060561
  424       -6.1206971946      -0.0004522621     1.000000    0.07060561
  425       -6.1202449326       0.0004522621     0.999997    0.07060561
  426       -6.1206971946      -0.0004522621     1.000000    0.07060561
  427       -6.1202449326       0.0004522621     0.999997    0.07060561
  428       -6.1206971946      -0.0004522621     1.000000    0.07060561
  429       -6.1202449326       0.0004522621     0.999997    0.07060561
  430       -6.1206971946      -0.0004522621     1.000000    0.07060561
  431       -6.1202449326       0.0004522621     0.999997    0.07060561
  432       -6.1206971946      -0.0004522621     1.000000    0.07060561
  433       -6.1202449326       0.0004522621     0.999997    0.07060561
  434       -6.1206971946      -0.0004522621     1.000000    0.07060561
  435       -6.1202449326       0.0004522621     0.999997    0.07060561
  436       -6.1206971946      -0.0004522621     1.000000    0.07060561
  437       -6.1202449326       0.0004522621     0.999997    0.07060561
  438       -6.1206971946      -0.0004522621     1.000000    0.07060561
  439       -6.1202449326       0.0004522621     0.999997    0.07060561
  440       -6.1206971946      -0.0004522621     1.000000    0.07060561
  441       -6.1202449326       0.0004522621     0.999997    0.07060561
  442       -6.1206971946      -0.0004522621     1.000000    0.07060561
  443       -6.1202449326       0.0004522621     0.999997    0.07060561
  444       -6.1206971946      -0.0004522621     1.000000    0.07060561
  445       -6.1202449326       0.0004522621     0.999997    0.07060561
  446       -6.1206971946      -0.0004522621     1.000000    0.07060561
  447       -6.1202449326       0.0004522621     0.999997    0.07060561
  448       -6.1206971946      -0.0004522621     1.000000    0.07060561
  449       -6.1202449326       0.0004522621     0.999997    0.07060561
  450       -6.1206971946      -0.0004522621     1.000000    0.07060561
  451       -6.1202449326       0.0004522621     0.999997    0.07060561
  452       -6.1206971946      -0.0004522621     1.000000    0.07060561
  453       -6.1202449326       0.0004522621     0.999997    0.07060561
  454       -6.1206971946      -0.0004522621     1.000000    0.07060561
  455       -6.1202449326       0.0004522621     0.999997    0.07060561
  456       -6.1206971946      -0.0004522621     1.000000    0.07060561
  457       -6.1202449326       0.0004522621     0.999997    0.07060561
  458       -6.1206971946      -0.0004522621     1.000000    0.07060561
  459       -6.1202449326       0.0004522621     0.999997    0.07060561
  460       -6.1206971946      -0.0004522621     1.000000    0.07060561
  461       -6.1202449326       0.0004522621     0.999997    0.07060561
  462       -6.1206971946      -0.0004522621     1.000000    0.07060561
  463       -6.1202449326       0.0004522621     0.999997    0.07060561
  464       -6.1206971946      -0.0004522621     1.000000    0.07060561
  465       -6.1202449326       0.0004522621     0.999997    0.07060561
  466       -6.1206971946      -0.0004522621     1.000000    0.07060561
  467       -6.1202449326       0.0004522621     0.999997    0.07060561
  468       -6.1206971946      -0.0004522621     1.000000    0.07060561
  469       -6.1202449326       0.0004522621     0.999997    0.07060561
  470       -6.1206971946      -0.0004522621     1.000000    0.07060561
  471       -6.1202449326       0.0004522621     0.999997    0.07060561
  472       -6.1206971946      -0.0004522621     1.000000    0.07060561
  473       -6.1202449326       0.0004522621     0.999997    0.07060561
  474       -6.1206971946      -0.0004522621     1.000000    0.07060561
  475       -6.1202449326       0.0004522621     0.999997    0.07060561
  476       -6.1206971946      -0.0004522621     1.000000    0.07060561
  477       -6.1202449326       0.0004522621     0.999997    0.07060561
  478       -6.1206971946      -0.0004522621     1.000000    0.07060561
  479       -6.1202449326       0.0004522621     0.999997    0.07060561
  480       -6.1206971946      -0.0004522621     1.000000    0.07060561
  481       -6.1202449326       0.0004522621     0.999997    0.07060561
  482       -6.1206971946      -0.0004522621     1.000000    0.07060561
  483       -6.1202449326       0.0004522621     0.999997    0.07060561
  484       -6.1206971946      -0.0004522621     1.000000    0.07060561
  485       -6.1202449326       0.0004522621     0.999997    0.07060561
  486       -6.1206971946      -0.0004522621     1.000000    0.07060561
  487       -6.1202449326       0.0004522621     0.999997    0.07060561
  488       -6.1206971946      -0.0004522621     1.000000    0.07060561
  489       -6.1202449326       0.0004522621     0.999997    0.07060561
  490       -6.1206971946      -0.0004522621     1.000000    0.07060561
  491       -6.1202449326       0.0004522621     0.999997    0.07060561
  492       -6.1206971946      -0.0004522621     1.000000    0.07060561
  493       -6.1202449326       0.0004522621     0.999997    0.07060561
  494       -6.1206971946      -0.0004522621     1.000000    0.07060561
  495       -6.1202449326       0.0004522621     0.999997    0.07060561
  496       -6.1206971946      -0.0004522621     1.000000    0.07060561
  497       -6.1202449326       0.0004522621     0.999997    0.07060561
  498       -6.1206971946      -0.0004522621     1.000000    0.07060561
  499       -6.1202449326       0.0004522621     0.999997    0.07060561
  500       -6.1206971946      -0.0004522621     1.000000    0.07060561
  501       -6.1202449326       0.0004522621     0.999997    0.07060561
  502       -6.1206971946      -0.0004522621     1.000000    0.07060561
  503       -6.1202449326       0.0004522621     0.999997    0.07060561
  504       -6.1206971946      -0.0004522621     1.000000    0.07060561
  505       -6.1202449326       0.0004522621     0.999997    0.07060561
  506       -6.1206971946      -0.0004522621     1.000000    0.07060561
  507       -6.1202449326       0.0004522621     0.999997    0.07060561
  508       -6.1206971946      -0.0004522621     1.000000    0.07060561
  509       -6.1202449326       0.0004522621     0.999997    0.07060561
  510       -6.1206971946      -0.0004522621     1.000000    0.07060561
  511       -6.1202449326       0.0004522621     0.999997    0.07060561
  512       -6.1206971946      -0.0004522621     1.000000    0.07060561
  513       -6.1202449326       0.0004522621     0.999997    0.07060561
  514       -6.1206971946      -0.0004522621     1.000000    0.07060561
  515       -6.1202449326       0.0004522621     0.999997    0.07060561
  516       -6.1206971946      -0.0004522621     1.000000    0.07060561
  517       -6.1202449326       0.0004522621     0.999997    0.07060561
  518       -6.1206971946      -0.0004522621     1.000000    0.07060561
  519       -6.1202449326       0.0004522621     0.999997    0.07060561
  520       -6.1206971946      -0.0004522621     1.000000    0.07060561
  521       -6.1202449326       0.0004522621     0.999997    0.07060561
  522       -6.1206971946      -0.0004522621     1.000000    0.07060561
  523       -6.1202449326       0.0004522621     0.999997    0.07060561
  524       -6.1206971946      -0.0004522621     1.000000    0.07060561
  525       -6.1202449326       0.0004522621     0.999997    0.07060561
  526       -6.1206971946      -0.0004522621     1.000000    0.07060561
  527       -6.1202449326       0.0004522621     0.999997    0.07060561
  528       -6.1206971946      -0.0004522621     1.000000    0.07060561
  529       -6.1202449326       0.0004522621     0.999997    0.07060561
  530       -6.1206971946      -0.0004522621     1.000000    0.07060561
  531       -6.1202449326       0.0004522621     0.999997    0.07060561
  532       -6.1206971946      -0.0004522621     1.000000    0.07060561
  533       -6.1202449326       0.0004522621     0.999997    0.07060561
  534       -6.1206971946      -0.0004522621     1.000000    0.07060561
  535       -6.1202449326       0.0004522621     0.999997    0.07060561
  536       -6.1206971946      -0.0004522621     1.000000    0.07060561
  537       -6.1202449326       0.0004522621     0.999997    0.07060561
  538       -6.1206971946      -0.0004522621     1.000000    0.07060561
  539       -6.1202449326       0.0004522621     0.999997    0.07060561
  540       -6.1206971946      -0.0004522621     1.000000    0.07060561
  541       -6.1202449326       0.0004522621     0.999997    0.07060561
  542       -6.1206971946      -0.0004522621     1.000000    0.07060561
  543       -6.1202449326       0.0004522621     0.999997    0.07060561
  544       -6.1206971946      -0.0004522621     1.000000    0.07060561
  545       -6.1202449326       0.0004522621     0.999997    0.07060561
  546       -6.1206971946      -0.0004522621     1.000000    0.07060561
  547       -6.1202449326       0.0004522621     0.999997    0.07060561
  548       -6.1206971946      -0.0004522621     1.000000    0.07060561
  549       -6.1202449326       0.0004522621     0.999997    0.07060561
  550       -6.1206971946      -0.0004522621     1.000000    0.07060561
  551       -6.1202449326       0.0004522621     0.999997    0.07060561
  552       -6.1206971946      -0.0004522621     1.000000    0.07060561
  553       -6.1202449326       0.0004522621     0.999997    0.07060561
  554       -6.1206971946      -0.0004522621     1.000000    0.07060561
  555       -6.1202449326       0.0004522621     0.999997    0.07060561
  556       -6.1206971946      -0.0004522621     1.000000    0.07060561
  557       -6.1202449326       0.0004522621     0.999997    0.07060561
  558       -6.1206971946      -0.0004522621     1.000000    0.07060561
  559       -6.1202449326       0.0004522621     0.999997    0.07060561
  560       -6.1206971946      -0.0004522621     1.000000    0.07060561
  561       -6.1202449326       0.0004522621     0.999997    0.07060561
  562       -6.1206971946      -0.0004522621     1.000000    0.07060561
  563       -6.1202449326       0.0004522621     0.999997    0.07060561
  564       -6.1206971946      -0.0004522621     1.000000    0.07060561
  565       -6.1202449326       0.0004522621     0.999997    0.07060561
  566       -6.1206971946      -0.0004522621     1.000000    0.07060561
  567       -6.1202449326       0.0004522621     0.999997    0.07060561
  568       -6.1206971946      -0.0004522621     1.000000    0.07060561
  569       -6.1202449326       0.0004522621     0.999997    0.07060561
  570       -6.1206971946      -0.0004522621     1.000000    0.07060561
  571       -6.1202449326       0.0004522621     0.999997    0.07060561
  572       -6.1206971946      -0.0004522621     1.000000    0.07060561
  573       -6.1202449326       0.0004522621     0.999997    0.07060561
  574       -6.1206971946      -0.0004522621     1.000000    0.07060561
  575       -6.1202449326       0.0004522621     0.999997    0.07060561
  576       -6.1206971946      -0.0004522621     1.000000    0.07060561
  577       -6.1202449326       0.0004522621     0.999997    0.07060561
  578       -6.1206971946      -0.0004522621     1.000000    0.07060561
  579       -6.1202449326       0.0004522621     0.999997    0.07060561
  580       -6.1206971946      -0.0004522621     1.000000    0.07060561
  581       -6.1202449326       0.0004522621     0.999997    0.07060561
  582       -6.1206971946      -0.0004522621     1.000000    0.07060561
  583       -6.1202449326       0.0004522621     0.999997    0.07060561
  584       -6.1206971946      -0.0004522621     1.000000    0.07060561
  585       -6.1202449326       0.0004522621     0.999997    0.07060561
  586       -6.1206971946      -0.0004522621     1.000000    0.07060561
  587       -6.1202449326       0.0004522621     0.999997    0.07060561
  588       -6.1206971946      -0.0004522621     1.000000    0.07060561
  589       -6.1202449326       0.0004522621     0.999997    0.07060561
  590       -6.1206971946      -0.0004522621     1.000000    0.07060561
  591       -6.1202449326       0.0004522621     0.999997    0.07060561
  592       -6.1206971946      -0.0004522621     1.000000    0.07060561
  593       -6.1202449326       0.0004522621     0.999997    0.07060561
  594       -6.1206971946      -0.0004522621     1.000000    0.07060561
  595       -6.1202449326       0.0004522621     0.999997    0.07060561
  596       -6.1206971946      -0.0004522621     1.000000    0.07060561
  597       -6.1202449326       0.0004522621     0.999997    0.07060561
  598       -6.1206971946      -0.0004522621     1.000000    0.07060561
  599       -6.1202449326       0.0004522621     0.999997    0.07060561
  600       -6.1206971946      -0.0004522621     1.000000    0.07060561
  601       -6.1202449326       0.0004522621     0.999997    0.07060561
  602       -6.1206971946      -0.0004522621     1.000000    0.07060561
  603       -6.1202449326       0.0004522621     0.999997    0.07060561
  604       -6.1206971946      -0.0004522621     1.000000    0.07060561
  605       -6.1202449326       0.0004522621     0.999997    0.07060561
  606       -6.1206971946      -0.0004522621     1.000000    0.07060561
  607       -6.1202449326       0.0004522621     0.999997    0.07060561
  608       -6.1206971946      -0.0004522621     1.000000    0.07060561
  609       -6.1202449326       0.0004522621     0.999997    0.07060561
  610       -6.1206971946      -0.0004522621     1.000000    0.07060561
  611       -6.1202449326       0.0004522621     0.999997    0.07060561
  612       -6.1206971946      -0.0004522621     1.000000    0.07060561
  613       -6.1202449326       0.0004522621     0.999997    0.07060561
  614       -6.1206971946      -0.0004522621     1.000000    0.07060561
  615       -6.1202449326       0.0004522621     0.999997    0.07060561
  616       -6.1206971946      -0.0004522621     1.000000    0.07060561
  617       -6.1202449326       0.0004522621     0.999997    0.07060561
  618       -6.1206971946      -0.0004522621     1.000000    0.07060561
  619       -6.1202449326       0.0004522621     0.999997    0.07060561
  620       -6.1206971946      -0.0004522621     1.000000    0.07060561
  621       -6.1202449326       0.0004522621     0.999997    0.07060561
  622       -6.1206971946      -0.0004522621     1.000000    0.07060561
  623       -6.1202449326       0.0004522621     0.999997    0.07060561
  624       -6.1206971946      -0.0004522621     1.000000    0.07060561
  625       -6.1202449326       0.0004522621     0.999997    0.07060561
  626       -6.1206971946      -0.0004522621     1.000000    0.07060561
  627       -6.1202449326       0.0004522621     0.999997    0.07060561
  628       -6.1206971946      -0.0004522621     1.000000    0.07060561
  629       -6.1202449326       0.0004522621     0.999997    0.07060561
  630       -6.1206971946      -0.0004522621     1.000000    0.07060561
  631       -6.1202449326       0.0004522621     0.999997    0.07060561
  632       -6.1206971946      -0.0004522621     1.000000    0.07060561
  633       -6.1202449326       0.0004522621     0.999997    0.07060561
  634       -6.1206971946      -0.0004522621     1.000000    0.07060561
  635       -6.1202449326       0.0004522621     0.999997    0.07060561
  636       -6.1206971946      -0.0004522621     1.000000    0.07060561
  637       -6.1202449326       0.0004522621     0.999997    0.07060561
  638       -6.1206971946      -0.0004522621     1.000000    0.07060561
  639       -6.1202449326       0.0004522621     0.999997    0.07060561
  640       -6.1206971946      -0.0004522621     1.000000    0.07060561
  641       -6.1202449326       0.0004522621     0.999997    0.07060561
  642       -6.1206971946      -0.0004522621     1.000000    0.07060561
  643       -6.1202449326       0.0004522621     0.999997    0.07060561
  644       -6.1206971946      -0.0004522621     1.000000    0.07060561
  645       -6.1202449326       0.0004522621     0.999997    0.07060561
  646       -6.1206971946      -0.0004522621     1.000000    0.07060561
  647       -6.1202449326       0.0004522621     0.999997    0.07060561
  648       -6.1206971946      -0.0004522621     1.000000    0.07060561
  649       -6.1202449326       0.0004522621     0.999997    0.07060561
  650       -6.1206971946      -0.0004522621     1.000000    0.07060561
  651       -6.1202449326       0.0004522621     0.999997    0.07060561
  652       -6.1206971946      -0.0004522621     1.000000    0.07060561
  653       -6.1202449326       0.0004522621     0.999997    0.07060561
  654       -6.1206971946      -0.0004522621     1.000000    0.07060561
  655       -6.1202449326       0.0004522621     0.999997    0.07060561
  656       -6.1206971946      -0.0004522621     1.000000    0.07060561
  657       -6.1202449326       0.0004522621     0.999997    0.07060561
  658       -6.1206971946      -0.0004522621     1.000000    0.07060561
  659       -6.1202449326       0.0004522621     0.999997    0.07060561
  660       -6.1206971946      -0.0004522621     1.000000    0.07060561
  661       -6.1202449326       0.0004522621     0.999997    0.07060561
  662       -6.1206971946      -0.0004522621     1.000000    0.07060561
  663       -6.1202449326       0.0004522621     0.999997    0.07060561
  664       -6.1206971946      -0.0004522621     1.000000    0.07060561
  665       -6.1202449326       0.0004522621     0.999997    0.07060561
  666       -6.1206971946      -0.0004522621     1.000000    0.07060561
  667       -6.1202449326       0.0004522621     0.999997    0.07060561
  668       -6.1206971946      -0.0004522621     1.000000    0.07060561
  669       -6.1202449326       0.0004522621     0.999997    0.07060561
  670       -6.1206971946      -0.0004522621     1.000000    0.07060561
  671       -6.1202449326       0.0004522621     0.999997    0.07060561
  672       -6.1206971946      -0.0004522621     1.000000    0.07060561
  673       -6.1202449326       0.0004522621     0.999997    0.07060561
  674       -6.1206971946      -0.0004522621     1.000000    0.07060561
  675       -6.1202449326       0.0004522621     0.999997    0.07060561
  676       -6.1206971946      -0.0004522621     1.000000    0.07060561
  677       -6.1202449326       0.0004522621     0.999997    0.07060561
  678       -6.1206971946      -0.0004522621     1.000000    0.07060561
  679       -6.1202449326       0.0004522621     0.999997    0.07060561
  680       -6.1206971946      -0.0004522621     1.000000    0.07060561
  681       -6.1202449326       0.0004522621     0.999997    0.07060561
  682       -6.1206971946      -0.0004522621     1.000000    0.07060561
  683       -6.1202449326       0.0004522621     0.999997    0.07060561
  684       -6.1206971946      -0.0004522621     1.000000    0.07060561
  685       -6.1202449326       0.0004522621     0.999997    0.07060561
  686       -6.1206971946      -0.0004522621     1.000000    0.07060561
  687       -6.1202449326       0.0004522621     0.999997    0.07060561
  688       -6.1206971946      -0.0004522621     1.000000    0.07060561
  689       -6.1202449326       0.0004522621     0.999997    0.07060561
  690       -6.1206971946      -0.0004522621     1.000000    0.07060561
  691       -6.1202449326       0.0004522621     0.999997    0.07060561
  692       -6.1206971946      -0.0004522621     1.000000    0.07060561
  693       -6.1202449326       0.0004522621     0.999997    0.07060561
  694       -6.1206971946      -0.0004522621     1.000000    0.07060561
  695       -6.1202449326       0.0004522621     0.999997    0.07060561
  696       -6.1206971946      -0.0004522621     1.000000    0.07060561
  697       -6.1202449326       0.0004522621     0.999997    0.07060561
  698       -6.1206971946      -0.0004522621     1.000000    0.07060561
  699       -6.1202449326       0.0004522621     0.999997    0.07060561
  700       -6.1206971946      -0.0004522621     1.000000    0.07060561
  701       -6.1202449326       0.0004522621     0.999997    0.07060561
  702       -6.1206971946      -0.0004522621     1.000000    0.07060561
  703       -6.1202449326       0.0004522621     0.999997    0.07060561
  704       -6.1206971946      -0.0004522621     1.000000    0.07060561
  705       -6.1202449326       0.0004522621     0.999997    0.07060561
  706       -6.1206971946      -0.0004522621     1.000000    0.07060561
  707       -6.1202449326       0.0004522621     0.999997    0.07060561
  708       -6.1206971946      -0.0004522621     1.000000    0.07060561
  709       -6.1202449326       0.0004522621     0.999997    0.07060561
  710       -6.1206971946      -0.0004522621     1.000000    0.07060561
  711       -6.1202449326       0.0004522621     0.999997    0.07060561
  712       -6.1206971946      -0.0004522621     1.000000    0.07060561
  713       -6.1202449326       0.0004522621     0.999997    0.07060561
  714       -6.1206971946      -0.0004522621     1.000000    0.07060561
  715       -6.1202449326       0.0004522621     0.999997    0.07060561
  716       -6.1206971946      -0.0004522621     1.000000    0.07060561
  717       -6.1202449326       0.0004522621     0.999997    0.07060561
  718       -6.1206971946      -0.0004522621     1.000000    0.07060561
  719       -6.1202449326       0.0004522621     0.999997    0.07060561
  720       -6.1206971946      -0.0004522621     1.000000    0.07060561
  721       -6.1202449326       0.0004522621     0.999997    0.07060561
  722       -6.1206971946      -0.0004522621     1.000000    0.07060561
  723       -6.1202449326       0.0004522621     0.999997    0.07060561
  724       -6.1206971946      -0.0004522621     1.000000    0.07060561
  725       -6.1202449326       0.0004522621     0.999997    0.07060561
  726       -6.1206971946      -0.0004522621     1.000000    0.07060561
  727       -6.1202449326       0.0004522621     0.999997    0.07060561
  728       -6.1206971946      -0.0004522621     1.000000    0.07060561
  729       -6.1202449326       0.0004522621     0.999997    0.07060561
  730       -6.1206971946      -0.0004522621     1.000000    0.07060561
  731       -6.1202449326       0.0004522621     0.999997    0.07060561
  732       -6.1206971946      -0.0004522621     1.000000    0.07060561
  733       -6.1202449326       0.0004522621     0.999997    0.07060561
  734       -6.1206971946      -0.0004522621     1.000000    0.07060561
  735       -6.1202449326       0.0004522621     0.999997    0.07060561
  736       -6.1206971946      -0.0004522621     1.000000    0.07060561
  737       -6.1202449326       0.0004522621     0.999997    0.07060561
  738       -6.1206971946      -0.0004522621     1.000000    0.07060561
  739       -6.1202449326       0.0004522621     0.999997    0.07060561
  740       -6.1206971946      -0.0004522621     1.000000    0.07060561
  741       -6.1202449326       0.0004522621     0.999997    0.07060561
  742       -6.1206971946      -0.0004522621     1.000000    0.07060561
  743       -6.1202449326       0.0004522621     0.999997    0.07060561
  744       -6.1206971946      -0.0004522621     1.000000    0.07060561
  745       -6.1202449326       0.0004522621     0.999997    0.07060561
  746       -6.1206971946      -0.0004522621     1.000000    0.07060561
  747       -6.1202449326       0.0004522621     0.999997    0.07060561
  748       -6.1206971946      -0.0004522621     1.000000    0.07060561
  749       -6.1202449326       0.0004522621     0.999997    0.07060561
  750       -6.1206971946      -0.0004522621     1.000000    0.07060561
  751       -6.1202449326       0.0004522621     0.999997    0.07060561
  752       -6.1206971946      -0.0004522621     1.000000    0.07060561
  753       -6.1202449326       0.0004522621     0.999997    0.07060561
  754       -6.1206971946      -0.0004522621     1.000000    0.07060561
  755       -6.1202449326       0.0004522621     0.999997    0.07060561
  756       -6.1206971946      -0.0004522621     1.000000    0.07060561
  757       -6.1202449326       0.0004522621     0.999997    0.07060561
  758       -6.1206971946      -0.0004522621     1.000000    0.07060561
  759       -6.1202449326       0.0004522621     0.999997    0.07060561
  760       -6.1206971946      -0.0004522621     1.000000    0.07060561
  761       -6.1202449326       0.0004522621     0.999997    0.07060561
  762       -6.1206971946      -0.0004522621     1.000000    0.07060561
  763       -6.1202449326       0.0004522621     0.999997    0.07060561
  764       -6.1206971946      -0.0004522621     1.000000    0.07060561
  765       -6.1202449326       0.0004522621     0.999997    0.07060561
  766       -6.1206971946      -0.0004522621     1.000000    0.07060561
  767       -6.1202449326       0.0004522621     0.999997    0.07060561
  768       -6.1206971946      -0.0004522621     1.000000    0.07060561
  769       -6.1202449326       0.0004522621     0.999997    0.07060561
  770       -6.1206971946      -0.0004522621     1.000000    0.07060561
  771       -6.1202449326       0.0004522621     0.999997    0.07060561
  772       -6.1206971946      -0.0004522621     1.000000    0.07060561
  773       -6.1202449326       0.0004522621     0.999997    0.07060561
  774       -6.1206971946      -0.0004522621     1.000000    0.07060561
  775       -6.1202449326       0.0004522621     0.999997    0.07060561
  776       -6.1206971946      -0.0004522621     1.000000    0.07060561
  777       -6.1202449326       0.0004522621     0.999997    0.07060561
  778       -6.1206971946      -0.0004522621     1.000000    0.07060561
  779       -6.1202449326       0.0004522621     0.999997    0.07060561
  780       -6.1206971946      -0.0004522621     1.000000    0.07060561
  781       -6.1202449326       0.0004522621     0.999997    0.07060561
  782       -6.1206971946      -0.0004522621     1.000000    0.07060561
  783       -6.1202449326       0.0004522621     0.999997    0.07060561
  784       -6.1206971946      -0.0004522621     1.000000    0.07060561
  785       -6.1202449326       0.0004522621     0.999997    0.07060561
  786       -6.1206971946      -0.0004522621     1.000000    0.07060561
  787       -6.1202449326       0.0004522621     0.999997    0.07060561
  788       -6.1206971946      -0.0004522621     1.000000    0.07060561
  789       -6.1202449326       0.0004522621     0.999997    0.07060561
  790       -6.1206971946      -0.0004522621     1.000000    0.07060561
  791       -6.1202449326       0.0004522621     0.999997    0.07060561
  792       -6.1206971946      -0.0004522621     1.000000    0.07060561
  793       -6.1202449326       0.0004522621     0.999997    0.07060561
  794       -6.1206971946      -0.0004522621     1.000000    0.07060561
  795       -6.1202449326       0.0004522621     0.999997    0.07060561
  796       -6.1206971946      -0.0004522621     1.000000    0.07060561
  797       -6.1202449326       0.0004522621     0.999997    0.07060561
  798       -6.1206971946      -0.0004522621     1.000000    0.07060561
  799       -6.1202449326       0.0004522621     0.999997    0.07060561
  800       -6.1206971946      -0.0004522621     1.000000    0.07060561
  801       -6.1202449326       0.0004522621     0.999997    0.07060561
  802       -6.1206971946      -0.0004522621     1.000000    0.07060561
  803       -6.1202449326       0.0004522621     0.999997    0.07060561
  804       -6.1206971946      -0.0004522621     1.000000    0.07060561
  805       -6.1202449326       0.0004522621     0.999997    0.07060561
  806       -6.1206971946      -0.0004522621     1.000000    0.07060561
  807       -6.1202449326       0.0004522621     0.999997    0.07060561
  808       -6.1206971946      -0.0004522621     1.000000    0.07060561
  809       -6.1202449326       0.0004522621     0.999997    0.07060561
  810       -6.1206971946      -0.0004522621     1.000000    0.07060561
  811       -6.1202449326       0.0004522621     0.999997    0.07060561
  812       -6.1206971946      -0.0004522621     1.000000    0.07060561
  813       -6.1202449326       0.0004522621     0.999997    0.07060561
  814       -6.1206971946      -0.0004522621     1.000000    0.07060561
  815       -6.1202449326       0.0004522621     0.999997    0.07060561
  816       -6.1206971946      -0.0004522621     1.000000    0.07060561
  817       -6.1202449326       0.0004522621     0.999997    0.07060561
  818       -6.1206971946      -0.0004522621     1.000000    0.07060561
  819       -6.1202449326       0.0004522621     0.999997    0.07060561
  820       -6.1206971946      -0.0004522621     1.000000    0.07060561
  821       -6.1202449326       0.0004522621     0.999997    0.07060561
  822       -6.1206971946      -0.0004522621     1.000000    0.07060561
  823       -6.1202449326       0.0004522621     0.999997    0.07060561
  824       -6.1206971946      -0.0004522621     1.000000    0.07060561
  825       -6.1202449326       0.0004522621     0.999997    0.07060561
  826       -6.1206971946      -0.0004522621     1.000000    0.07060561
  827       -6.1202449326       0.0004522621     0.999997    0.07060561
  828       -6.1206971946      -0.0004522621     1.000000    0.07060561
  829       -6.1202449326       0.0004522621     0.999997    0.07060561
  830       -6.1206971946      -0.0004522621     1.000000    0.07060561
  831       -6.1202449326       0.0004522621     0.999997    0.07060561
  832       -6.1206971946      -0.0004522621     1.000000    0.07060561
  833       -6.1202449326       0.0004522621     0.999997    0.07060561
  834       -6.1206971946      -0.0004522621     1.000000    0.07060561
  835       -6.1202449326       0.0004522621     0.999997    0.07060561
  836       -6.1206971946      -0.0004522621     1.000000    0.07060561
  837       -6.1202449326       0.0004522621     0.999997    0.07060561
  838       -6.1206971946      -0.0004522621     1.000000    0.07060561
  839       -6.1202449326       0.0004522621     0.999997    0.07060561
  840       -6.1206971946      -0.0004522621     1.000000    0.07060561
  841       -6.1202449326       0.0004522621     0.999997    0.07060561
  842       -6.1206971946      -0.0004522621     1.000000    0.07060561
  843       -6.1202449326       0.0004522621     0.999997    0.07060561
  844       -6.1206971946      -0.0004522621     1.000000    0.07060561
  845       -6.1202449326       0.0004522621     0.999997    0.07060561
  846       -6.1206971946      -0.0004522621     1.000000    0.07060561
  847       -6.1202449326       0.0004522621     0.999997    0.07060561
  848       -6.1206971946      -0.0004522621     1.000000    0.07060561
  849       -6.1202449326       0.0004522621     0.999997    0.07060561
  850       -6.1206971946      -0.0004522621     1.000000    0.07060561
  851       -6.1202449326       0.0004522621     0.999997    0.07060561
  852       -6.1206971946      -0.0004522621     1.000000    0.07060561
  853       -6.1202449326       0.0004522621     0.999997    0.07060561
  854       -6.1206971946      -0.0004522621     1.000000    0.07060561
  855       -6.1202449326       0.0004522621     0.999997    0.07060561
  856       -6.1206971946      -0.0004522621     1.000000    0.07060561
  857       -6.1202449326       0.0004522621     0.999997    0.07060561
  858       -6.1206971946      -0.0004522621     1.000000    0.07060561
  859       -6.1202449326       0.0004522621     0.999997    0.07060561
  860       -6.1206971946      -0.0004522621     1.000000    0.07060561
  861       -6.1202449326       0.0004522621     0.999997    0.07060561
  862       -6.1206971946      -0.0004522621     1.000000    0.07060561
  863       -6.1202449326       0.0004522621     0.999997    0.07060561
  864       -6.1206971946      -0.0004522621     1.000000    0.07060561
  865       -6.1202449326       0.0004522621     0.999997    0.07060561
  866       -6.1206971946      -0.0004522621     1.000000    0.07060561
  867       -6.1202449326       0.0004522621     0.999997    0.07060561
  868       -6.1206971946      -0.0004522621     1.000000    0.07060561
  869       -6.1202449326       0.0004522621     0.999997    0.07060561
  870       -6.1206971946      -0.0004522621     1.000000    0.07060561
  871       -6.1202449326       0.0004522621     0.999997    0.07060561
  872       -6.1206971946      -0.0004522621     1.000000    0.07060561
  873       -6.1202449326       0.0004522621     0.999997    0.07060561
  874       -6.1206971946      -0.0004522621     1.000000    0.07060561
  875       -6.1202449326       0.0004522621     0.999997    0.07060561
  876       -6.1206971946      -0.0004522621     1.000000    0.07060561
  877       -6.1202449326       0.0004522621     0.999997    0.07060561
  878       -6.1206971946      -0.0004522621     1.000000    0.07060561
  879       -6.1202449326       0.0004522621     0.999997    0.07060561
  880       -6.1206971946      -0.0004522621     1.000000    0.07060561
  881       -6.1202449326       0.0004522621     0.999997    0.07060561
  882       -6.1206971946      -0.0004522621     1.000000    0.07060561
  883       -6.1202449326       0.0004522621     0.999997    0.07060561
  884       -6.1206971946      -0.0004522621     1.000000    0.07060561
  885       -6.1202449326       0.0004522621     0.999997    0.07060561
  886       -6.1206971946      -0.0004522621     1.000000    0.07060561
  887       -6.1202449326       0.0004522621     0.999997    0.07060561
  888       -6.1206971946      -0.0004522621     1.000000    0.07060561
  889       -6.1202449326       0.0004522621     0.999997    0.07060561
  890       -6.1206971946      -0.0004522621     1.000000    0.07060561
  891       -6.1202449326       0.0004522621     0.999997    0.07060561
  892       -6.1206971946      -0.0004522621     1.000000    0.07060561
  893       -6.1202449326       0.0004522621     0.999997    0.07060561
  894       -6.1206971946      -0.0004522621     1.000000    0.07060561
  895       -6.1202449326       0.0004522621     0.999997    0.07060561
  896       -6.1206971946      -0.0004522621     1.000000    0.07060561
  897       -6.1202449326       0.0004522621     0.999997    0.07060561
  898       -6.1206971946      -0.0004522621     1.000000    0.07060561
  899       -6.1202449326       0.0004522621     0.999997    0.07060561
  900       -6.1206971946      -0.0004522621     1.000000    0.07060561
  901       -6.1202449326       0.0004522621     0.999997    0.07060561
  902       -6.1206971946      -0.0004522621     1.000000    0.07060561
  903       -6.1202449326       0.0004522621     0.999997    0.07060561
  904       -6.1206971946      -0.0004522621     1.000000    0.07060561
  905       -6.1202449326       0.0004522621     0.999997    0.07060561
  906       -6.1206971946      -0.0004522621     1.000000    0.07060561
  907       -6.1202449326       0.0004522621     0.999997    0.07060561
  908       -6.1206971946      -0.0004522621     1.000000    0.07060561
  909       -6.1202449326       0.0004522621     0.999997    0.07060561
  910       -6.1206971946      -0.0004522621     1.000000    0.07060561
  911       -6.1202449326       0.0004522621     0.999997    0.07060561
  912       -6.1206971946      -0.0004522621     1.000000    0.07060561
  913       -6.1202449326       0.0004522621     0.999997    0.07060561
  914       -6.1206971946      -0.0004522621     1.000000    0.07060561
  915       -6.1202449326       0.0004522621     0.999997    0.07060561
  916       -6.1206971946      -0.0004522621     1.000000    0.07060561
  917       -6.1202449326       0.0004522621     0.999997    0.07060561
  918       -6.1206971946      -0.0004522621     1.000000    0.07060561
  919       -6.1202449326       0.0004522621     0.999997    0.07060561
  920       -6.1206971946      -0.0004522621     1.000000    0.07060561
  921       -6.1202449326       0.0004522621     0.999997    0.07060561
  922       -6.1206971946      -0.0004522621     1.000000    0.07060561
  923       -6.1202449326       0.0004522621     0.999997    0.07060561
  924       -6.1206971946      -0.0004522621     1.000000    0.07060561
  925       -6.1202449326       0.0004522621     0.999997    0.07060561
  926       -6.1206971946      -0.0004522621     1.000000    0.07060561
  927       -6.1202449326       0.0004522621     0.999997    0.07060561
  928       -6.1206971946      -0.0004522621     1.000000    0.07060561
  929       -6.1202449326       0.0004522621     0.999997    0.07060561
  930       -6.1206971946      -0.0004522621     1.000000    0.07060561
  931       -6.1202449326       0.0004522621     0.999997    0.07060561
  932       -6.1206971946      -0.0004522621     1.000000    0.07060561
  933       -6.1202449326       0.0004522621     0.999997    0.07060561
  934       -6.1206971946      -0.0004522621     1.000000    0.07060561
  935       -6.1202449326       0.0004522621     0.999997    0.07060561
  936       -6.1206971946      -0.0004522621     1.000000    0.07060561
  937       -6.1202449326       0.0004522621     0.999997    0.07060561
  938       -6.1206971946      -0.0004522621     1.000000    0.07060561
  939       -6.1202449326       0.0004522621     0.999997    0.07060561
  940       -6.1206971946      -0.0004522621     1.000000    0.07060561
  941       -6.1202449326       0.0004522621     0.999997    0.07060561
  942       -6.1206971946      -0.0004522621     1.000000    0.07060561
  943       -6.1202449326       0.0004522621     0.999997    0.07060561
  944       -6.1206971946      -0.0004522621     1.000000    0.07060561
  945       -6.1202449326       0.0004522621     0.999997    0.07060561
  946       -6.1206971946      -0.0004522621     1.000000    0.07060561
  947       -6.1202449326       0.0004522621     0.999997    0.07060561
  948       -6.1206971946      -0.0004522621     1.000000    0.07060561
  949       -6.1202449326       0.0004522621     0.999997    0.07060561
  950       -6.1206971946      -0.0004522621     1.000000    0.07060561
  951       -6.1202449326       0.0004522621     0.999997    0.07060561
  952       -6.1206971946      -0.0004522621     1.000000    0.07060561
  953       -6.1202449326       0.0004522621     0.999997    0.07060561
  954       -6.1206971946      -0.0004522621     1.000000    0.07060561
  955       -6.1202449326       0.0004522621     0.999997    0.07060561
  956       -6.1206971946      -0.0004522621     1.000000    0.07060561
  957       -6.1202449326       0.0004522621     0.999997    0.07060561
  958       -6.1206971946      -0.0004522621     1.000000    0.07060561
  959       -6.1202449326       0.0004522621     0.999997    0.07060561
  960       -6.1206971946      -0.0004522621     1.000000    0.07060561
  961       -6.1202449326       0.0004522621     0.999997    0.07060561
  962       -6.1206971946      -0.0004522621     1.000000    0.07060561
  963       -6.1202449326       0.0004522621     0.999997    0.07060561
  964       -6.1206971946      -0.0004522621     1.000000    0.07060561
  965       -6.1202449326       0.0004522621     0.999997    0.07060561
  966       -6.1206971946      -0.0004522621     1.000000    0.07060561
  967       -6.1202449326       0.0004522621     0.999997    0.07060561
  968       -6.1206971946      -0.0004522621     1.000000    0.07060561
  969       -6.1202449326       0.0004522621     0.999997    0.07060561
  970       -6.1206971946      -0.0004522621     1.000000    0.07060561
  971       -6.1202449326       0.0004522621     0.999997    0.07060561
  972       -6.1206971946      -0.0004522621     1.000000    0.07060561
  973       -6.1202449326       0.0004522621     0.999997    0.07060561
  974       -6.1206971946      -0.0004522621     1.000000    0.07060561
  975       -6.1202449326       0.0004522621     0.999997    0.07060561
  976       -6.1206971946      -0.0004522621     1.000000    0.07060561
  977       -6.1202449326       0.0004522621     0.999997    0.07060561
  978       -6.1206971946      -0.0004522621     1.000000    0.07060561
  979       -6.1202449326       0.0004522621     0.999997    0.07060561
  980       -6.1206971946      -0.0004522621     1.000000    0.07060561
  981       -6.1202449326       0.0004522621     0.999997    0.07060561
  982       -6.1206971946      -0.0004522621     1.000000    0.07060561
  983       -6.1202449326       0.0004522621     0.999997    0.07060561
  984       -6.1206971946      -0.0004522621     1.000000    0.07060561
  985       -6.1202449326       0.0004522621     0.999997    0.07060561
  986       -6.1206971946      -0.0004522621     1.000000    0.07060561
  987       -6.1202449326       0.0004522621     0.999997    0.07060561
  988       -6.1206971946      -0.0004522621     1.000000    0.07060561
  989       -6.1202449326       0.0004522621     0.999997    0.07060561
  990       -6.1206971946      -0.0004522621     1.000000    0.07060561
  991       -6.1202449326       0.0004522621     0.999997    0.07060561
  992       -6.1206971946      -0.0004522621     1.000000    0.07060561
  993       -6.1202449326       0.0004522621     0.999997    0.07060561
  994       -6.1206971946      -0.0004522621     1.000000    0.07060561
  995       -6.1202449326       0.0004522621     0.999997    0.07060561
  996       -6.1206971946      -0.0004522621     1.000000    0.07060561
  997       -6.1202449326       0.0004522621     0.999997    0.07060561
  998       -6.1206971946      -0.0004522621     1.000000    0.07060561
  999       -6.1202449326       0.0004522621     0.999997    0.07060561
 1000       -6.1206971946      -0.0004522621     1.000000    0.07060561

Total Energy:                       -6.1206971946 H         -166.5526 eV
Extrapolated to 0:                  -6.1609434585 H         -167.6478 eV

----------------------------------------------------------------------------------
 Solving CP-REKS equation for  1 state vector...
----------------------------------------------------------------------------------
  CG solver: Constructing Y initial guess
  CG solver: Iteration    1    eps =    0.075329840330
  CG solver: Iteration    2    eps =    0.006066005820
  CG solver: Iteration    3    eps =    0.000614959646
  CG solver: Iteration    4    eps =    0.000017345236
  CG solver: Iteration    5    eps =    0.000001706474
  CG solver: Iteration    6    eps =    0.000000220807
  CG solver: Iteration    7    eps =    0.000000151299
  CG solver: Iteration    8    eps =    0.000000029981
  CG solver: Iteration    9    eps =    0.000000002956
  Convergence reached in CG solver after    9 iterations
  CG solver: Calculating converged R, Z, Q2 matrix
----------------------------------------------------------------------------------

----------------------------------------------------------------------------------
 Solving CP-REKS equation for SI between  1 and  2 state vectors...
----------------------------------------------------------------------------------
  CG solver: Constructing Y initial guess
  CG solver: Iteration    1    eps =    0.006210292837
  CG solver: Iteration    2    eps =    0.002551672675
  CG solver: Iteration    3    eps =    0.000317600340
  CG solver: Iteration    4    eps =    0.000072574401
  CG solver: Iteration    5    eps =    0.000020596900
  CG solver: Iteration    6    eps =    0.000004262750
  CG solver: Iteration    7    eps =    0.000001597436
  CG solver: Iteration    8    eps =    0.000000091201
  CG solver: Iteration    9    eps =    0.000000004410
  Convergence reached in CG solver after    9 iterations
  CG solver: Calculating converged R, Z, Q2 matrix
----------------------------------------------------------------------------------

--------------------------------------------------
 Gradient Information
--------------------------------------------------
           1 st state (SSR)
     0.00000000     0.00000000     0.00000000
     0.00000000     0.00000000     0.00000000
     0.00000000     0.00000000     0.00000000
     0.00000000     0.00000000     0.00000000
     0.00000000     0.00000000     0.00000000
     0.00000000     0.00000000     0.00000000

           2 st state (SSR)
     0.00000000     0.00000000     0.00000000
     0.00000000     0.00000000     0.00000000
     0.00000000     0.00000000     0.00000000
     0.00000000     0.00000000     0.00000000
     0.00000000     0.00000000     0.00000000
     0.00000000     0.00000000     0.00000000
--------------------------------------------------
 Coupling Information
--------------------------------------------------
 between  1 and  2 states
--------------------------------------------------
 g vector - difference gradient
    -0.13180075     0.24377836     0.43740393
    -0.08096161     0.32475784     0.18463898
    -0.05371255    -0.19070598    -0.04872553
     0.35704172    -0.07722022    -0.51012816
    -0.19886607    -0.13104585     0.02036868
     0.10829925    -0.16956414    -0.08355790

 h vector - derivative coupling
    -0.00796988    -0.01099737    -0.01465445
     0.03576909     0.02016847     0.01085538
    -0.00297945     0.01459482    -0.00360807
    -0.01447018     0.00214224    -0.00273022
    -0.01268329    -0.01567722     0.01194576
     0.00233371    -0.01023095    -0.00180840

 G vector - GDV
     0.00000000     0.00000000     0.00000000
     0.00000000     0.00000000     0.00000000
     0.00000000     0.00000000     0.00000000
     0.00000000     0.00000000     0.00000000
     0.00000000     0.00000000     0.00000000
     0.00000000     0.00000000     0.00000000

 H vector - DCV - non-adiabatic coupling
    -0.00000000    -0.00000000    -0.00000000
    -0.00000000    -0.00000000    -0.00000000
    -0.00000000    -0.00000000    -0.00000000
    -0.00000000    -0.00000000    -0.00000000
    -0.00000000    -0.00000000    -0.00000000
    -0.00000000    -0.00000000    -0.00000000
--------------------------------------------------

WARNING!
-> SCC is NOT converged, maximal SCC iterations exceeded

--------------------------------------------------------------------------------
DFTB+ running times                          cpu [s]             wall clock [s]
--------------------------------------------------------------------------------
SCC                                    +     0.43  ( 97.1%)      0.43  ( 96.4%)
      Sparse to dense                        0.02  (  4.6%)      0.02  (  4.3%)
      Dense to sparse                        0.07  ( 15.1%)      0.06  ( 13.7%)
      Range separated Hamiltonian            0.03  (  6.3%)      0.02  (  5.2%)
  Density matrix creation                    0.05  ( 11.9%)      0.06  ( 13.2%)
  Force calculation                          0.01  (  2.6%)      0.01  (  2.5%)
--------------------------------------------------------------------------------
Missing                                +     0.01  (  2.9%)      0.02  (  3.6%)
Total                                  =     0.44  (100.0%)      0.45  (100.0%)
--------------------------------------------------------------------------------
