 Fermi distribution function

Calculation with static geometry


********************************************************************************
 iSCC Total electronic   Diff electronic      SCC error    
   13   -0.53393034E+01   -0.37365666E-10    0.19272749E-07
********************************************************************************

 Total charge:     1.00000000

 Atomic gross charges (e)
 Atom           Charge
    1       0.31294098
    2      -0.21922295
    3       0.16745295
    4       0.29242468
    5       0.28143292
    6       0.16497142

Nr. of electrons (up):     12.00000000
Atom populations (up)
 Atom       Population
    1       3.68705902
    2       5.21922295
    3       0.83254705
    4       0.70757532
    5       0.71856708
    6       0.83502858

l-shell populations (up)
 Atom Sh.   l       Population
    1   1   0       1.34915719
    1   2   1       2.33790183
    2   1   0       1.44796877
    2   2   1       3.77125417
    3   1   0       0.83254705
    4   1   0       0.70757532
    5   1   0       0.71856708
    6   1   0       0.83502858

Orbital populations (up)
 Atom Sh.   l   m       Population  Label
    1   1   0   0       1.34915719  s
    1   2   1  -1       0.50920993  p_y
    1   2   1   0       0.86793845  p_z
    1   2   1   1       0.96075344  p_x
    2   1   0   0       1.44796877  s
    2   2   1  -1       1.36068141  p_y
    2   2   1   0       1.05717494  p_z
    2   2   1   1       1.35339783  p_x
    3   1   0   0       0.83254705  s
    4   1   0   0       0.70757532  s
    5   1   0   0       0.71856708  s
    6   1   0   0       0.83502858  s

Fermi level:                        -0.4903191383 H          -13.3423 eV
Band energy:                        -8.7203116522 H         -237.2918 eV
TS:                                  0.0000000000 H            0.0000 eV
Band free energy (E-TS):            -8.7203116522 H         -237.2918 eV
Extrapolated E(0K):                 -8.7203116522 H         -237.2918 eV
Input / Output electrons (q):     12.0000000000     12.0000000000

Energy H0:                          -5.4705436752 H         -148.8611 eV
Energy SCC:                          0.1312403105 H            3.5712 eV
Total Electronic energy:            -5.3393033648 H         -145.2898 eV
Repulsive energy:                    0.1555955452 H            4.2340 eV
Total energy:                       -5.1837078196 H         -141.0559 eV
Extrapolated to 0:                  -5.1837078196 H         -141.0559 eV
Total Mermin free energy:           -5.1837078196 H         -141.0559 eV
Force related energy:               -5.1837078196 H         -141.0559 eV

SCC converged

Excitation Energy:                   0.0996943149 H            2.7128 eV

Total Forces
    1      0.000104464017     -0.000443121778      0.088650622760
    2      0.009483439700     -0.003295859688     -0.085122849594
    3     -0.009470105181      0.012799704461      0.004731785748
    4     -0.021147690979     -0.004845081137     -0.005702652675
    5      0.013650883190      0.010931316838     -0.003610830832
    6      0.007379009253     -0.015146958696      0.001053924591

Maximal derivative component:        0.886506E-01 au


