 Fermi distribution function

Calculation with static geometry


********************************************************************************
 iSCC Total electronic   Diff electronic      SCC error    
   10   -0.53464101E+01   -0.13226282E-08    0.89565070E-06
********************************************************************************

 Total charge:     1.00000000

 Atomic gross charges (e)
 Atom           Charge
    1       0.25364591
    2      -0.13948631
    3       0.17794297
    4       0.26812688
    5       0.26460058
    6       0.17516998

Nr. of electrons (up):     12.00000000
Atom populations (up)
 Atom       Population
    1       3.74635409
    2       5.13948631
    3       0.82205703
    4       0.73187312
    5       0.73539942
    6       0.82483002

l-shell populations (up)
 Atom Sh.   l       Population
    1   1   0       1.37150472
    1   2   1       2.37484937
    2   1   0       1.48122424
    2   2   1       3.65826208
    3   1   0       0.82205703
    4   1   0       0.73187312
    5   1   0       0.73539942
    6   1   0       0.82483002

Orbital populations (up)
 Atom Sh.   l   m       Population  Label
    1   1   0   0       1.37150472  s
    1   2   1  -1       0.49465287  p_y
    1   2   1   0       0.86577266  p_z
    1   2   1   1       1.01442384  p_x
    2   1   0   0       1.48122424  s
    2   2   1  -1       1.37958695  p_y
    2   2   1   0       1.12325386  p_z
    2   2   1   1       1.15542127  p_x
    3   1   0   0       0.82205703  s
    4   1   0   0       0.73187312  s
    5   1   0   0       0.73539942  s
    6   1   0   0       0.82483002  s

Fermi level:                        -0.5161490874 H          -14.0451 eV
Band energy:                        -8.8038838877 H         -239.5659 eV
TS:                                  0.0000000000 H            0.0000 eV
Band free energy (E-TS):            -8.8038838877 H         -239.5659 eV
Extrapolated E(0K):                 -8.8038838877 H         -239.5659 eV
Input / Output electrons (q):     12.0000000000     12.0000000000

Energy H0:                          -5.4809190973 H         -149.1434 eV
Energy SCC:                          0.1345090120 H            3.6602 eV
Total Electronic energy:            -5.3464100853 H         -145.4832 eV
Repulsive energy:                    0.1589364878 H            4.3249 eV
Total energy:                       -5.1874735975 H         -141.1583 eV
Extrapolated to 0:                  -5.1874735975 H         -141.1583 eV
Total Mermin free energy:           -5.1874735975 H         -141.1583 eV
Force related energy:               -5.1874735975 H         -141.1583 eV

SCC converged

Excitation Energy:                   0.1641053501 H            4.4655 eV

Total Forces
    1      0.019015496668      0.004548378463     -0.000178817141
    2     -0.002071770826      0.006560253979     -0.013959682919
    3     -0.008918589295      0.003749016930      0.003466292278
    4     -0.000065268326     -0.006625459108     -0.000843830407
    5     -0.005356258341     -0.001578583697      0.009597920803
    6     -0.002603609880     -0.006653606568      0.001918117386

Maximal derivative component:        0.190155E-01 au


