|===============================================================================
|
|  DFTB+ release 20.1
|
|  Copyright (C) 2006 - 2020  DFTB+ developers group
|
|===============================================================================
|
|  When publishing results obtained with DFTB+, please cite the following
|  reference:
|
|  * DFTB+, a software package for efficient approximate density functional
|    theory based atomistic simulations, J. Chem. Phys. 152, 124101 (2020).
|    [doi: 10.1063/1.5143190]
|
|  You should also cite additional publications crediting the parametrization
|  data you use. Please consult the documentation of the SK-files for the
|  references.
|
|===============================================================================

Reading input file 'dftb_in.hsd'
Parser version: 8

--------------------------------------------------------------------------------
Reading SK-files:
Done.


Processed input in HSD format written to 'dftb_pin.hsd'

Starting initialization...
--------------------------------------------------------------------------------
WARNING!
-> Excited state forces are not implemented yet for fractional occupations, kT=  0.3158E-02K
OpenMP threads:              1
Chosen random seed:          435836482
Mode:                        Static calculation
Self consistent charges:     Yes
SCC-tolerance:                 0.100000E-05
Max. scc iterations:                    100
Shell resolved Hubbard:      No
Spin polarisation:           No
Nr. of up electrons:             6.000000
Nr. of down electrons:           6.000000
Periodic boundaries:         No
Electronic solver:           Relatively robust
Mixer:                       Broyden mixer
Mixing parameter:                  0.200000
Maximal SCC-cycles:                     100
Nr. of chrg. vec. in memory:              0
Electronic temperature:        0.100000E-07 H      0.272114E-06 eV
Initial charges:             Set automatically (system chrg:   0.100E+01)
Included shells:             C:  s, p
                             N:  s, p
                             H:  s
Extra options:
                             Mulliken analysis
                             Force calculation
Force type                   original
                             Eigenvector printing

--------------------------------------------------------------------------------

***  Geometry step: 0

 iSCC Total electronic   Diff electronic      SCC error    
    1   -0.53250105E+01    0.00000000E+00    0.91724440E+00
    2   -0.53392702E+01   -0.14259764E-01    0.57341409E+00
    3   -0.53453394E+01   -0.60691149E-02    0.17766961E+00
    4   -0.53386898E+01    0.66495772E-02    0.32572889E+00
    5   -0.53464046E+01   -0.77148361E-02    0.13304845E-01
    6   -0.53464090E+01   -0.44162295E-05    0.71167980E-02
    7   -0.53464100E+01   -0.10217978E-05    0.70282669E-03
    8   -0.53464101E+01   -0.36162353E-07    0.72897616E-04
    9   -0.53464101E+01    0.80806295E-09    0.13032245E-03
   10   -0.53464101E+01   -0.13226282E-08    0.89565070E-06
>> Charges saved for restart in charges.bin

Total Energy:                       -5.0233682474 H         -136.6928 eV
Extrapolated to 0:                  -5.1874735975 H         -141.1583 eV
Total Mermin free energy:           -5.0233682474 H         -136.6928 eV
Force related energy:               -5.1874735975 H         -141.1583 eV

--------------------------------------------------------------------------------
DFTB+ running times                          cpu [s]             wall clock [s]
--------------------------------------------------------------------------------
SCC                                    +     0.01  ( 42.6%)      0.02  ( 56.4%)
Post-SCC processing                    +     0.01  ( 50.4%)      0.01  ( 38.5%)
--------------------------------------------------------------------------------
Missing                                +     0.00  (  7.0%)      0.00  (  5.1%)
Total                                  =     0.02  (100.0%)      0.04  (100.0%)
--------------------------------------------------------------------------------
