|===============================================================================
|
|  DFTB+ release 20.1
|
|  Copyright (C) 2006 - 2020  DFTB+ developers group
|
|===============================================================================
|
|  When publishing results obtained with DFTB+, please cite the following
|  reference:
|
|  * DFTB+, a software package for efficient approximate density functional
|    theory based atomistic simulations, J. Chem. Phys. 152, 124101 (2020).
|    [doi: 10.1063/1.5143190]
|
|  You should also cite additional publications crediting the parametrization
|  data you use. Please consult the documentation of the SK-files for the
|  references.
|
|===============================================================================

Reading input file 'dftb_in.hsd'
Parser version: 8

--------------------------------------------------------------------------------
Reading SK-files:
Done.


Processed input in HSD format written to 'dftb_pin.hsd'

Starting initialization...
--------------------------------------------------------------------------------
OpenMP threads:              1
Chosen random seed:          508639927
Mode:                        Static calculation
Self consistent charges:     Yes
SCC-tolerance:                 0.100000E-05
Max. scc iterations:                   1000
Shell resolved Hubbard:      No
Spin polarisation:           No
Nr. of up electrons:             6.000000
Nr. of down electrons:           6.000000
Periodic boundaries:         No
Electronic solver:           Relatively robust
Maximal SCC-cycles:                    1000
Initial charges:             Set automatically (system chrg:   0.100E+01)
Included shells:             C:  s, p
                             N:  s, p
                             H:  s
Spin coupling constants:     C   1(s)-1(s):  -0.455900E-01
                             C   1(s)-2(p):  -0.293000E-01
                             C   2(p)-1(s):  -0.293000E-01
                             C   2(p)-2(p):  -0.275500E-01
                             N   1(s)-1(s):  -0.468700E-01
                             N   1(s)-2(p):  -0.317000E-01
                             N   2(p)-1(s):  -0.317000E-01
                             N   2(p)-2(p):  -0.307200E-01
                             H   1(s)-1(s):  -0.792500E-01
Range separated hybrid:      Yes
  Screening parameter omega:   0.300000E+00
  Range separated algorithm:   MatrixBased
Extra options:
                             Mulliken analysis
                             Force calculation
Force type                   original
                             Eigenvector printing


REKS Calcuation:             Yes
SSR(2,2) Calcuation:         Yes
Energy Functional:           (PPS+OSS)/2
Number of Core Orbitals:                  5
Number of Active Orbitals:                2
Number of Basis:                         12
Number of States:                         2
State-Averaging Weight:          0.500000
                                 0.500000
State of Interest:                        1
Initial Guess:               Diagonalize H0 matrix
Newton-Raphson for FON opt:  Yes
NR max. Iterations:                      50
Level Shifting:              Yes
Shift Value:                     0.300000
W Scale Factor:              C  =    3.000000
                             N  =    3.000000
                             H  =    3.000000
Transition Dipole:           No
Gradient of Microstate:      No
CP-REKS Solver:              Preconditioned Conjugate-Gradient
CG max. Iterations:                     100
CG Tolerance:                  0.100000E-07
Memory for A and Hxc:        Direct Updating Without Saving
Non-Adiabatic Coupling:      Yes

--------------------------------------------------------------------------------

***  Geometry step: 0

  iSCC       reks energy        Diff energy         x_a       SCC error   
    1       -6.2640769658       0.0000000000     0.999759    1.19863999
    2       -6.2747796684      -0.0107027026     0.999888    0.07262697
    3       -6.2782899916      -0.0035103233     0.999933    0.02707189
    4       -6.2800247664      -0.0017347748     0.999953    0.01122963
    5       -6.2809504248      -0.0009256585     0.999963    0.00814828
    6       -6.2814534487      -0.0005030238     0.999968    0.00670837
    7       -6.2817269095      -0.0002734608     0.999971    0.00528993
    8       -6.2818749926      -0.0001480831     0.999972    0.00405186
    9       -6.2819549416      -0.0000799490     0.999973    0.00304218
   10       -6.2819980872      -0.0000431456     0.999974    0.00225285
   11       -6.2820214282      -0.0000233411     0.999974    0.00166501
   12       -6.2820341199      -0.0000126916     0.999974    0.00130866
   13       -6.2820410717      -0.0000069518     0.999975    0.00102820
   14       -6.2820449144      -0.0000038427     0.999975    0.00080785
   15       -6.2820470605      -0.0000021462     0.999975    0.00063487
   16       -6.2820482725      -0.0000012120     0.999975    0.00049908
   17       -6.2820489648      -0.0000006923     0.999975    0.00039246
   18       -6.2820493646      -0.0000003998     0.999975    0.00030873
   19       -6.2820495980      -0.0000002334     0.999975    0.00024293
   20       -6.2820497356      -0.0000001376     0.999975    0.00019122
   21       -6.2820498174      -0.0000000818     0.999975    0.00015055
   22       -6.2820498664      -0.0000000490     0.999975    0.00011857
   23       -6.2820498960      -0.0000000296     0.999975    0.00009339
   24       -6.2820499139      -0.0000000179     0.999975    0.00007358
   25       -6.2820499249      -0.0000000109     0.999975    0.00005798
   26       -6.2820499316      -0.0000000067     0.999975    0.00004570
   27       -6.2820499357      -0.0000000041     0.999975    0.00003602
   28       -6.2820499382      -0.0000000025     0.999975    0.00002840
   29       -6.2820499398      -0.0000000016     0.999975    0.00002239
   30       -6.2820499408      -0.0000000010     0.999975    0.00001765
   31       -6.2820499413      -0.0000000006     0.999975    0.00001392
   32       -6.2820499417      -0.0000000004     0.999975    0.00001101
   33       -6.2820499420      -0.0000000002     0.999975    0.00000872
   34       -6.2820499421      -0.0000000001     0.999975    0.00000690
   35       -6.2820499422      -0.0000000001     0.999975    0.00000546
   36       -6.2820499422      -0.0000000001     0.999975    0.00000432
   37       -6.2820499423      -0.0000000000     0.999975    0.00000342
   38       -6.2820499423      -0.0000000000     0.999975    0.00000270
   39       -6.2820499423      -0.0000000000     0.999975    0.00000214
   40       -6.2820499423      -0.0000000000     0.999975    0.00000169
   41       -6.2820499423      -0.0000000000     0.999975    0.00000133
   42       -6.2820499423      -0.0000000000     0.999975    0.00000105
   43       -6.2820499423      -0.0000000000     0.999975    0.00000083
  
--------------------------------------------------
 Final SA-REKS(2,2) energy:      -6.28204994
  
 State     Energy      FON(1)    FON(2)   Spin
  PPS   -6.41280344   1.999949  0.000051  0.00
  OSS   -6.15129644   1.000000  1.000000  0.00
 Trip   -6.22886840   1.000000  1.000000  1.00
--------------------------------------------------

 Lagrangian Wab:   0.00270592  0.00270584

--------------------------------------------------
 SSR: 2SI-2SA-REKS(2,2) Hamiltonian matrix
               PPS           OSS
   PPS    -6.41280344    0.00380744
   OSS     0.00380744   -6.15129644
--------------------------------------------------

----------------------------------------------------------------
 SSR: 2SI-2SA-REKS(2,2) states
                    E_n       C_{PPS}    C_{OSS}
 SSR state  1   -6.41285887  -0.999894   0.014555
 SSR state  2   -6.15124102  -0.014555  -0.999894
----------------------------------------------------------------

 unrelaxed SSR FONs for S0:  1.999737  0.000263

Total Energy:                       -6.4128588652 H         -174.5028 eV
Extrapolated to 0:                  -6.4128588652 H         -174.5028 eV

----------------------------------------------------------------------------------
 Solving CP-REKS equation for  1 state vector...
----------------------------------------------------------------------------------
  CG solver: Constructing Y initial guess
  CG solver: Iteration    1    eps =    0.000043488504
  CG solver: Iteration    2    eps =    0.000009002217
  CG solver: Iteration    3    eps =    0.000000370009
  CG solver: Iteration    4    eps =    0.000000051508
  CG solver: Iteration    5    eps =    0.000000005927
  Convergence reached in CG solver after    5 iterations
  CG solver: Calculating converged R, Z, Q2 matrix
----------------------------------------------------------------------------------

----------------------------------------------------------------------------------
 Solving CP-REKS equation for SI between  1 and  2 state vectors...
----------------------------------------------------------------------------------
  CG solver: Constructing Y initial guess
  CG solver: Iteration    1    eps =    0.000715708997
  CG solver: Iteration    2    eps =    0.000389221828
  CG solver: Iteration    3    eps =    0.000123790280
  CG solver: Iteration    4    eps =    0.000001826411
  CG solver: Iteration    5    eps =    0.000000271184
  CG solver: Iteration    6    eps =    0.000000008529
  Convergence reached in CG solver after    6 iterations
  CG solver: Calculating converged R, Z, Q2 matrix
----------------------------------------------------------------------------------

--------------------------------------------------
 Gradient Information
--------------------------------------------------
           1 st state (SSR)
    -0.01098949     0.00041840     0.04391944
     0.02681025     0.00940688    -0.05511685
    -0.00470631    -0.00095277    -0.00453121
    -0.01660374    -0.00030577     0.00455301
    -0.00238484    -0.00724408     0.00858142
     0.00787413    -0.00132266     0.00259417

           2 st state (SSR)
     0.00655575    -0.01132923     0.15495817
    -0.00859696     0.01882293    -0.18360697
     0.00161198    -0.01368746     0.01515523
     0.00937305     0.00197250    -0.00251282
    -0.00241950    -0.01088766    -0.00410808
    -0.00652432     0.01510893     0.02011447
--------------------------------------------------
 Coupling Information
--------------------------------------------------
 between  1 and  2 states
--------------------------------------------------
 g vector - difference gradient
    -0.00876172     0.00601332    -0.05560105
     0.01771442    -0.00491159     0.06429765
    -0.00337050     0.00636739    -0.00984960
    -0.01321568    -0.00099776     0.00351682
     0.00021947     0.00182731     0.00639911
     0.00741400    -0.00829867    -0.00876293

 h vector - derivative coupling
     0.00050204     0.00470528    -0.00199719
     0.00011372    -0.00692221     0.00087061
    -0.00721218    -0.00009123    -0.00007589
    -0.00761628     0.00487164    -0.00060405
     0.00694168     0.00016297     0.00177449
     0.00727101    -0.00272645     0.00003203

 G vector - GDV
    -0.00877262     0.00587381    -0.05551936
     0.01770360    -0.00470802     0.06424506
    -0.00315915     0.00636735    -0.00984322
    -0.01298839    -0.00113913     0.00353292
     0.00001733     0.00182179     0.00634475
     0.00719923    -0.00821579    -0.00876015

 H vector - DCV - non-adiabatic coupling
     0.00094337     0.01864674    -0.01381678
     0.00240537    -0.02699447     0.01047995
    -0.02793093     0.00035986    -0.00138580
    -0.03057023     0.01850229    -0.00191664
     0.02654683     0.00082596     0.00749181
     0.02860558    -0.01134038    -0.00085255
--------------------------------------------------


--------------------------------------------------------------------------------
DFTB+ running times                          cpu [s]             wall clock [s]
--------------------------------------------------------------------------------
SCC                                    +     0.02  ( 65.6%)      0.02  ( 62.2%)
Post-SCC processing                    +     0.01  ( 29.8%)      0.01  ( 27.0%)
--------------------------------------------------------------------------------
Missing                                +     0.00  (  4.6%)      0.00  ( 10.8%)
Total                                  =     0.03  (100.0%)      0.04  (100.0%)
--------------------------------------------------------------------------------
