     6
  Step:   300            Position(A)                                  Velocity(au)
C        -0.04905003     0.01143316     0.01486053     0.00000563    -0.00003668    -0.00006986
N        -0.02157683    -0.04927862     1.30332557    -0.00004584     0.00001334     0.00003228
H         0.27624029     0.91364028    -0.49166770     0.00043177     0.00018606     0.00073418
H        -0.08336005    -0.96262867     1.76739854     0.00068888    -0.00014547    -0.00028102
H        -0.16083373     0.80053278     1.85511354    -0.00011032     0.00022593    -0.00039256
H        -0.36068077    -0.87276182    -0.52736300    -0.00044034    -0.00001475     0.00032324
