|===============================================================================
|
|  DFTB+ release 20.1
|
|  Copyright (C) 2006 - 2020  DFTB+ developers group
|
|===============================================================================
|
|  When publishing results obtained with DFTB+, please cite the following
|  reference:
|
|  * DFTB+, a software package for efficient approximate density functional
|    theory based atomistic simulations, J. Chem. Phys. 152, 124101 (2020).
|    [doi: 10.1063/1.5143190]
|
|  You should also cite additional publications crediting the parametrization
|  data you use. Please consult the documentation of the SK-files for the
|  references.
|
|===============================================================================

Reading input file 'dftb_in.hsd'
Parser version: 8

--------------------------------------------------------------------------------
Reading SK-files:
Done.


Processed input in HSD format written to 'dftb_pin.hsd'

Starting initialization...
--------------------------------------------------------------------------------
OpenMP threads:              1
Chosen random seed:          452094602
Mode:                        Static calculation
Self consistent charges:     Yes
SCC-tolerance:                 0.100000E-05
Max. scc iterations:                   1000
Shell resolved Hubbard:      No
Spin polarisation:           No
Nr. of up electrons:             6.000000
Nr. of down electrons:           6.000000
Periodic boundaries:         No
Electronic solver:           Relatively robust
Maximal SCC-cycles:                    1000
Initial charges:             Set automatically (system chrg:   0.100E+01)
Included shells:             C:  s, p
                             N:  s, p
                             H:  s
Spin coupling constants:     C   1(s)-1(s):  -0.455900E-01
                             C   1(s)-2(p):  -0.293000E-01
                             C   2(p)-1(s):  -0.293000E-01
                             C   2(p)-2(p):  -0.275500E-01
                             N   1(s)-1(s):  -0.468700E-01
                             N   1(s)-2(p):  -0.317000E-01
                             N   2(p)-1(s):  -0.317000E-01
                             N   2(p)-2(p):  -0.307200E-01
                             H   1(s)-1(s):  -0.792500E-01
Range separated hybrid:      Yes
  Screening parameter omega:   0.300000E+00
  Range separated algorithm:   MatrixBased
Extra options:
                             Mulliken analysis
                             Force calculation
Force type                   original
                             Eigenvector printing


REKS Calcuation:             Yes
SSR(2,2) Calcuation:         Yes
Energy Functional:           (PPS+OSS)/2
Number of Core Orbitals:                  5
Number of Active Orbitals:                2
Number of Basis:                         12
Number of States:                         2
State-Averaging Weight:          0.500000
                                 0.500000
State of Interest:                        1
Initial Guess:               Diagonalize H0 matrix
Newton-Raphson for FON opt:  Yes
NR max. Iterations:                      50
Level Shifting:              Yes
Shift Value:                     0.300000
W Scale Factor:              C  =    3.200000
                             N  =    3.200000
                             H  =    3.200000
Transition Dipole:           No
Gradient of Microstate:      No
CP-REKS Solver:              Preconditioned Conjugate-Gradient
CG max. Iterations:                     100
CG Tolerance:                  0.100000E-07
Memory for A and Hxc:        Direct Updating Without Saving
Non-Adiabatic Coupling:      Yes

--------------------------------------------------------------------------------

***  Geometry step: 0

  iSCC       reks energy        Diff energy         x_a       SCC error   
    1       -6.1812882050       0.0000000000     0.999372    1.21670106
    2       -6.1909083667      -0.0096201617     0.999685    0.05226579
    3       -6.1928399677      -0.0019316010     0.999792    0.01540205
    4       -6.1933601866      -0.0005202189     0.999835    0.00724791
    5       -6.1935092023      -0.0001490157     0.999855    0.00394333
    6       -6.1935543941      -0.0000451918     0.999865    0.00214807
    7       -6.1935689546      -0.0000145604     0.999870    0.00117905
    8       -6.1935739606      -0.0000050060     0.999872    0.00067932
    9       -6.1935758098      -0.0000018492     0.999874    0.00042862
   10       -6.1935765501      -0.0000007403     0.999875    0.00027411
   11       -6.1935768738      -0.0000003237     0.999875    0.00018934
   12       -6.1935770287      -0.0000001549     0.999875    0.00015814
   13       -6.1935771094      -0.0000000806     0.999875    0.00013051
   14       -6.1935771544      -0.0000000451     0.999875    0.00010688
   15       -6.1935771810      -0.0000000266     0.999875    0.00008709
   16       -6.1935771973      -0.0000000163     0.999876    0.00007073
   17       -6.1935772075      -0.0000000102     0.999876    0.00005733
   18       -6.1935772141      -0.0000000066     0.999876    0.00004642
   19       -6.1935772183      -0.0000000042     0.999876    0.00003756
   20       -6.1935772211      -0.0000000028     0.999876    0.00003039
   21       -6.1935772229      -0.0000000018     0.999876    0.00002459
   22       -6.1935772241      -0.0000000012     0.999876    0.00001990
   23       -6.1935772248      -0.0000000008     0.999875    0.00001612
   24       -6.1935772254      -0.0000000005     0.999875    0.00001305
   25       -6.1935772257      -0.0000000003     0.999875    0.00001058
   26       -6.1935772259      -0.0000000002     0.999875    0.00000857
   27       -6.1935772261      -0.0000000001     0.999875    0.00000695
   28       -6.1935772262      -0.0000000001     0.999875    0.00000564
   29       -6.1935772262      -0.0000000001     0.999875    0.00000457
   30       -6.1935772263      -0.0000000000     0.999875    0.00000371
   31       -6.1935772263      -0.0000000000     0.999875    0.00000301
   32       -6.1935772263      -0.0000000000     0.999875    0.00000245
   33       -6.1935772263      -0.0000000000     0.999875    0.00000199
   34       -6.1935772263      -0.0000000000     0.999875    0.00000161
   35       -6.1935772263      -0.0000000000     0.999875    0.00000131
   36       -6.1935772263      -0.0000000000     0.999875    0.00000106
   37       -6.1935772263      -0.0000000000     0.999875    0.00000086
  
--------------------------------------------------
 Final SA-REKS(2,2) energy:      -6.19357723
  
 State     Energy      FON(1)    FON(2)   Spin
  PPS   -6.30881222   1.999751  0.000249  0.00
  OSS   -6.07834223   1.000000  1.000000  0.00
 Trip   -6.16237059   1.000000  1.000000  1.00
--------------------------------------------------

 Lagrangian Wab:   0.01819946  0.01819918

--------------------------------------------------
 SSR: 2SI-2SA-REKS(2,2) Hamiltonian matrix
               PPS           OSS
   PPS    -6.30881222    0.02544912
   OSS     0.02544912   -6.07834223
--------------------------------------------------

----------------------------------------------------------------
 SSR: 2SI-2SA-REKS(2,2) states
                    E_n       C_{PPS}    C_{OSS}
 SSR state  1   -6.31158892  -0.994100   0.108464
 SSR state  2   -6.07556553  -0.108464  -0.994100
----------------------------------------------------------------

 unrelaxed SSR FONs for S0:  1.987989  0.012011

Total Energy:                       -6.3115889245 H         -171.7471 eV
Extrapolated to 0:                  -6.3115889245 H         -171.7471 eV

----------------------------------------------------------------------------------
 Solving CP-REKS equation for  1 state vector...
----------------------------------------------------------------------------------
  CG solver: Constructing Y initial guess
  CG solver: Iteration    1    eps =    0.000801597506
  CG solver: Iteration    2    eps =    0.000456452616
  CG solver: Iteration    3    eps =    0.000029030432
  CG solver: Iteration    4    eps =    0.000001650630
  CG solver: Iteration    5    eps =    0.000000158661
  CG solver: Iteration    6    eps =    0.000000013939
  CG solver: Iteration    7    eps =    0.000000000460
  Convergence reached in CG solver after    7 iterations
  CG solver: Calculating converged R, Z, Q2 matrix
----------------------------------------------------------------------------------

----------------------------------------------------------------------------------
 Solving CP-REKS equation for SI between  1 and  2 state vectors...
----------------------------------------------------------------------------------
  CG solver: Constructing Y initial guess
  CG solver: Iteration    1    eps =    0.005340064623
  CG solver: Iteration    2    eps =    0.004512796768
  CG solver: Iteration    3    eps =    0.000628415049
  CG solver: Iteration    4    eps =    0.000016009041
  CG solver: Iteration    5    eps =    0.000000895584
  CG solver: Iteration    6    eps =    0.000000026260
  CG solver: Iteration    7    eps =    0.000000005450
  Convergence reached in CG solver after    7 iterations
  CG solver: Calculating converged R, Z, Q2 matrix
----------------------------------------------------------------------------------

--------------------------------------------------
 Gradient Information
--------------------------------------------------
           1 st state (SSR)
    -0.15306453    -0.00491298     0.34219835
    -0.00318511     0.08218186    -0.22661132
     0.00658881    -0.01698348    -0.03912540
     0.13731840    -0.06005110    -0.07406844
    -0.01038573    -0.03156391    -0.01158858
     0.02272815     0.03132961     0.00919539

           2 st state (SSR)
    -0.10295021    -0.00352640     0.46382400
    -0.04510105     0.09279000    -0.39744166
     0.01029488     0.02082098    -0.00629093
     0.12568072    -0.10183022    -0.07274339
     0.03310420     0.01118080    -0.00574208
    -0.02102853    -0.01943516     0.01839406
--------------------------------------------------
 Coupling Information
--------------------------------------------------
 between  1 and  2 states
--------------------------------------------------
 g vector - difference gradient
    -0.02798936    -0.00146139    -0.06223668
     0.02126574    -0.00533995     0.08775166
    -0.00351196    -0.02340019    -0.01766316
     0.00969029     0.02498018     0.00035895
    -0.02536970    -0.02547738    -0.00366736
     0.02591499     0.03069873    -0.00454342

 h vector - derivative coupling
    -0.01054322    -0.00340236     0.00018790
    -0.00089310     0.00041627     0.00126027
    -0.00730954    -0.01830464    -0.00385035
     0.01689526     0.01624333     0.00469757
    -0.01404047    -0.01625585    -0.00305040
     0.01589106     0.02130326     0.00075502

 G vector - GDV
    -0.02505716    -0.00069329    -0.06081282
     0.02095797    -0.00530407     0.08541517
    -0.00185303    -0.01890223    -0.01641723
     0.00581884     0.02088956    -0.00066252
    -0.02174496    -0.02137236    -0.00292325
     0.02187834     0.02538239    -0.00459934

 H vector - DCV - non-adiabatic coupling
    -0.06919242    -0.01541143    -0.05608684
     0.01573511    -0.00315682     0.08539063
    -0.03344967    -0.09710978    -0.03206801
     0.07875251     0.09002535     0.01976264
    -0.08126763    -0.09053143    -0.01597083
     0.08942209     0.11618411    -0.00102758
--------------------------------------------------


--------------------------------------------------------------------------------
DFTB+ running times                          cpu [s]             wall clock [s]
--------------------------------------------------------------------------------
SCC                                    +     0.02  ( 57.5%)      0.03  ( 54.2%)
Post-SCC processing                    +     0.01  ( 37.8%)      0.01  ( 31.2%)
  Force calculation                          0.01  ( 37.0%)      0.01  ( 20.8%)
--------------------------------------------------------------------------------
Missing                                +     0.00  (  4.6%)      0.01  ( 14.6%)
Total                                  =     0.03  (100.0%)      0.05  (100.0%)
--------------------------------------------------------------------------------
