|===============================================================================
|
|  DFTB+ release 20.1
|
|  Copyright (C) 2006 - 2020  DFTB+ developers group
|
|===============================================================================
|
|  When publishing results obtained with DFTB+, please cite the following
|  reference:
|
|  * DFTB+, a software package for efficient approximate density functional
|    theory based atomistic simulations, J. Chem. Phys. 152, 124101 (2020).
|    [doi: 10.1063/1.5143190]
|
|  You should also cite additional publications crediting the parametrization
|  data you use. Please consult the documentation of the SK-files for the
|  references.
|
|===============================================================================

Reading input file 'dftb_in.hsd'
Parser version: 8

--------------------------------------------------------------------------------
Reading SK-files:
Done.


Processed input in HSD format written to 'dftb_pin.hsd'

Starting initialization...
--------------------------------------------------------------------------------
OpenMP threads:              1
Chosen random seed:          511717483
Mode:                        Static calculation
Self consistent charges:     Yes
SCC-tolerance:                 0.100000E-05
Max. scc iterations:                   1000
Shell resolved Hubbard:      No
Spin polarisation:           No
Nr. of up electrons:             6.000000
Nr. of down electrons:           6.000000
Periodic boundaries:         No
Electronic solver:           Relatively robust
Maximal SCC-cycles:                    1000
Initial charges:             Set automatically (system chrg:   0.100E+01)
Included shells:             C:  s, p
                             N:  s, p
                             H:  s
Spin coupling constants:     C   1(s)-1(s):  -0.455900E-01
                             C   1(s)-2(p):  -0.293000E-01
                             C   2(p)-1(s):  -0.293000E-01
                             C   2(p)-2(p):  -0.275500E-01
                             N   1(s)-1(s):  -0.468700E-01
                             N   1(s)-2(p):  -0.317000E-01
                             N   2(p)-1(s):  -0.317000E-01
                             N   2(p)-2(p):  -0.307200E-01
                             H   1(s)-1(s):  -0.792500E-01
Range separated hybrid:      Yes
  Screening parameter omega:   0.300000E+00
  Range separated algorithm:   MatrixBased
Extra options:
                             Mulliken analysis
                             Force calculation
Force type                   original
                             Eigenvector printing


REKS Calcuation:             Yes
SSR(2,2) Calcuation:         Yes
Energy Functional:           (PPS+OSS)/2
Number of Core Orbitals:                  5
Number of Active Orbitals:                2
Number of Basis:                         12
Number of States:                         2
State-Averaging Weight:          0.500000
                                 0.500000
State of Interest:                        1
Initial Guess:               Diagonalize H0 matrix
Newton-Raphson for FON opt:  Yes
NR max. Iterations:                      50
Level Shifting:              Yes
Shift Value:                     0.300000
W Scale Factor:              C  =    3.000000
                             N  =    3.000000
                             H  =    3.000000
Transition Dipole:           No
Gradient of Microstate:      No
CP-REKS Solver:              Preconditioned Conjugate-Gradient
CG max. Iterations:                     100
CG Tolerance:                  0.100000E-07
Memory for A and Hxc:        Direct Updating Without Saving
Non-Adiabatic Coupling:      Yes

--------------------------------------------------------------------------------

***  Geometry step: 0

  iSCC       reks energy        Diff energy         x_a       SCC error   
    1       -6.2693069464       0.0000000000     0.999871    1.19100007
    2       -6.2783031014      -0.0089961550     0.999934    0.06164759
    3       -6.2815728961      -0.0032697946     0.999958    0.02323589
    4       -6.2831904241      -0.0016175281     0.999969    0.01073209
    5       -6.2840135447      -0.0008231206     0.999974    0.00867417
    6       -6.2844307044      -0.0004171597     0.999976    0.00696402
    7       -6.2846406016      -0.0002098971     0.999978    0.00533207
    8       -6.2847456264      -0.0001050248     0.999978    0.00396556
    9       -6.2847979882      -0.0000523618     0.999979    0.00289567
   10       -6.2848240404      -0.0000260523     0.999979    0.00208973
   11       -6.2848369909      -0.0000129505     0.999979    0.00149666
   12       -6.2848434284      -0.0000064375     0.999979    0.00106662
   13       -6.2848466308      -0.0000032023     0.999979    0.00075770
   14       -6.2848482260      -0.0000015952     0.999979    0.00053716
   15       -6.2848490222      -0.0000007962     0.999979    0.00038034
   16       -6.2848494207      -0.0000003985     0.999979    0.00026912
   17       -6.2848496209      -0.0000002001     0.999979    0.00019037
   18       -6.2848497218      -0.0000001009     0.999979    0.00013467
   19       -6.2848497729      -0.0000000512     0.999979    0.00009530
   20       -6.2848497990      -0.0000000261     0.999979    0.00006747
   21       -6.2848498124      -0.0000000134     0.999979    0.00004780
   22       -6.2848498193      -0.0000000069     0.999979    0.00003389
   23       -6.2848498230      -0.0000000036     0.999979    0.00002406
   24       -6.2848498249      -0.0000000019     0.999979    0.00001710
   25       -6.2848498259      -0.0000000010     0.999979    0.00001216
   26       -6.2848498264      -0.0000000005     0.999979    0.00000867
   27       -6.2848498267      -0.0000000003     0.999979    0.00000619
   28       -6.2848498269      -0.0000000002     0.999979    0.00000466
   29       -6.2848498270      -0.0000000001     0.999979    0.00000374
   30       -6.2848498270      -0.0000000001     0.999979    0.00000299
   31       -6.2848498271      -0.0000000000     0.999979    0.00000239
   32       -6.2848498271      -0.0000000000     0.999979    0.00000190
   33       -6.2848498271      -0.0000000000     0.999979    0.00000151
   34       -6.2848498271      -0.0000000000     0.999979    0.00000120
   35       -6.2848498271      -0.0000000000     0.999979    0.00000095
  
--------------------------------------------------
 Final SA-REKS(2,2) energy:      -6.28484983
  
 State     Energy      FON(1)    FON(2)   Spin
  PPS   -6.41752314   1.999959  0.000041  0.00
  OSS   -6.15217652   1.000000  1.000000  0.00
 Trip   -6.22908513   1.000000  1.000000  1.00
--------------------------------------------------

 Lagrangian Wab:  -0.00074127 -0.00074118

--------------------------------------------------
 SSR: 2SI-2SA-REKS(2,2) Hamiltonian matrix
               PPS           OSS
   PPS    -6.41752314   -0.00104353
   OSS    -0.00104353   -6.15217652
--------------------------------------------------

----------------------------------------------------------------
 SSR: 2SI-2SA-REKS(2,2) states
                    E_n       C_{PPS}    C_{OSS}
 SSR state  1   -6.41752724  -0.999992  -0.003933
 SSR state  2   -6.15217242   0.003933  -0.999992
----------------------------------------------------------------

 unrelaxed SSR FONs for S0:  1.999943  0.000057

Total Energy:                       -6.4175272389 H         -174.6298 eV
Extrapolated to 0:                  -6.4175272389 H         -174.6298 eV

----------------------------------------------------------------------------------
 Solving CP-REKS equation for  1 state vector...
----------------------------------------------------------------------------------
  CG solver: Constructing Y initial guess
  CG solver: Iteration    1    eps =    0.000029016494
  CG solver: Iteration    2    eps =    0.000001552427
  CG solver: Iteration    3    eps =    0.000000250976
  CG solver: Iteration    4    eps =    0.000000003366
  Convergence reached in CG solver after    4 iterations
  CG solver: Calculating converged R, Z, Q2 matrix
----------------------------------------------------------------------------------

----------------------------------------------------------------------------------
 Solving CP-REKS equation for SI between  1 and  2 state vectors...
----------------------------------------------------------------------------------
  CG solver: Constructing Y initial guess
  CG solver: Iteration    1    eps =    0.000321014840
  CG solver: Iteration    2    eps =    0.000098612537
  CG solver: Iteration    3    eps =    0.000022024733
  CG solver: Iteration    4    eps =    0.000000765283
  CG solver: Iteration    5    eps =    0.000000034506
  CG solver: Iteration    6    eps =    0.000000003822
  Convergence reached in CG solver after    6 iterations
  CG solver: Calculating converged R, Z, Q2 matrix
----------------------------------------------------------------------------------

--------------------------------------------------
 Gradient Information
--------------------------------------------------
           1 st state (SSR)
     0.00292293    -0.00924580     0.02620633
    -0.01335034     0.00141265    -0.03345405
     0.00250655     0.00419620     0.00387682
     0.00669395    -0.00055318     0.00405652
     0.00388679     0.00594825     0.00515101
    -0.00265988    -0.00175812    -0.00583662

           2 st state (SSR)
    -0.00495903    -0.00284438     0.13800379
     0.00835505     0.00466841    -0.16326418
    -0.00297817    -0.01447769     0.01993516
    -0.00341649     0.00719016    -0.00505577
    -0.00102782    -0.00155340    -0.00390337
     0.00402646     0.00701690     0.01428437
--------------------------------------------------
 Coupling Information
--------------------------------------------------
 between  1 and  2 states
--------------------------------------------------
 g vector - difference gradient
     0.00393456    -0.00318060    -0.05589975
    -0.01086324    -0.00165841     0.06490580
     0.00278983     0.00932550    -0.00803111
     0.00510485    -0.00386689     0.00455316
     0.00241493     0.00376744     0.00453282
    -0.00338093    -0.00438704    -0.01006091

 h vector - derivative coupling
     0.00083171    -0.00256959    -0.00008964
     0.00129815     0.00387464     0.00016177
    -0.00602432     0.00149225     0.00021469
    -0.00629062    -0.00062253     0.00039757
     0.00539713    -0.00209747    -0.00069789
     0.00478797    -0.00007730     0.00001350

 G vector - GDV
     0.00394098    -0.00320071    -0.05589873
    -0.01085269    -0.00162788     0.06490506
     0.00274236     0.00933695    -0.00802917
     0.00505522    -0.00387167     0.00455614
     0.00245730     0.00375083     0.00452719
    -0.00334317    -0.00438751    -0.01006050

 H vector - DCV - non-adiabatic coupling
     0.00301760    -0.00958904     0.00131909
     0.00521395     0.01465043    -0.00131421
    -0.02278489     0.00534702     0.00104708
    -0.02385702    -0.00223134     0.00136325
     0.02026707    -0.00801582    -0.00276430
     0.01814329    -0.00016125     0.00034909
--------------------------------------------------


--------------------------------------------------------------------------------
DFTB+ running times                          cpu [s]             wall clock [s]
--------------------------------------------------------------------------------
SCC                                    +     0.02  ( 62.3%)      0.02  ( 52.3%)
Post-SCC processing                    +     0.01  ( 33.3%)      0.01  ( 29.5%)
  Force calculation                          0.01  ( 32.5%)      0.01  ( 22.7%)
--------------------------------------------------------------------------------
Missing                                +     0.00  (  4.4%)      0.01  ( 18.2%)
Total                                  =     0.03  (100.0%)      0.04  (100.0%)
--------------------------------------------------------------------------------
