    14
  Step:     0            Position(A)                                  Velocity(au)
C        -5.95897314    -0.69106399    -0.26650702     0.00026030     0.00000335     0.00002676
C        -4.74522015    -0.74709011     0.26768444    -0.00034821    -0.00026347    -0.00003843
H        -6.23814188     0.27433938    -0.79131472    -0.00002088     0.00020822    -0.00003200
H        -6.80681399    -1.41573039    -0.20890810     0.00005750     0.00134868    -0.00011804
H        -4.27365272    -1.62512898     0.73170801    -0.00026288     0.00034886    -0.00019172
C        -3.87013217     0.40391600     0.02816078     0.00038128    -0.00000606     0.00012263
C        -2.53744833     0.44355818     0.36110970    -0.00001038     0.00022977    -0.00003136
H        -4.24115217     1.32761069    -0.44374304    -0.00094104     0.00004091     0.00007445
H        -1.97458082    -0.36616610     0.80506698     0.00022594     0.00040988     0.00025923
C        -1.85225461     1.58298316    -0.10947726    -0.00018774    -0.00023876    -0.00014861
H        -2.41146068     2.44353455    -0.55944087    -0.00039453     0.00055668     0.00027579
N        -0.56749793     1.89122022     0.13561477     0.00000205     0.00002768     0.00007264
H        -0.17600781     2.75212317    -0.20224931     0.00070903     0.00063182    -0.00024368
H         0.01103883     1.14489553     0.45004260    -0.00053679    -0.00065069    -0.00021130
    14
  Step:     1            Position(A)                                  Velocity(au)
C        -5.95665446    -0.69092601    -0.26640689     0.00016161     0.00002421    -0.00001017
C        -4.74854711    -0.74988600     0.26731690    -0.00025606    -0.00024562    -0.00002813
H        -6.23814823     0.27525630    -0.79119881     0.00002526    -0.00004135     0.00005298
H        -6.80502130    -1.40073247    -0.21001023     0.00025006     0.00136948    -0.00007952
H        -4.27708999    -1.62115720     0.72966160    -0.00035853     0.00035722    -0.00017384
C        -3.86641020     0.40370831     0.02951703     0.00029537    -0.00003184     0.00012459
C        -2.53717300     0.44615801     0.36074685     0.00006099     0.00024335    -0.00003383
H        -4.25194841     1.32742847    -0.44278073    -0.00101888    -0.00008575     0.00010946
H        -1.97224625    -0.36196431     0.80832006     0.00019790     0.00036154     0.00033401
C        -1.85441132     1.58053668    -0.11113391    -0.00020473    -0.00020465    -0.00015536
H        -2.41562288     2.44840178    -0.55613455    -0.00036021     0.00032140     0.00033139
N        -0.56743475     1.89150079     0.13642886     0.00001049     0.00002561     0.00007525
H        -0.16785054     2.75934952    -0.20504829     0.00075944     0.00064230    -0.00025039
H         0.00635876     1.13731704     0.44812763    -0.00032240    -0.00072413    -0.00014378
    14
  Step:     2            Position(A)                                  Velocity(au)
C        -5.95543753    -0.69053429    -0.26672953     0.00006114     0.00004939    -0.00004958
C        -4.75082188    -0.75246346     0.26706910    -0.00015767    -0.00022351    -0.00001719
H        -6.23758917     0.27343474    -0.79015576     0.00007946    -0.00028439     0.00013335
H        -6.80134340    -1.38577045    -0.21064768     0.00039484     0.00133746    -0.00003309
H        -4.28149622    -1.61731414     0.72790503    -0.00043799     0.00032396    -0.00013762
C        -3.86367032     0.40321941     0.03088635     0.00020247    -0.00005765     0.00012520
C        -2.53611410     0.44888194     0.36036956     0.00013255     0.00025259    -0.00003407
H        -4.26344208     1.32573471    -0.44134828    -0.00106973    -0.00023163     0.00015848
H        -1.97025137    -0.35825673     0.81237403     0.00016408     0.00032068     0.00040482
C        -1.85673343     1.57850598    -0.11287606    -0.00021754    -0.00016366    -0.00016372
H        -2.41934098     2.45056568    -0.55219108    -0.00031685     0.00006970     0.00038865
N        -0.56726852     1.89178059     0.13726105     0.00002112     0.00002672     0.00007619
H        -0.15939365     2.76617463    -0.20772701     0.00076510     0.00056284    -0.00022327
H         0.00398577     1.12905373     0.44689706    -0.00012237    -0.00076786    -0.00008948
    14
  Step:     3            Position(A)                                  Velocity(au)
C        -5.95531684    -0.68984543    -0.26749153    -0.00003652     0.00007807    -0.00008949
C        -4.75199644    -0.75477564     0.26694074    -0.00005679    -0.00019721    -0.00000693
H        -6.23640987     0.26903478    -0.78828161     0.00013544    -0.00050464     0.00020085
H        -6.79638347    -1.37147299    -0.21073424     0.00047845     0.00124452     0.00002104
H        -4.28667186    -1.61406986     0.72665096    -0.00049805     0.00024799    -0.00008155
C        -3.86198072     0.40244705     0.03225594     0.00010429    -0.00008387     0.00012486
C        -2.53427316     0.45168390     0.36000147     0.00020352     0.00025780    -0.00003228
H        -4.27535074     1.32236110    -0.43931365    -0.00109642    -0.00038860     0.00021732
H        -1.96865679    -0.35494892     0.81717619     0.00012527     0.00028910     0.00047014
C        -1.85917039     1.57695640    -0.11471567    -0.00022536    -0.00011765    -0.00017265
H        -2.42255468     2.44992650    -0.54763208    -0.00027152    -0.00018368     0.00044037
N        -0.56697261     1.89208532     0.13809567     0.00003418     0.00002925     0.00007597
H        -0.15111247     2.77166273    -0.20993268     0.00073066     0.00040645    -0.00016712
H         0.00368169     1.12051866     0.44617003     0.00005054    -0.00076836    -0.00005379
    14
  Step:     4            Position(A)                                  Velocity(au)
C        -5.95623654    -0.68882639    -0.26868719    -0.00012701     0.00010911    -0.00012785
C        -4.75206426    -0.75677790     0.26691741     0.00004291    -0.00016707     0.00000145
H        -6.23462607     0.26239480    -0.78576169     0.00018666    -0.00068584     0.00024738
H        -6.79087644    -1.35854420    -0.21018741     0.00049131     0.00108578     0.00008240
H        -4.29239211    -1.61188888     0.72612102    -0.00053752     0.00013173    -0.00000577
C        -3.86138881     0.40138462     0.03361783     0.00000279    -0.00011091     0.00012403
C        -2.53166176     0.45452174     0.35966328     0.00027293     0.00025940    -0.00002879
H        -4.28742843     1.31723343    -0.43659391    -0.00110270    -0.00054781     0.00028135
H        -1.96751085    -0.35193221     0.82265926     0.00008288     0.00026763     0.00052888
C        -1.86166368     1.57593206    -0.11665309    -0.00022756    -0.00006865    -0.00018108
H        -2.42528090     2.44654726    -0.54255708    -0.00023125    -0.00042383     0.00047956
N        -0.56652075     1.89242050     0.13892303     0.00004939     0.00003144     0.00007511
H        -0.14340903     2.77506646    -0.21138305     0.00066412     0.00019277    -0.00008933
H         0.00509134     1.11224430     0.44572020     0.00018809    -0.00071801    -0.00003945
    14
  Step:     5            Position(A)                                  Velocity(au)
C        -5.95809537    -0.68745836    -0.27028854    -0.00020664     0.00014099    -0.00016270
C        -4.75105765    -0.75843063     0.26697251     0.00013816    -0.00013369     0.00000700
H        -6.23232640     0.25403074    -0.78286960     0.00022649    -0.00081214     0.00026501
H        -6.78563517    -1.34771951    -0.20893158     0.00043018     0.00086147     0.00015016
H        -4.29843123    -1.61118791     0.72652468    -0.00055755    -0.00001825     0.00008739
C        -3.86191958     0.40002073     0.03496938    -0.00009997    -0.00013923     0.00012321
C        -2.52830225     0.45735870     0.35937171     0.00033985     0.00025795    -0.00002397
H        -4.29947441     1.31037672    -0.43315867    -0.00109300    -0.00070014     0.00034572
H        -1.96684363    -0.34909399     0.82874650     0.00003879     0.00025623     0.00058044
C        -1.86414873     1.57545455    -0.11867705    -0.00022367    -0.00001875    -0.00018795
H        -2.42761372     2.44065441    -0.53714076    -0.00020307    -0.00063595     0.00049953
N        -0.56589202     1.89277310     0.13973885     0.00006610     0.00003176     0.00007405
H        -0.13658348     2.77587990    -0.21188695     0.00057556    -0.00005497     0.00000133
H         0.00779643     1.10481073     0.44530710     0.00028696    -0.00061581    -0.00004634
    14
  Step:     6            Position(A)                                  Velocity(au)
C        -5.96075726    -0.68574193    -0.27224656    -0.00027295     0.00017167    -0.00019222
C        -4.74904183    -0.75970268     0.26707057     0.00022631    -0.00009800     0.00000910
H        -6.22967123     0.24462774    -0.77996418     0.00024865    -0.00086896     0.00024625
H        -6.78146534    -1.33969794    -0.20690242     0.00030074     0.00057887     0.00022300
H        -4.30458954    -1.61228822     0.72803273    -0.00056160    -0.00019122     0.00019315
C        -3.86357594     0.39833878     0.03631336    -0.00020206    -0.00016931     0.00012289
C        -2.52422687     0.46016486     0.35913881     0.00040344     0.00025413    -0.00001829
H        -4.31133998     1.30191646    -0.42903072    -0.00107229    -0.00083655     0.00040565
H        -1.96666219    -0.34632659     0.83535750    -0.00000475     0.00025414     0.00062475
C        -1.86655694     1.57552193    -0.12076479    -0.00021341     0.00002990    -0.00019225
H        -2.42972349     2.43263470    -0.53162881    -0.00019378    -0.00080584     0.00049413
N        -0.56507477     1.89311528     0.14054291     0.00008330     0.00002905     0.00007309
H        -0.13081749     2.77386395    -0.21135393     0.00047618    -0.00031205     0.00009554
H         0.01136908     1.09877230     0.44470638     0.00034835    -0.00046699    -0.00007187
    14
  Step:     7            Position(A)                                  Velocity(au)
C        -5.96406672    -0.68370270    -0.27449371    -0.00032498     0.00019872    -0.00021492
C        -4.74610678    -0.76057453     0.26717149     0.00030552    -0.00006117     0.00000753
H        -6.22688664     0.23502048    -0.77748230     0.00024786    -0.00084491     0.00018495
H        -6.77905590    -1.33505563    -0.20405300     0.00011867     0.00025328     0.00029897
H        -4.31071732    -1.61537115     0.73075025    -0.00055494    -0.00037289     0.00030446
C        -3.86634009     0.39631685     0.03765789    -0.00030165    -0.00020161     0.00012355
C        -2.51947631     0.46291822     0.35897168     0.00046295     0.00024866    -0.00001218
H        -4.32293276     1.29207563    -0.42428420    -0.00104576    -0.00094843     0.00045665
H        -1.96694755    -0.34353409     0.84241413    -0.00004530     0.00026009     0.00066230
C        -1.86881743     1.57610878    -0.12288280    -0.00019660     0.00007525    -0.00019306
H        -2.43185300     2.42302516    -0.52633064    -0.00020960    -0.00092069     0.00045809
N        -0.56406965     1.89340857     0.14133777     0.00009979     0.00002251     0.00007243
H        -0.12616604     2.76905322    -0.20979680     0.00037764    -0.00055375     0.00018397
H         0.01541726     1.09459448     0.44373473     0.00037708    -0.00028181    -0.00011149
    14
  Step:     8            Position(A)                                  Velocity(au)
C        -5.96786688    -0.68139449    -0.27694830    -0.00036341     0.00021961    -0.00022978
C        -4.74235796    -0.76104083     0.26723526     0.00037479    -0.00002456     0.00000250
H        -6.22424877     0.22614365    -0.77591804     0.00022067    -0.00073440     0.00007769
H        -6.77886926    -1.33415696    -0.20036186    -0.00009146    -0.00009275     0.00037530
H        -4.31672983    -1.62044594     0.73469345    -0.00054366    -0.00054702     0.00041272
C        -3.87017506     0.39392814     0.03901634    -0.00039698    -0.00023651     0.00012567
C        -2.51409906     0.46560469     0.35887242     0.00051761     0.00024217    -0.00000608
H        -4.33421788     1.28116772    -0.41904052    -0.00101860    -0.00102817     0.00049463
H        -1.96765330    -0.34063653     0.84984662    -0.00008039     0.00027246     0.00069403
C        -1.87085794     1.57716813    -0.12498835    -0.00017315     0.00011558    -0.00018968
H        -2.43430880     2.41249275    -0.52160730    -0.00025533    -0.00097060     0.00038769
N        -0.56289162     1.89360772     0.14212751     0.00011420     0.00001168     0.00007218
H        -0.12255599     2.76174951    -0.20732914     0.00029140    -0.00075661     0.00025770
H         0.01961834     1.09260725     0.44226737     0.00038051    -0.00007399    -0.00015937
    14
  Step:     9            Position(A)                                  Velocity(au)
C        -5.97201707    -0.67889838    -0.27952058    -0.00039034     0.00023219    -0.00023643
C        -4.73790755    -0.76111186     0.26722624     0.00043380     0.00001036    -0.00000542
H        -6.22205901     0.21895406    -0.77578267     0.00016644    -0.00054075    -0.00007440
H        -6.78105683    -1.33708480    -0.19584264    -0.00030002    -0.00043221     0.00044846
H        -4.32261090    -1.62733824     0.73977925    -0.00053356    -0.00069738     0.00050888
C        -3.87502477     0.39114265     0.04040713    -0.00048623    -0.00027415     0.00012969
C        -2.50815251     0.46821616     0.35883862     0.00056645     0.00023504    -0.00000038
H        -4.34521650     1.26958244    -0.41346325    -0.00099558    -0.00106974     0.00051613
H        -1.96870619    -0.33757354     0.85759731    -0.00010765     0.00028943     0.00072116
C        -1.87260546     1.57863726    -0.12703251    -0.00014300     0.00014987    -0.00018175
H        -2.43743890     2.40179142    -0.51784920    -0.00033318    -0.00095043     0.00028167
N        -0.56157136     1.89366415     0.14291679     0.00012506    -0.00000358     0.00007233
H        -0.11979118     2.75250094    -0.20415908     0.00022803    -0.00089987     0.00030868
H         0.02374168     1.09297569     0.44024815     0.00036766     0.00014069    -0.00020907
    14
  Step:    10            Position(A)                                  Velocity(au)
C        -5.97640621    -0.67631494    -0.28212073    -0.00040872     0.00023530    -0.00023526
C        -4.73286778    -0.76081410     0.26711664     0.00048268     0.00004213    -0.00001544
H        -6.22060759     0.21431365    -0.77754579     0.00008798    -0.00027859    -0.00026422
H        -6.78543269    -1.34361235    -0.19055084    -0.00047797    -0.00073795     0.00051453
H        -4.32840248    -1.63570245     0.74582611    -0.00052904    -0.00080990     0.00058467
C        -3.88081231     0.38793058     0.04185354    -0.00056736    -0.00031426     0.00013602
C        -2.50170687     0.47074665     0.35886420     0.00060807     0.00022725     0.00000465
H        -4.35599818     1.25776506    -0.40774923    -0.00098052    -0.00106943     0.00051863
H        -1.97000839    -0.33430479     0.86562339    -0.00012501     0.00030917     0.00074502
C        -1.87398631     1.58044678    -0.12896449    -0.00010617     0.00017804    -0.00016934
H        -2.44159784     2.39170026    -0.51544529    -0.00044139    -0.00086174     0.00014201
N        -0.56015568     1.89352942     0.14370988     0.00013097    -0.00002306     0.00007281
H        -0.11756745     2.74206319    -0.20057623     0.00019612    -0.00096743     0.00033045
H         0.02766154     1.09568520     0.43769362     0.00034834     0.00034571    -0.00025401
    14
  Step:    11            Position(A)                                  Velocity(au)
C        -5.98095855    -0.67375078    -0.28466727    -0.00042173     0.00022913    -0.00022737
C        -4.72734808    -0.76019017     0.26688840     0.00052168     0.00006932    -0.00002666
H        -6.22013424     0.21285933    -0.78156304    -0.00000851     0.00002608    -0.00047827
H        -6.79151334    -1.35322881    -0.18458621    -0.00060237    -0.00098726     0.00056964
H        -4.33418455    -1.64505644     0.75257001    -0.00053244    -0.00087441     0.00063369
C        -3.88743677     0.38426763     0.04338282    -0.00063812    -0.00035605     0.00014493
C        -2.49484988     0.47318779     0.35894040     0.00064076     0.00021844     0.00000882
H        -4.36666717     1.24618659    -0.40211715    -0.00097567    -0.00102655     0.00050090
H        -1.97144110    -0.33080979     0.87389611    -0.00013081     0.00033002     0.00076680
C        -1.87492818     1.58253217    -0.13073718    -0.00006300     0.00020102    -0.00015304
H        -2.44709507     2.38293919    -0.51474254    -0.00057304    -0.00071418    -0.00002545
N        -0.55870605     1.89315974     0.14450956     0.00013079    -0.00004605     0.00007339
H        -0.11550074     2.73133651    -0.19692988     0.00020085    -0.00095039     0.00031918
H         0.03136233     1.10053885     0.43469115     0.00033249     0.00052485    -0.00028806
    14
  Step:    12            Position(A)                                  Velocity(au)
C        -5.98563245    -0.67130227    -0.28709479    -0.00043220     0.00021525    -0.00021446
C        -4.72145502    -0.75929765     0.26653350     0.00055097     0.00009063    -0.00003819
H        -6.22079381     0.21488415    -0.78800886    -0.00011437     0.00033878    -0.00069795
H        -6.79861069    -1.36521049    -0.17808883    -0.00065960    -0.00116493     0.00061057
H        -4.34005072    -1.65483183     0.75968940    -0.00054394    -0.00088552     0.00065208
C        -3.89477234     0.38014128     0.04502417    -0.00069634    -0.00039818     0.00015646
C        -2.48768902     0.47552541     0.35905711     0.00066283     0.00020802     0.00001205
H        -4.37734291     1.23530735    -0.39679101    -0.00098139    -0.00094390     0.00046335
H        -1.97287010    -0.32708488     0.88239851    -0.00012394     0.00035060     0.00078735
C        -1.87536449     1.58484438    -0.13231251    -0.00001433     0.00022053    -0.00013386
H        -2.45413421     2.37607621    -0.51600216    -0.00071589    -0.00052522    -0.00021119
N        -0.55729431     1.89252195     0.14531549     0.00012391    -0.00007127     0.00007372
H        -0.11317350     2.72127157    -0.19359346     0.00024250    -0.00084950     0.00027480
H         0.03493543     1.10716728     0.43139167     0.00032939     0.00066334    -0.00030593
    14
  Step:    13            Position(A)                                  Velocity(au)
C        -5.99041375    -0.66904183    -0.28935905    -0.00044219     0.00019617    -0.00019854
C        -4.71529448    -0.75820748     0.26605282     0.00057048     0.00010492    -0.00004933
H        -6.22263630     0.22027083    -0.79683201    -0.00022008     0.00062249    -0.00090251
H        -6.80594345    -1.37871386    -0.17122885    -0.00064602    -0.00126434     0.00063519
H        -4.34608427    -1.66442892     0.76683560    -0.00056175    -0.00084268     0.00063866
C        -3.90267062     0.37555672     0.04680574    -0.00074022    -0.00043877     0.00017035
C        -2.48034913     0.47773873     0.35920411     0.00067298     0.00019547     0.00001440
H        -4.38813689     1.22553697    -0.39198051    -0.00099576    -0.00082801     0.00040827
H        -1.97415242    -0.32313971     0.89112096    -0.00010394     0.00036993     0.00080713
C        -1.87524172     1.58735662    -0.13366563     0.00003830     0.00023868    -0.00011311
H        -2.46275649     2.37144906    -0.51936281    -0.00085339    -0.00031792    -0.00040299
N        -0.55599538     1.89160061     0.14612237     0.00011044    -0.00009679     0.00007325
H        -0.11019562     2.71275212    -0.19091806     0.00031547    -0.00067656     0.00020170
H         0.03856841     1.11505068     0.42799825     0.00034679     0.00074923    -0.00030361
    14
  Step:    14            Position(A)                                  Velocity(au)
C        -5.99530629    -0.66701058    -0.29143819    -0.00045295     0.00017474    -0.00018152
C        -4.70897467    -0.75700223     0.26545423     0.00057988     0.00011123    -0.00005953
H        -6.22560844     0.22850234    -0.80775305    -0.00031715     0.00084457    -0.00107295
H        -6.81274361    -1.39287026    -0.16419274    -0.00056632    -0.00128656     0.00064266
H        -4.35234016    -1.67326712     0.77366127    -0.00058276    -0.00074965     0.00059469
C        -3.91096603     0.37054243     0.04875100    -0.00076848    -0.00047550     0.00018603
C        -2.47296635     0.47980177     0.35937206     0.00067050     0.00018044     0.00001595
H        -4.39912703     1.21719309    -0.38785940    -0.00101468    -0.00068887     0.00033985
H        -1.97514403    -0.31899189     0.90005609    -0.00007109     0.00038758     0.00082611
C        -1.87452651     1.59006599    -0.13478696     0.00009287     0.00025750    -0.00009216
H        -2.47280379     2.36912115    -0.52481830    -0.00096718    -0.00011711    -0.00058758
N        -0.55487829     1.89040443     0.14691805     0.00009135    -0.00012025     0.00007131
H        -0.10627206     2.70647059    -0.18918088     0.00040828    -0.00045395     0.00010872
H         0.04252211     1.12355819     0.42474951     0.00038967     0.00077507    -0.00027887
    14
  Step:    15            Position(A)                                  Velocity(au)
C        -6.00032282    -0.66521917    -0.29333011    -0.00046488     0.00015342    -0.00016496
C        -4.70260844    -0.75577420     0.26475057     0.00057865     0.00010871    -0.00006842
H        -6.22957459     0.23874736    -0.82030477    -0.00039949     0.00098217    -0.00119518
H        -6.81833279    -1.40685980    -0.15716948    -0.00043089    -0.00123842     0.00063328
H        -4.35883320    -1.68082903     0.77984548    -0.00060306    -0.00061372     0.00052347
C        -3.91948253     0.36515431     0.05087541    -0.00078046    -0.00050575     0.00020263
C        -2.46568067     0.48168616     0.35955299     0.00065540     0.00016284     0.00001684
H        -4.41033496     1.21046666    -0.38454566    -0.00103233    -0.00053901     0.00026380
H        -1.97570775    -0.31466069     0.90919368    -0.00002637     0.00040367     0.00084380
C        -1.87321010     1.59298997    -0.13568173     0.00014709     0.00027851    -0.00007223
H        -2.48391533     2.36888705    -0.53221717    -0.00104019     0.00005503    -0.00075266
N        -0.55399696     1.88896994     0.14768237     0.00006836    -0.00013915     0.00006717
H        -0.10126380     2.70282100    -0.18853958     0.00050502    -0.00021164     0.00000797
H         0.04709322     1.13200690     0.42189744     0.00045896     0.00073956    -0.00023172
    14
  Step:    16            Position(A)                                  Velocity(au)
C        -6.00547643    -0.66365423    -0.29504695    -0.00047774     0.00013401    -0.00014987
C        -4.69631561    -0.75462392     0.26395743     0.00056611     0.00009673    -0.00007584
H        -6.23434813     0.24998929    -0.83389995    -0.00046396     0.00102466    -0.00126167
H        -6.82217007    -1.41996317    -0.15033856    -0.00025320    -0.00113045     0.00060827
H        -4.36553320    -1.68669338     0.78511310    -0.00061860    -0.00044463     0.00042981
C        -3.92804016     0.35947809     0.05318401    -0.00077607    -0.00052684     0.00021917
C        -2.45862814     0.48336417     0.35974051     0.00062833     0.00014287     0.00001721
H        -4.42171122     1.20540120    -0.38208833    -0.00104203    -0.00039199     0.00018659
H        -1.97572089    -0.31016086     0.91851583     0.00002862     0.00041887     0.00085931
C        -1.87130869     1.59615897    -0.13636722     0.00019879     0.00030246    -0.00005426
H        -2.49556002     2.37032512    -0.54128426    -0.00105953     0.00018244    -0.00088862
N        -0.55338268     1.88736017     0.14838758     0.00004379    -0.00015139     0.00006027
H        -0.09522380     2.70184050    -0.18900645     0.00058819     0.00001809    -0.00008733
H         0.05256274     1.13973753     0.41968025     0.00055046     0.00064866    -0.00016474
    14
  Step:    17            Position(A)                                  Velocity(au)
C        -6.01077440    -0.66228745    -0.29660873    -0.00049079     0.00011749    -0.00013670
C        -4.69022374    -0.75365811     0.26309141     0.00054153     0.00007480    -0.00008180
H        -6.23972460     0.26116365    -0.84790620    -0.00051010     0.00097273    -0.00127127
H        -6.82387194    -1.43159066    -0.14386248    -0.00004785    -0.00097512     0.00056949
H        -4.37236632    -1.69055619     0.78924839    -0.00062559    -0.00025381     0.00031962
C        -3.93646052     0.35362866     0.05567028    -0.00075564    -0.00053623     0.00023461
C        -2.45193466     0.48481180     0.35992959     0.00059046     0.00012101     0.00001717
H        -4.43313135     1.20189104    -0.38046368    -0.00103731    -0.00026062     0.00011463
H        -1.97508174    -0.30549712     0.92799273     0.00009171     0.00043428     0.00087144
C        -1.86886108     1.59960690    -0.13686872     0.00024614     0.00032924    -0.00003875
H        -2.50709452     2.37287828    -0.55165748    -0.00101809     0.00025681    -0.00098951
N        -0.55303898     1.88565791     0.14900080     0.00002023    -0.00015566     0.00005030
H        -0.08839612     2.70321666    -0.19044998     0.00064201     0.00020649    -0.00016532
H         0.05913558     1.14619768     0.41829337     0.00065456     0.00051558    -0.00008306
    14
  Step:    18            Position(A)                                  Velocity(au)
C        -6.01621331    -0.66108388    -0.29803750    -0.00050289     0.00010421    -0.00012544
C        -4.68446854    -0.75298753     0.26216790     0.00050425     0.00004276    -0.00008650
H        -6.24550753     0.27126973    -0.86171149    -0.00053942     0.00083568    -0.00122792
H        -6.82321683    -1.44129586    -0.13787996     0.00017049    -0.00078585     0.00051926
H        -4.37921927    -1.69224600     0.79210544    -0.00062071    -0.00005382     0.00019962
C        -3.94457123     0.34774707     0.05831649    -0.00071987    -0.00053184     0.00024799
C        -2.44571060     0.48601152     0.36011625     0.00054334     0.00009793     0.00001679
H        -4.44440438     1.19969966    -0.37958049    -0.00101293    -0.00015530     0.00005346
H        -1.97371466    -0.30066021     0.93758026     0.00016036     0.00045127     0.00087881
C        -1.86592399     1.60336163    -0.13721500     0.00028768     0.00035794    -0.00002585
H        -2.51783271     2.37594327    -0.56293159    -0.00091485     0.00027735    -0.00105317
N        -0.55294019     1.88395490     0.14948799     0.00000028    -0.00015167     0.00003738
H        -0.08117857     2.70635781    -0.19262320     0.00065528     0.00033313    -0.00021755
H         0.06688246     1.15101678     0.41786318     0.00075710     0.00035912     0.00000625
    14
  Step:    19            Position(A)                                  Velocity(au)
C        -6.02177601    -0.66000775    -0.29935300    -0.00051273     0.00009408    -0.00011577
C        -4.67919241    -0.75272257     0.26119914     0.00045378     0.00000090    -0.00009031
H        -6.25152543     0.27944582    -0.87476939    -0.00055456     0.00062796    -0.00113880
H        -6.82014207    -1.44878260    -0.13250266     0.00038762    -0.00057647     0.00046021
H        -4.38594552    -1.69173362     0.79361535    -0.00060121     0.00014206     0.00007707
C        -3.95220907     0.34199375     0.06109551    -0.00066972    -0.00051230     0.00025859
C        -2.44004807     0.48695418     0.36029693     0.00048870     0.00007445     0.00001608
H        -4.45529105     1.19849351    -0.37929422    -0.00096554    -0.00008293     0.00000706
H        -1.97157347    -0.29562475     0.94721845     0.00023182     0.00047129     0.00088000
C        -1.86256762     1.60743760    -0.13743429     0.00032239     0.00038715    -0.00001537
H        -2.52710867     2.37894575    -0.57469754    -0.00075390     0.00024909    -0.00108067
N        -0.55303280     1.88233990     0.14981859    -0.00001372    -0.00014015     0.00002200
H        -0.07406065     2.71050445    -0.19520937     0.00062277     0.00038813    -0.00023992
H         0.07569850     1.15405409     0.41843010     0.00084143     0.00020072     0.00009517
    14
  Step:    20            Position(A)                                  Velocity(au)
C        -6.02743028    -0.65902560    -0.30057028    -0.00051893     0.00008686    -0.00010722
C        -4.67454123    -0.75296780     0.26019221     0.00039004    -0.00004991    -0.00009380
H        -6.25763961     0.28500760    -0.88662490    -0.00055866     0.00036647    -0.00101285
H        -6.81473696    -1.45390733    -0.12781191     0.00058994    -0.00036103     0.00039524
H        -4.39237186    -1.68913817     0.79379158    -0.00056498     0.00032015    -0.00004034
C        -3.95922272     0.33653957     0.06397356    -0.00060643    -0.00047717     0.00026594
C        -2.43501942     0.48764031     0.36046794     0.00042834     0.00005150     0.00001499
H        -4.46552741     1.19788538    -0.37942600    -0.00089396    -0.00004645    -0.00002229
H        -1.96864310    -0.29034990     0.95683203     0.00030325     0.00049564     0.00087371
C        -1.85887111     1.61183133    -0.13755135     0.00034962     0.00041513    -0.00000691
H        -2.53432568     2.38139254    -0.58657340    -0.00054304     0.00018089    -0.00107549
N        -0.55324027     1.88088886     0.14996929    -0.00001998    -0.00012254     0.00000493