     6
  Step:     0            Position(A)                                  Velocity(au)
C        -0.03958609     0.01015234     0.00635765    -0.00005698    -0.00005437    -0.00005886
N        -0.05188369    -0.04762853     1.31307195     0.00011351    -0.00006942     0.00001819
H         0.95329991     0.01065048    -0.52444540     0.00037677     0.00047925     0.00009759
H         0.90040174    -0.14416275     1.81997162     0.00005596     0.00024973     0.00044190
H        -0.89640248    -0.07200101     1.82932688    -0.00086957     0.00058353     0.00052311
H        -0.97753212     0.07662192    -0.55548029    -0.00046159     0.00029996    -0.00061400
     6
  Step:     1            Position(A)                                  Velocity(au)
C        -0.03987510     0.00987820     0.00570310    -0.00004895    -0.00004617    -0.00018056
N        -0.05118722    -0.04801412     1.31343436     0.00013996    -0.00007189     0.00011483
H         0.95515132     0.01322400    -0.52382487     0.00029801     0.00046354     0.00012962
H         0.90020784    -0.14281109     1.82224393    -0.00012652     0.00024619     0.00038883
H        -0.90171602    -0.06888861     1.83257499    -0.00105739     0.00055746     0.00065543
H        -0.98011079     0.07820879    -0.55885781    -0.00047574     0.00028192    -0.00061801
     6
  Step:     2            Position(A)                                  Velocity(au)
C        -0.04012143     0.00964737     0.00438284    -0.00004144    -0.00003861    -0.00030180
N        -0.05035301    -0.04841478     1.31432785     0.00016367    -0.00007495     0.00021202
H         0.95655921     0.01572012    -0.52302781     0.00021564     0.00045131     0.00016163
H         0.89901799    -0.14147025     1.82422422    -0.00030637     0.00024596     0.00033630
H        -0.90796695    -0.06590421     1.83649515    -0.00121093     0.00053705     0.00076797
H        -0.98273518     0.07970527    -0.56223933    -0.00047890     0.00026727    -0.00061590
     6
  Step:     3            Position(A)                                  Velocity(au)
C        -0.04032828     0.00945600     0.00240298    -0.00003454    -0.00003176    -0.00042111
N        -0.04939756    -0.04883374     1.31575271     0.00018405    -0.00007853     0.00030863
H         0.95750936     0.01815899    -0.52205742     0.00013165     0.00044252     0.00019242
H         0.89685774    -0.14012154     1.82592127    -0.00047935     0.00024890     0.00028621
H        -0.91495732    -0.06301603     1.84097267    -0.00132653     0.00052203     0.00085841
H        -0.98534743     0.08113138    -0.56559262    -0.00047180     0.00025618    -0.00060787
     6
  Step:     4            Position(A)                                  Velocity(au)
C        -0.04049920     0.00930007    -0.00022237    -0.00002831    -0.00002562    -0.00053677
N        -0.04834027    -0.04927359     1.31770296     0.00020056    -0.00008245     0.00040328
H         0.95799897     0.02055945    -0.52092352     0.00004827     0.00043668     0.00022069
H         0.89377587    -0.13874831     1.82735419    -0.00064082     0.00025438     0.00024051
H        -0.92247379    -0.06019534     1.84588267    -0.00140177     0.00051153     0.00092507
H        -0.98789476     0.08250689    -0.56888694    -0.00045543     0.00024838    -0.00059415
     6
  Step:     5            Position(A)                                  Velocity(au)
C        -0.04063807     0.00917570    -0.00346980    -0.00002282    -0.00002016    -0.00064684
N        -0.04720321    -0.04973584     1.32016494     0.00021271    -0.00008649     0.00049434
H         0.95803750     0.02293669    -0.51964284    -0.00003212     0.00043299     0.00024511
H         0.88984659    -0.13733842     1.82855270    -0.00078572     0.00026141     0.00020124
H        -0.93029394    -0.05741939     1.85109376    -0.00143537     0.00050430     0.00096698
H        -0.99033021     0.08384887    -0.57209316    -0.00043085     0.00024323    -0.00057507
     6
  Step:     6            Position(A)                                  Velocity(au)
C        -0.04074910     0.00907934    -0.00730557    -0.00001812    -0.00001531    -0.00074921
N        -0.04601095    -0.05022064     1.32311621     0.00022006    -0.00009037     0.00058000
H         0.95764721     0.02530093    -0.51823945    -0.00010708     0.00043049     0.00026430
H         0.88517189    -0.13588575     1.82955783    -0.00090868     0.00026883     0.00017051
H        -0.93819171    -0.05467304     1.85647156    -0.00142724     0.00049888     0.00098394
H        -0.99261280     0.08517031    -0.57518421    -0.00039922     0.00023994    -0.00055106
     6
  Step:     7            Position(A)                                  Velocity(au)
C        -0.04083675     0.00900780    -0.01168491    -0.00001426    -0.00001103    -0.00084173
N        -0.04479020    -0.05072672     1.32652469     0.00022227    -0.00009384     0.00065837
H         0.95686332     0.02765700    -0.51674480    -0.00017417     0.00042821     0.00027692
H         0.87988289    -0.13439068     1.83042233    -0.00100433     0.00027549     0.00015044
H        -0.94594367    -0.05194919     1.86188268    -0.00137857     0.00049385     0.00097652
H        -0.99470770     0.08647986    -0.57813556    -0.00036176     0.00023777    -0.00052269
     6
  Step:     8            Position(A)                                  Velocity(au)
C        -0.04090575     0.00895817    -0.01655182    -0.00001129    -0.00000727    -0.00092234
N        -0.04356938    -0.05125140     1.33034825     0.00021911    -0.00009665     0.00072757
H         0.95573403     0.03000470    -0.51519749    -0.00023100     0.00042531     0.00028179
H         0.87413958    -0.13285959     1.83121034    -0.00106771     0.00028037     0.00014292
H        -0.95333499    -0.04924823     1.86719843    -0.00129183     0.00048796     0.00094609
H        -0.99658663     0.08778222    -0.58092590    -0.00031980     0.00023607    -0.00049069
     6
  Step:     9            Position(A)                                  Velocity(au)
C        -0.04096100     0.00892772    -0.02183963    -0.00000922    -0.00000402    -0.00098927
N        -0.04237789    -0.05179082     1.33453501     0.00021055    -0.00009862     0.00078595
H         0.95432003     0.03233953    -0.51364234    -0.00027547     0.00042113     0.00027797
H         0.86812778    -0.13130394     1.83199587    -0.00109488     0.00028268     0.00014943
H        -0.96016630    -0.04657696     1.87229881    -0.00117094     0.00048019     0.00089484
H        -0.99822864     0.08907892    -0.58353792    -0.00027486     0.00023434    -0.00045594
     6
  Step:    10            Position(A)                                  Velocity(au)
C        -0.04100749     0.00891379    -0.02747251    -0.00000805    -0.00000126    -0.00104118
N        -0.04124504    -0.05234014     1.33902449     0.00019681    -0.00009962     0.00083221
H         0.95269311     0.03465366    -0.51212890    -0.00030583     0.00041522     0.00026490
H         0.86205305    -0.12973901     1.83285989    -0.00108344     0.00028193     0.00017075
H        -0.96626118    -0.04394727     1.87707677    -0.00102120     0.00046986     0.00082580
H        -0.99962089     0.09036913    -0.58595908    -0.00022857     0.00023226    -0.00041947
     6
  Step:    11            Position(A)                                  Velocity(au)
C        -0.04105014     0.00891378    -0.03336783    -0.00000775     0.00000102    -0.00107742
N        -0.04019877    -0.05289386     1.34374952     0.00017832    -0.00009958     0.00086563
H         0.95093376     0.03693700    -0.51070934    -0.00032100     0.00040737     0.00024246
H         0.85613164    -0.12818230     1.83388644    -0.00103300     0.00027793     0.00020690
H        -0.97147332    -0.04137448     1.88144227    -0.00084908     0.00045661     0.00074264
H        -1.00075941     0.09165057    -0.58818242    -0.00018263     0.00022969    -0.00038245
     6
  Step:    12            Position(A)                                  Velocity(au)
C        -0.04109360     0.00892512    -0.03943995    -0.00000826     0.00000283    -0.00109825
N        -0.03926432    -0.05344625     1.34863942     0.00015580    -0.00009854     0.00088623
H         0.94912765     0.03917850    -0.50943574    -0.00032062     0.00039763     0.00021108
H         0.85057908    -0.12665188     1.83515805    -0.00094549     0.00027084     0.00025704
H        -0.97569225    -0.03887550     1.88532559    -0.00066177     0.00044045     0.00064955
H        -1.00164945     0.09292035    -0.59020716    -0.00013874     0.00022664    -0.00034612
     6
  Step:    13            Position(A)                                  Velocity(au)
C        -0.04114214     0.00894528    -0.04560502    -0.00001637     0.00000722    -0.00190970
N        -0.03846283    -0.05399180     1.35362420     0.00022492    -0.00016697     0.00154673
H         0.94736132     0.04136753    -0.50835743    -0.00052745     0.00066770     0.00029657
H         0.84559657    -0.12516446     1.83675046    -0.00142632     0.00045139     0.00055221
H        -0.97884705    -0.03646684     1.88867977    -0.00080661     0.00072895     0.00095218
H        -1.00230530     0.09417590    -0.59203907    -0.00017015     0.00038599    -0.00053879
     6
  Step:    14            Position(A)                                  Velocity(au)
C        -0.04124826     0.00897385    -0.05592309    -0.00002166     0.00000269    -0.00173600
N        -0.03728677    -0.05489841     1.36201897     0.00018962    -0.00015341     0.00141858
H         0.94480963     0.04507601    -0.50714376    -0.00036694     0.00064437     0.00013193
H         0.83809149    -0.12274238     1.84004555    -0.00120842     0.00040373     0.00062209
H        -0.98280943    -0.03248324     1.89370235    -0.00059533     0.00067965     0.00082389
H        -1.00336500     0.09631907    -0.59527657    -0.00020625     0.00037189    -0.00060481
     6
  Step:    15            Position(A)                                  Velocity(au)
C        -0.04138744     0.00897577    -0.06526455    -0.00002766    -0.00000211    -0.00155171
N        -0.03631548    -0.05572913     1.36968912     0.00015165    -0.00013896     0.00128003
H         0.94320583     0.04866483    -0.50686335    -0.00019381     0.00061973    -0.00003124
H         0.83191166    -0.12059241     1.84379535    -0.00095402     0.00035243     0.00070384
H        -0.98558889    -0.02877006     1.89800999    -0.00038690     0.00062778     0.00069420
H        -1.00464105     0.09838741    -0.59888832    -0.00024310     0.00035614    -0.00066422
     6
  Step:    16            Position(A)                                  Velocity(au)
C        -0.04156294     0.00894982    -0.07357754    -0.00003428    -0.00000706    -0.00137565
N        -0.03556139    -0.05647940     1.37658234     0.00011377    -0.00012523     0.00114651
H         0.94260457     0.05212696    -0.50749923    -0.00001756     0.00059989    -0.00018887
H         0.82723721    -0.11873260     1.84805335    -0.00068470     0.00030218     0.00079799
H        -0.98721136    -0.02534078     1.90160054    -0.00018995     0.00058007     0.00057261
H        -1.00613080     0.10037095    -0.60283367    -0.00028030     0.00034200    -0.00072172
     6
  Step:    17            Position(A)                                  Velocity(au)
C        -0.04177733     0.00889552    -0.08091222    -0.00004147    -0.00001212    -0.00121697
N        -0.03502143    -0.05715353     1.38273037     0.00007738    -0.00011303     0.00102588
H         0.94300611     0.05548845    -0.50901171     0.00015698     0.00058838    -0.00034072
H         0.82412343    -0.11715516     1.85287222    -0.00041369     0.00025532     0.00090441
H        -0.98774956    -0.02217193     1.90452333    -0.00000678     0.00054012     0.00046321
H        -1.00782941     0.10227757    -0.60709767    -0.00031779     0.00033129    -0.00078136
     6
  Step:    18            Position(A)                                  Velocity(au)
C        -0.04203282     0.00881245    -0.08736794    -0.00004910    -0.00001734    -0.00107627
N        -0.03468450    -0.05776027     1.38820730     0.00004297    -0.00010247     0.00091899
H         0.94438347     0.05879438    -0.51136021     0.00032728     0.00058578    -0.00048761
H         0.82254932    -0.11583939     1.85830186    -0.00014808     0.00021220     0.00102041
H        -0.98728815    -0.01922031     1.90684957     0.00016345     0.00050840     0.00036607
H        -1.00973197     0.10412505    -0.61168783    -0.00035484     0.00032412    -0.00084460
     6
  Step:    19            Position(A)                                  Velocity(au)
C        -0.04233086     0.00870005    -0.09304646    -0.00005692    -0.00002269    -0.00095002
N        -0.03453691    -0.05830884     1.39309138     0.00001074    -0.00009326     0.00082323
H         0.94669601     0.06209275    -0.51450920     0.00049056     0.00059075    -0.00062932
H         0.82245394    -0.11476272     1.86437670     0.00010674     0.00017231     0.00114052
H        -0.98590674    -0.01644010     1.90865049     0.00032146     0.00048368     0.00027979
H        -1.01183004     0.10593181    -0.61661996    -0.00038984     0.00031956    -0.00091035
     6
  Step:    20            Position(A)                                  Velocity(au)
C        -0.04267157     0.00855778    -0.09802962    -0.00006460    -0.00002814    -0.00083429
N        -0.03456394    -0.05880688     1.39744601    -0.00001898    -0.00008506     0.00073551
H         0.94988880     0.06542408    -0.51842278     0.00064304     0.00060133    -0.00076435
H         0.82374717    -0.11390561     1.87110141     0.00034447     0.00013512     0.00125776
H        -0.98368052    -0.01379223     1.90998952     0.00046667     0.00046441     0.00020326
H        -1.01410692     0.10771127    -0.62190422    -0.00042070     0.00031640    -0.00097623
     6
  Step:    21            Position(A)                                  Velocity(au)
C        -0.04305330     0.00838533    -0.10237712    -0.00007179    -0.00003360    -0.00072619
N        -0.03474920    -0.05926016     1.40131736    -0.00004569    -0.00007763     0.00065358
H         0.95388773     0.06881806    -0.52305773     0.00078046     0.00061570    -0.00089059
H         0.82630646    -0.11325159     1.87844343     0.00055804     0.00010035     0.00136511
H        -0.98068756    -0.01124611     1.91092375     0.00059738     0.00044938     0.00013609
H        -1.01653517     0.10947041    -0.62753811    -0.00044541     0.00031361    -0.00103971
     6
  Step:    22            Position(A)                                  Velocity(au)
C        -0.04347266     0.00818284    -0.10613255    -0.00007821    -0.00003899    -0.00062398
N        -0.03507381    -0.05967306     1.40473878    -0.00006884    -0.00007081     0.00057604
H         0.95859730     0.07229420    -0.52836018     0.00089880     0.00063232    -0.00100590
H         0.82997387    -0.11278585     1.88633362     0.00074062     0.00006800     0.00145649
H        -0.97701486    -0.00877796     1.91150799     0.00071138     0.00043776     0.00007847
H        -1.01907688     0.11121065    -0.63350555    -0.00046223     0.00031045    -0.00109860
     6
  Step:    23            Position(A)                                  Velocity(au)
C        -0.04392475     0.00795087    -0.10932961    -0.00008361    -0.00004423    -0.00052673
N        -0.03551621    -0.06004910     1.40773574    -0.00008791    -0.00006452     0.00050216
H         0.96390228     0.07586350    -0.53426564     0.00099480     0.00064996    -0.00110850
H         0.83455862    -0.11249394     1.89467189     0.00088664     0.00003816     0.00152714
H        -0.97276125    -0.00636853     1.91179804     0.00080638     0.00042903     0.00003093
H        -1.02168542     0.11292949    -0.63977885    -0.00046986     0.00030641    -0.00115116
     6
  Step:    24            Position(A)                                  Velocity(au)
C        -0.04440353     0.00769039    -0.11199657    -0.00008784    -0.00004925    -0.00043397
N        -0.03605249    -0.06039132     1.41032921    -0.00010253    -0.00005871     0.00043153
H         0.96967224     0.07953016    -0.54070098     0.00106623     0.00066764    -0.00119713
H         0.83984477    -0.11236107     1.90333508     0.00099237     0.00001097     0.00157383
H        -0.96803752    -0.00400157     1.91185230     0.00088035     0.00042288    -0.00000592
H        -1.02430779     0.11462192    -0.64632124    -0.00046744     0.00030124    -0.00119615
     6
  Step:    25            Position(A)                                  Velocity(au)
C        -0.04490227     0.00740277    -0.11415888    -0.00009081    -0.00005400    -0.00034551
N        -0.03665715    -0.06070245     1.41253774    -0.00011249    -0.00005337     0.00036395
H         0.97576730     0.08329296    -0.54758726     0.00111196     0.00068455    -0.00127105
H         0.84560166    -0.11237188     1.91218545     0.00105614    -0.00001345     0.00159485
H        -0.96296477    -0.00166274     1.91173211     0.00093171     0.00041907    -0.00003157
H        -1.02688704     0.11628163    -0.65308959    -0.00045450     0.00029480    -0.00123275
     6
  Step:    26            Position(A)                                  Velocity(au)
C        -0.04541389     0.00708965    -0.11584061    -0.00009250    -0.00005842    -0.00026124
N        -0.03730404    -0.06098509     1.41437845    -0.00011776    -0.00004847     0.00029931
H         0.98204375     0.08714635    -0.55484246     0.00113188     0.00070009    -0.00133005
H         0.85159525    -0.11251066     1.92107912     0.00107833    -0.00003502     0.00158988
H        -0.95767147     0.00066096     1.91150111     0.00095955     0.00041745    -0.00004568
H        -1.02936452     0.11790184    -0.66003664    -0.00043099     0.00028713    -0.00126053
     6
  Step:    27            Position(A)                                  Velocity(au)
C        -0.04593140     0.00675286    -0.11706517    -0.00009296    -0.00006250    -0.00018112
N        -0.03796730    -0.06124172     1.41586758    -0.00011849    -0.00004401     0.00023750
H         0.98835963     0.09108158    -0.56238431     0.00112680     0.00071382    -0.00137440
H         0.85759824    -0.11276154     1.92987318     0.00106094    -0.00005377     0.00155975
H        -0.95228959     0.00298148     1.91122386     0.00096368     0.00041788    -0.00004826
H        -1.03168183     0.11947597    -0.66711315    -0.00039713     0.00027831    -0.00127936
     6
  Step:    28            Position(A)                                  Velocity(au)
C        -0.04644811     0.00639437    -0.11785554    -0.00009228    -0.00006622    -0.00010508
N        -0.03862223    -0.06147472     1.41702071    -0.00011494    -0.00003997     0.00017844
H         0.99457950     0.09508769    -0.57013277     0.00109829     0.00072547    -0.00140474
H         0.86339826    -0.11310888     1.93843154     0.00100729    -0.00006977     0.00150618
H        -0.94695043     0.00530996     1.91096421     0.00094466     0.00042026    -0.00003960
H        -1.03378259     0.12099804    -0.67426961    -0.00035343     0.00026849    -0.00128941
     6
  Step:    29            Position(A)                                  Velocity(au)
C        -0.04695796     0.00601614    -0.11823419    -0.00009056    -0.00006960    -0.00003303
N        -0.03924601    -0.06168636     1.41785275    -0.00010751    -0.00003632     0.00012201
H         1.00057805     0.09915245    -0.57801196     0.00104844     0.00073492    -0.00142201
H         0.86880425    -0.11353770     1.94662939     0.00092157    -0.00008316     0.00143150
H        -0.94178027     0.00765685     1.91078328     0.00090379     0.00042447    -0.00002036
H        -1.03561374     0.12246289    -0.68145778    -0.00030060     0.00025784    -0.00129106
     6
  Step:    30            Position(A)                                  Velocity(au)
C        -0.04745557     0.00562011    -0.11822294    -0.00008796    -0.00007265     0.00003519
N        -0.03981824    -0.06187880     1.41837796    -0.00009668    -0.00003306     0.00006807
H         1.00624261     0.10326317    -0.58595157     0.00097957     0.00074216    -0.00142729
H         0.87365002    -0.11403397     1.95435593     0.00080845    -0.00009415     0.00133840
H        -0.93689640     0.01003192     1.91073771     0.00084304     0.00043041     0.00000848
H        -1.03712653     0.12386628    -0.68863174    -0.00023943     0.00024652    -0.00128481
     6
  Step:    31            Position(A)                                  Velocity(au)
C        -0.04793634     0.00520812    -0.11784279    -0.00008460    -0.00007538     0.00009974
N        -0.04032134    -0.06205403     1.41860986    -0.00008297    -0.00003013     0.00001648
H         1.01147358     0.10740728    -0.59388734     0.00089406     0.00074724    -0.00142169
H         0.87779647    -0.11458494     1.96151608     0.00067286    -0.00010300     0.00122975
H        -0.93240331     0.01244423     1.91087758     0.00076500     0.00043794     0.00004559
H        -1.03827688     0.12520487    -0.69574847    -0.00017077     0.00023468    -0.00127121
     6
  Step:    32            Position(A)                                  Velocity(au)
C        -0.04839640     0.00478189    -0.11711375    -0.00008062    -0.00007782     0.00016085
N        -0.04074093    -0.06221387     1.41856122    -0.00006697    -0.00002752    -0.00003291
H         1.01618488     0.11157279    -0.60176134     0.00079427     0.00075029    -0.00140633
H         0.88113254    -0.11517935     1.96803127     0.00051973    -0.00010998     0.00110846
H        -0.92838924     0.01490197     1.91124465     0.00067281     0.00044687     0.00008932
H        -1.03902553     0.12647606    -0.70276818    -0.00009547     0.00022245    -0.00125083
     6
  Step:    33            Position(A)                                  Velocity(au)
C        -0.04883263     0.00434297    -0.11605462    -0.00007614    -0.00008000     0.00021872
N        -0.04106590    -0.06235993     1.41824403    -0.00004927    -0.00002517    -0.00008023
H         1.02030367     0.11574851    -0.60952188     0.00068248     0.00075146    -0.00138225
H         0.88357444    -0.11580759     1.97383909     0.00035375    -0.00011539     0.00097728
H        -0.92492344     0.01741220     1.91187063     0.00057002     0.00045697     0.00013779
H        -1.03933819     0.12767789    -0.70965431    -0.00001440     0.00020991    -0.00122420
     6
  Step:    34            Position(A)                                  Velocity(au)
C        -0.04924253     0.00389278    -0.11468303    -0.00007125    -0.00008194     0.00027356
N        -0.04128846    -0.06249355     1.41766961    -0.00003044    -0.00002303    -0.00012559
H         1.02376960     0.11992416    -0.61712304     0.00056080     0.00075088    -0.00135039
H         0.88506391    -0.11646170     1.97889235     0.00017926    -0.00011951     0.00083879
H        -0.92205428     0.01998057     1.91277594     0.00046044     0.00046796     0.00018887
H        -1.03918555     0.12880889    -0.71637339     0.00007156     0.00019714    -0.00119181
     6
  Step:    35            Position(A)                                  Velocity(au)
C        -0.04962422     0.00343262    -0.11301546    -0.00006606    -0.00008366     0.00032557
N        -0.04140408    -0.06261581     1.41684877    -0.00001107    -0.00002107    -0.00016908
H         1.02653388     0.12409036    -0.62452406     0.00043117     0.00074866    -0.00131155
H         0.88556592    -0.11713529     1.98315763     0.00000026    -0.00012263     0.00069531
H        -0.91980815     0.02261100     1.91396883     0.00034803     0.00047947     0.00024032
H        -1.03854316     0.12986796    -0.72289474     0.00016155     0.00018417    -0.00115408
     6
  Step:    36            Position(A)                                  Velocity(au)
C        -0.04997622     0.00296366    -0.11106739    -0.00006064    -0.00008518     0.00037488
N        -0.04141136    -0.06272753     1.41579194     0.00000830    -0.00001922    -0.00021072
H         1.02855792     0.12823842    -0.63168850     0.00029533     0.00074490    -0.00126639
H         0.88506676    -0.11782357     1.98661415    -0.00017953    -0.00012501     0.00054904
H        -0.91818922     0.02530536     1.91544485     0.00023673     0.00049110     0.00028986
H        -1.03739141     0.13085422    -0.72919003     0.00025469     0.00017105    -0.00111135
     6
  Step:    37            Position(A)                                  Velocity(au)
C        -0.05029746     0.00248700    -0.10885355    -0.00005504    -0.00008649     0.00042158
N        -0.04131190    -0.06282922     1.41450936     0.00002714    -0.00001744    -0.00025053
H         1.02981258     0.13236021    -0.63858349     0.00015491     0.00073965    -0.00121547
H         0.88357282    -0.11852319     1.98925300    -0.00035653    -0.00012692     0.00040206
H        -0.91717998     0.02806319     1.91718686     0.00013033     0.00050240     0.00033522
H        -1.03571557     0.13176695    -0.73523292     0.00035007     0.00015778    -0.00106394
     6
  Step:    38            Position(A)                                  Velocity(au)
C        -0.05058716     0.00200369    -0.10638820    -0.00004931    -0.00008761     0.00046570
N        -0.04111016    -0.06292110     1.41301126     0.00004494    -0.00001567    -0.00028847
H         1.03027732     0.13644792    -0.64517917     0.00001144     0.00073294    -0.00115924
H         0.88110957    -0.11923225     1.99107666    -0.00052733    -0.00012859     0.00025643
H        -0.91674264     0.03088155     1.91916552     0.00003232     0.00051288     0.00037427
H        -1.03350593     0.13260549    -0.74099878     0.00044673     0.00014439    -0.00101209
     6
  Step:    39            Position(A)                                  Velocity(au)
C        -0.05084473     0.00151479    -0.10368546    -0.00004349    -0.00008852     0.00050720
N        -0.04081322    -0.06300310     1.41130807     0.00006124    -0.00001386    -0.00032447
H         1.02993955     0.14049391    -0.65144802    -0.00013363     0.00072475    -0.00109808
H         0.87772085    -0.11995018     1.99209871    -0.00068857    -0.00013026     0.00011419
H        -0.91682127     0.03375487     1.92134025    -0.00005424     0.00052207     0.00040507
H        -1.03075803     0.13336927    -0.74646450     0.00054365     0.00013087    -0.00095607
     6
  Step:    40            Position(A)                                  Velocity(au)
C        -0.05106977     0.00102134    -0.10075970    -0.00003760    -0.00008924     0.00054600
N        -0.04043059    -0.06307492     1.40941056     0.00007563    -0.00001197    -0.00035844
H         1.02879444     0.14449054    -0.65736467    -0.00027883     0.00071508    -0.00103238
H         0.87346841    -0.12067773     1.99234382    -0.00083702    -0.00013216    -0.00002261
H        -0.91734451     0.03667501     1.92366065    -0.00012683     0.00052950     0.00042602
H        -1.02747301     0.13405776    -0.75160842     0.00063974     0.00011725    -0.00089617
     6
  Step:    41            Position(A)                                  Velocity(au)
C        -0.05126201     0.00052442    -0.09762580    -0.00003167    -0.00008974     0.00058194
N        -0.03997388    -0.06313598     1.40732999     0.00008774    -0.00000997    -0.00039026
H         1.02684496     0.14843015    -0.66290578    -0.00042269     0.00070393    -0.00096255
H         0.86843135    -0.12141689     1.99184781    -0.00096951    -0.00013450    -0.00015188
H        -0.91822885     0.03963146     1.92606835    -0.00018355     0.00053476     0.00043585
H        -1.02365794     0.13467053    -0.75641048     0.00073386     0.00010355    -0.00083270
     6
  Step:    42            Position(A)                                  Velocity(au)
C        -0.05142135     0.00002516    -0.09429940    -0.00002573    -0.00009001     0.00061486
N        -0.03945657    -0.06318556     1.40507819     0.00009727    -0.00000781    -0.00041981
H         1.02410202     0.15230505    -0.66805025    -0.00056370     0.00069129    -0.00088904
H         0.86270555    -0.12217086     1.99065772    -0.00108308    -0.00013750    -0.00027157
H        -0.91938217     0.04261157     1.92849912    -0.00022319     0.00053751     0.00043373
H        -1.01932616     0.13520730    -0.76085243     0.00082482     0.00008981    -0.00076605
     6
  Step:    43            Position(A)                                  Velocity(au)
C        -0.05154778    -0.00047528    -0.09079717    -0.00001981    -0.00009007     0.00064456
N        -0.03889357    -0.06322273     1.40266762     0.00010400    -0.00000549    -0.00044697
H         1.02058456     0.15610764    -0.67277941    -0.00070034     0.00067723    -0.00081237
H         0.85640265    -0.12294400     1.98883174    -0.00117496    -0.00014137    -0.00037963
H        -0.92070761     0.04560102     1.93088535    -0.00024525     0.00053749     0.00041930
H        -1.01449746     0.13566800    -0.76491822     0.00091142     0.00007609    -0.00069671
     6
  Step:    44            Position(A)                                  Velocity(au)
C        -0.05164147    -0.00097570    -0.08713682    -0.00001393    -0.00008989     0.00067086
N        -0.03830093    -0.06324651     1.40011133     0.00010775    -0.00000298    -0.00047165
H         1.01631965     0.15983060    -0.67707751    -0.00083114     0.00066182    -0.00073315
H         0.84964902    -0.12374182     1.98643911    -0.00124271    -0.00014630    -0.00047413
H        -0.92210744     0.04858435     1.93315854    -0.00024992     0.00053458     0.00039267
H        -1.00919822     0.13605282    -0.76859446     0.00099246     0.00006244    -0.00062524
     6