|===============================================================================
|
|  DFTB+ release 20.1
|
|  Copyright (C) 2006 - 2020  DFTB+ developers group
|
|===============================================================================
|
|  When publishing results obtained with DFTB+, please cite the following
|  reference:
|
|  * DFTB+, a software package for efficient approximate density functional
|    theory based atomistic simulations, J. Chem. Phys. 152, 124101 (2020).
|    [doi: 10.1063/1.5143190]
|
|  You should also cite additional publications crediting the parametrization
|  data you use. Please consult the documentation of the SK-files for the
|  references.
|
|===============================================================================

Reading input file 'dftb_in.hsd'
Parser version: 8

--------------------------------------------------------------------------------
Reading SK-files:
Done.


Processed input in HSD format written to 'dftb_pin.hsd'

Starting initialization...
--------------------------------------------------------------------------------
OpenMP threads:              1
Chosen random seed:          449650667
Mode:                        Static calculation
Self consistent charges:     Yes
SCC-tolerance:                 0.100000E-05
Max. scc iterations:                   1000
Shell resolved Hubbard:      No
Spin polarisation:           No
Nr. of up electrons:             6.000000
Nr. of down electrons:           6.000000
Periodic boundaries:         No
Electronic solver:           Relatively robust
Maximal SCC-cycles:                    1000
Initial charges:             Set automatically (system chrg:   0.100E+01)
Included shells:             C:  s, p
                             N:  s, p
                             H:  s
Spin coupling constants:     C   1(s)-1(s):  -0.455900E-01
                             C   1(s)-2(p):  -0.293000E-01
                             C   2(p)-1(s):  -0.293000E-01
                             C   2(p)-2(p):  -0.275500E-01
                             N   1(s)-1(s):  -0.468700E-01
                             N   1(s)-2(p):  -0.317000E-01
                             N   2(p)-1(s):  -0.317000E-01
                             N   2(p)-2(p):  -0.307200E-01
                             H   1(s)-1(s):  -0.792500E-01
Range separated hybrid:      Yes
  Screening parameter omega:   0.300000E+00
  Range separated algorithm:   MatrixBased
Extra options:
                             Mulliken analysis
                             Force calculation
Force type                   original
                             Eigenvector printing


REKS Calcuation:             Yes
SSR(2,2) Calcuation:         Yes
Energy Functional:           (PPS+OSS)/2
Number of Core Orbitals:                  5
Number of Active Orbitals:                2
Number of Basis:                         12
Number of States:                         2
State-Averaging Weight:          0.500000
                                 0.500000
State of Interest:                        1
Initial Guess:               Diagonalize H0 matrix
Newton-Raphson for FON opt:  Yes
NR max. Iterations:                      50
Level Shifting:              Yes
Shift Value:                     0.300000
W Scale Factor:              C  =    3.200000
                             N  =    3.200000
                             H  =    3.200000
Transition Dipole:           No
Gradient of Microstate:      No
CP-REKS Solver:              Preconditioned Conjugate-Gradient
CG max. Iterations:                     100
CG Tolerance:                  0.100000E-07
Memory for A and Hxc:        Direct Updating Without Saving
Non-Adiabatic Coupling:      Yes

--------------------------------------------------------------------------------

***  Geometry step: 0

  iSCC       reks energy        Diff energy         x_a       SCC error   
    1       -6.1395881274       0.0000000000     0.997948    0.92835854
    2       -6.1472726886      -0.0076845612     0.999741    0.04434413
    3       -6.1498891838      -0.0026164952     0.999945    0.02688472
    4       -6.1508337636      -0.0009445798     0.999981    0.01434994
    5       -6.1512351242      -0.0004013606     0.999990    0.00775623
    6       -6.1514357739      -0.0002006497     0.999994    0.00517275
    7       -6.1515467421      -0.0001109681     0.999995    0.00413954
    8       -6.1516114754      -0.0000647334     0.999996    0.00332472
    9       -6.1516502712      -0.0000387958     0.999997    0.00265672
   10       -6.1516738384      -0.0000235672     0.999997    0.00211015
   11       -6.1516882516      -0.0000144132     0.999997    0.00166782
   12       -6.1516970962      -0.0000088446     0.999997    0.00131350
   13       -6.1517025330      -0.0000054368     0.999998    0.00103186
   14       -6.1517058783      -0.0000033452     0.999998    0.00080921
   15       -6.1517079378      -0.0000020596     0.999998    0.00063385
   16       -6.1517092064      -0.0000012686     0.999998    0.00049609
   17       -6.1517099882      -0.0000007818     0.999998    0.00038807
   18       -6.1517104702      -0.0000004820     0.999998    0.00030346
   19       -6.1517107675      -0.0000002973     0.999998    0.00023725
   20       -6.1517109510      -0.0000001835     0.999998    0.00018546
   21       -6.1517110643      -0.0000001133     0.999998    0.00014497
   22       -6.1517111343      -0.0000000700     0.999998    0.00011333
   23       -6.1517111775      -0.0000000433     0.999998    0.00008860
   24       -6.1517112043      -0.0000000268     0.999998    0.00006927
   25       -6.1517112209      -0.0000000166     0.999998    0.00005417
   26       -6.1517112311      -0.0000000103     0.999998    0.00004236
   27       -6.1517112375      -0.0000000064     0.999998    0.00003314
   28       -6.1517112414      -0.0000000039     0.999998    0.00002593
   29       -6.1517112439      -0.0000000024     0.999998    0.00002029
   30       -6.1517112454      -0.0000000015     0.999998    0.00001588
   31       -6.1517112463      -0.0000000009     0.999998    0.00001243
   32       -6.1517112469      -0.0000000006     0.999998    0.00000973
   33       -6.1517112473      -0.0000000004     0.999998    0.00000762
   34       -6.1517112475      -0.0000000002     0.999998    0.00000597
   35       -6.1517112477      -0.0000000001     0.999998    0.00000468
   36       -6.1517112478      -0.0000000001     0.999998    0.00000367
   37       -6.1517112478      -0.0000000001     0.999998    0.00000287
   38       -6.1517112478      -0.0000000000     0.999998    0.00000225
   39       -6.1517112479      -0.0000000000     0.999998    0.00000177
   40       -6.1517112479      -0.0000000000     0.999998    0.00000139
   41       -6.1517112479      -0.0000000000     0.999998    0.00000109
   42       -6.1517112479      -0.0000000000     0.999998    0.00000085
  
--------------------------------------------------
 Final SA-REKS(2,2) energy:      -6.15171125
  
 State     Energy      FON(1)    FON(2)   Spin
  PPS   -6.19541323   1.999996  0.000004  0.00
  OSS   -6.10800927   1.000000  1.000000  0.00
 Trip   -6.14721878   1.000000  1.000000  1.00
--------------------------------------------------

 Lagrangian Wab:   0.02827824  0.02827841

--------------------------------------------------
 SSR: 2SI-2SA-REKS(2,2) Hamiltonian matrix
               PPS           OSS
   PPS    -6.19541323    0.03993442
   OSS     0.03993442   -6.10800927
--------------------------------------------------

----------------------------------------------------------------
 SSR: 2SI-2SA-REKS(2,2) states
                    E_n       C_{PPS}    C_{OSS}
 SSR state  1   -6.21091109  -0.932258   0.361793
 SSR state  2   -6.09251140  -0.361793  -0.932258
----------------------------------------------------------------

 unrelaxed SSR FONs for S0:  1.869102  0.130898

Total Energy:                       -6.2109110909 H         -169.0075 eV
Extrapolated to 0:                  -6.2109110909 H         -169.0075 eV

----------------------------------------------------------------------------------
 Solving CP-REKS equation for  1 state vector...
----------------------------------------------------------------------------------
  CG solver: Constructing Y initial guess
  CG solver: Iteration    1    eps =    0.004403663984
  CG solver: Iteration    2    eps =    0.000194535238
  CG solver: Iteration    3    eps =    0.000008551611
  CG solver: Iteration    4    eps =    0.000000924495
  CG solver: Iteration    5    eps =    0.000000225939
  CG solver: Iteration    6    eps =    0.000000017742
  CG solver: Iteration    7    eps =    0.000000001092
  Convergence reached in CG solver after    7 iterations
  CG solver: Calculating converged R, Z, Q2 matrix
----------------------------------------------------------------------------------

----------------------------------------------------------------------------------
 Solving CP-REKS equation for SI between  1 and  2 state vectors...
----------------------------------------------------------------------------------
  CG solver: Constructing Y initial guess
  CG solver: Iteration    1    eps =    0.006154624855
  CG solver: Iteration    2    eps =    0.002202955740
  CG solver: Iteration    3    eps =    0.000090275273
  CG solver: Iteration    4    eps =    0.000010497321
  CG solver: Iteration    5    eps =    0.000001332620
  CG solver: Iteration    6    eps =    0.000000224262
  CG solver: Iteration    7    eps =    0.000000014762
  CG solver: Iteration    8    eps =    0.000000000844
  Convergence reached in CG solver after    8 iterations
  CG solver: Calculating converged R, Z, Q2 matrix
----------------------------------------------------------------------------------

--------------------------------------------------
 Gradient Information
--------------------------------------------------
           1 st state (SSR)
     0.05679666     0.00034219    -0.12001953
     0.11331014    -0.05340190     0.14791937
     0.04867873     0.02705490     0.02646701
    -0.13202338     0.00014285    -0.07416952
    -0.01921153     0.03374723    -0.05433042
    -0.06755062    -0.00788526     0.07413307

           2 st state (SSR)
     0.04423942     0.03655933     0.01189460
     0.14493422    -0.07441080     0.06388536
     0.05314780    -0.00815916     0.01699749
    -0.13262022     0.02489851    -0.08764024
    -0.04543822     0.01575273    -0.07062089
    -0.06426300     0.00535939     0.06548367
--------------------------------------------------
 Coupling Information
--------------------------------------------------
 between  1 and  2 states
--------------------------------------------------
 g vector - difference gradient
     0.00809156    -0.02454012    -0.08940358
    -0.00736235     0.04682629     0.05388330
    -0.00367585     0.01473338     0.00593158
    -0.00499703    -0.02434501     0.00617398
     0.00608004    -0.00726375     0.02215748
     0.00186364    -0.00541079     0.00125723

 h vector - derivative coupling
    -0.00045265    -0.00001070    -0.00006174
     0.01538324     0.03567197    -0.00332027
    -0.00071011    -0.00997774    -0.00052776
    -0.00591086    -0.00829259    -0.00322822
    -0.01278592    -0.02128679     0.01217319
     0.00447629     0.00389585    -0.00503520

 G vector - GDV
     0.00627862    -0.01810857    -0.06595706
    -0.01581204     0.01050445     0.04201701
    -0.00223454     0.01760703     0.00473476
     0.00029842    -0.01237783     0.00673536
     0.01311334     0.00899725     0.00814524
    -0.00164381    -0.00662233     0.00432470

 H vector - DCV - non-adiabatic coupling
     0.04327856    -0.13988143    -0.50975241
     0.05396682     0.48919930     0.28629287
    -0.02537021     0.02173160     0.03050402
    -0.06532370    -0.19040672     0.01504796
    -0.04507864    -0.17410562     0.20213863
     0.03852717    -0.00653713    -0.02423107
--------------------------------------------------


--------------------------------------------------------------------------------
DFTB+ running times                          cpu [s]             wall clock [s]
--------------------------------------------------------------------------------
SCC                                    +     0.02  ( 61.7%)      0.02  ( 59.5%)
Post-SCC processing                    +     0.01  ( 33.9%)      0.01  ( 29.7%)
  Force calculation                          0.01  ( 33.2%)      0.01  ( 27.0%)
--------------------------------------------------------------------------------
Missing                                +     0.00  (  4.5%)      0.00  ( 10.8%)
Total                                  =     0.03  (100.0%)      0.04  (100.0%)
--------------------------------------------------------------------------------
