     6
  Step:   300            Position(A)                                  Velocity(au)
C        -0.05259418    -0.00193232     0.02984825     0.00000498     0.00005258    -0.00003777
N        -0.05588462    -0.04372407     1.28594120    -0.00002147     0.00004341     0.00007764
H         0.02521623     0.98858998    -0.40414623    -0.00150753    -0.00008971    -0.00076333
H        -0.01696107    -0.89211861     1.86470588    -0.00123993     0.00012404    -0.00001707
H         0.36011963     0.72770989     1.82732876     0.00158899    -0.00108849     0.00006240
H        -0.17800352    -0.86335402    -0.62137805     0.00139752    -0.00017568     0.00008924
