     6
  Step:     0            Position(A)                                  Velocity(au)
C        -0.04111819     0.00977079     0.00883719     0.00001357     0.00007083    -0.00026084
N        -0.03175476    -0.06231988     1.30493451     0.00001414    -0.00003384     0.00018704
H         0.90112773     0.02617763    -0.50548169     0.00023457    -0.00031297     0.00012625
H         0.77684773    -0.05554547     1.85844471     0.00027643     0.00010025     0.00014515
H        -0.96748580    -0.02015571     1.83163167    -0.00044989    -0.00003626     0.00063686
H        -0.99218575     0.12933574    -0.53168701    -0.00041922    -0.00012474    -0.00039929
     6
  Step:     1            Position(A)                                  Velocity(au)
C        -0.04105881     0.01015558     0.00708560     0.00000790     0.00007001    -0.00037860
N        -0.03176425    -0.06253650     1.30622764    -0.00001757    -0.00004526     0.00028521
H         0.90270153     0.02459529    -0.50495393     0.00033962    -0.00026636     0.00006666
H         0.77910207    -0.05486592     1.85966157     0.00054312     0.00014764     0.00029697
H        -0.96957061    -0.02026443     1.83494706    -0.00030798    -0.00000416     0.00057298
H        -0.99450437     0.12877256    -0.53384509    -0.00042467    -0.00008241    -0.00038859
     6
  Step:     2            Position(A)                                  Velocity(au)
C        -0.04103177     0.01053648     0.00469644     0.00000185     0.00006942    -0.00049363
N        -0.03194693    -0.06281485     1.30805384    -0.00004879    -0.00005638     0.00038174
H         0.90484216     0.02326446    -0.50475264     0.00044093    -0.00022120     0.00000737
H         0.78278786    -0.05393079     1.86169261     0.00079625     0.00019355     0.00044054
H        -0.97085422    -0.02020121     1.83789834    -0.00015879     0.00002656     0.00050499
H        -0.99683035     0.12843442    -0.53593699    -0.00042230    -0.00004254    -0.00037555
     6
  Step:     3            Position(A)                                  Velocity(au)
C        -0.04103860     0.01091472     0.00168728    -0.00000438     0.00006898    -0.00060455
N        -0.03229783    -0.06315309     1.31040229    -0.00007867    -0.00006708     0.00047562
H         0.90752347     0.02217626    -0.50487334     0.00053615    -0.00017764    -0.00005063
H         0.78780987    -0.05274929     1.86447925     0.00102782     0.00023741     0.00057082
H        -0.97130707    -0.01997401     1.84046964    -0.00000601     0.00005575     0.00043491
H        -0.99912262     0.12830738    -0.53795207    -0.00041250    -0.00000525    -0.00036064
     6
  Step:     4            Position(A)                                  Velocity(au)
C        -0.04107964     0.01129107    -0.00191687    -0.00001054     0.00006860    -0.00070964
N        -0.03280751    -0.06354867     1.31325672    -0.00010634    -0.00007719     0.00056553
H         0.91070728     0.02132121    -0.50530647     0.00062297    -0.00013581    -0.00010635
H         0.79403145    -0.05133370     1.86793692     0.00123010     0.00027855     0.00068307
H        -0.97091995    -0.01959138     1.84265595     0.00014623     0.00008327     0.00036481
H        -1.00134282     0.12837697    -0.53988207    -0.00039585     0.00002931    -0.00034425
     6
  Step:     5            Position(A)                                  Velocity(au)
C        -0.04115397     0.01166573    -0.00608182    -0.00001639     0.00006815    -0.00080690
N        -0.03346207    -0.06399819     1.31659367    -0.00013096    -0.00008653     0.00064986
H         0.91434368     0.02068945    -0.50603761     0.00069912    -0.00009582    -0.00015887
H         0.80127691    -0.04969980     1.87195746     0.00139606     0.00031620     0.00077317
H        -0.96970614    -0.01906239     1.84446354     0.00029333     0.00010900     0.00029690
H        -1.00345633     0.12862827    -0.54172086    -0.00037317     0.00006102    -0.00032683
     6
  Step:     6            Position(A)                                  Velocity(au)
C        -0.04125936     0.01203820    -0.01076262    -0.00002170     0.00006751    -0.00089412
N        -0.03424320    -0.06449728     1.32038088    -0.00015172    -0.00009490     0.00072675
H         0.91837139     0.02027082    -0.50704804     0.00076248    -0.00005777    -0.00020737
H         0.80933591    -0.04786732     1.87641285     0.00151984     0.00034958     0.00083786
H        -0.96770426    -0.01839648     1.84591070     0.00043018     0.00013285     0.00023353
H        -1.00543367     0.12904594    -0.54346502    -0.00034551     0.00008977    -0.00030892
     6
  Step:     7            Position(A)                                  Velocity(au)
C        -0.04139233     0.01240721    -0.01590258    -0.00002623     0.00006653    -0.00096907
N        -0.03512849    -0.06504057     1.32457612    -0.00016789    -0.00010212     0.00079426
H         0.92271852     0.02005491    -0.50831529     0.00081122    -0.00002179    -0.00025117
H         0.81797046    -0.04586008     1.88116031     0.00159726     0.00037791     0.00087509
H        -0.96498115    -0.01760325     1.84702857     0.00055134     0.00015477     0.00017717
H        -1.00725128     0.12961426    -0.54511392    -0.00031411     0.00011544    -0.00029104
     6
  Step:     8            Position(A)                                  Velocity(au)
C        -0.04154817     0.01277078    -0.02143337    -0.00002977     0.00006511    -0.00102978
N        -0.03609192    -0.06562173     1.32912679    -0.00017893    -0.00010801     0.00085058
H         0.92730407     0.02003090    -0.50981381     0.00084397     0.00001199    -0.00028973
H         0.82692395    -0.04370600     1.88604884     0.00162621     0.00040050     0.00088420
H        -0.96163327    -0.01669229     1.84786156     0.00065146     0.00017476     0.00013024
H        -1.00889247     0.13031709    -0.54666976    -0.00028038     0.00013795    -0.00027377
     6
  Step:     9            Position(A)                                  Velocity(au)
C        -0.04172114     0.01312630    -0.02727643    -0.00003217     0.00006316    -0.00107482
N        -0.03710472    -0.06623356     1.33397069    -0.00018447    -0.00011247     0.00089425
H         0.93204015     0.02018735    -0.51151532     0.00085994     0.00004341    -0.00032257
H         0.83593183    -0.04143654     1.89092625     0.00160701     0.00041687     0.00086603
H        -0.95778583    -0.01567299     1.84846706     0.00072579     0.00019291     0.00009495
H        -1.01034806     0.13113788    -0.54813767    -0.00024581     0.00015725    -0.00025768
     6
  Step:    10            Position(A)                                  Velocity(au)
C        -0.04190472     0.01347077    -0.03334584    -0.00003333     0.00006065    -0.00110357
N        -0.03813648    -0.06686831     1.33903799    -0.00018446    -0.00011547     0.00092447
H         0.93683499     0.02051198    -0.51338892     0.00085907     0.00007230    -0.00034925
H         0.84473481    -0.03908573     1.89564726     0.00154269     0.00042683     0.00082300
H        -0.95358915    -0.01455418     1.84891390     0.00077080     0.00020938     0.00007302
H        -1.01161682     0.13205989    -0.54952570    -0.00021191     0.00017337    -0.00024335
     6
  Step:    11            Position(A)                                  Velocity(au)
C        -0.04209195     0.01380104    -0.03955272    -0.00005580     0.00009673    -0.00187407
N        -0.03915671    -0.06751806     1.34425463    -0.00030069    -0.00019649     0.00157999
H         0.94159661     0.02099159    -0.51540047     0.00141367     0.00016544    -0.00062019
H         0.85309295    -0.03668845     1.90008145     0.00241508     0.00072276     0.00127384
H        -0.94921131    -0.01334382     1.84927935     0.00131719     0.00037673     0.00010993
H        -1.01270537     0.13306652    -0.55084473    -0.00030233     0.00031303    -0.00038829
     6
  Step:    12            Position(A)                                  Velocity(au)
C        -0.04240334     0.01432032    -0.04969208    -0.00005336     0.00008658    -0.00170580
N        -0.04079794    -0.06858967     1.35285530    -0.00027628    -0.00018201     0.00145573
H         0.94963379     0.02190773    -0.51920309     0.00141553     0.00015802    -0.00071476
H         0.86615704    -0.03271704     1.90698722     0.00218233     0.00067961     0.00115557
H        -0.94196302    -0.01130869     1.84993124     0.00122276     0.00034385     0.00013229
H        -1.01453651     0.13484800    -0.55329699    -0.00034534     0.00031627    -0.00047621
     6
  Step:    13            Position(A)                                  Velocity(au)
C        -0.04269671     0.01478232    -0.05888654    -0.00002603     0.00004023    -0.00080985
N        -0.04228817    -0.06958105     1.36075420    -0.00013020    -0.00008837     0.00070029
H         0.95764053     0.02278262    -0.52350168     0.00073689     0.00007924    -0.00041786
H         0.87782791    -0.02898562     1.91317887     0.00101258     0.00033519     0.00053823
H        -0.93535230    -0.00944661     1.85077876     0.00057480     0.00016581     0.00009324
H        -1.01661949     0.13665121    -0.55624222    -0.00020481     0.00016840    -0.00029496
     6
  Step:    14            Position(A)                                  Velocity(au)
C        -0.04283211     0.01499848    -0.06341705    -0.00002163     0.00003625    -0.00079068
N        -0.04296548    -0.07007835     1.36468286    -0.00010865    -0.00008738     0.00068729
H         0.96160708     0.02329296    -0.52584528     0.00066341     0.00010037    -0.00040927
H         0.88297077    -0.02712031     1.91589504     0.00080472     0.00032372     0.00042234
H        -0.93235983    -0.00845606     1.85143543     0.00047635     0.00018463     0.00014289
H        -1.01769550     0.13762011    -0.55787979    -0.00017690     0.00017364    -0.00028504
     6
  Step:    15            Position(A)                                  Velocity(au)
C        -0.04294140     0.01519249    -0.06783273    -0.00001702     0.00003273    -0.00077716
N        -0.04351749    -0.07056976     1.36853058    -0.00008707    -0.00008716     0.00067860
H         0.96514672     0.02391825    -0.52813242     0.00059261     0.00012117    -0.00040223
H         0.88693294    -0.02532283     1.91795746     0.00060344     0.00031447     0.00031149
H        -0.92996258    -0.00735764     1.85239550     0.00037002     0.00020592     0.00020135
H        -1.01862108     0.13861592    -0.55946728    -0.00015319     0.00017976    -0.00027998
     6
  Step:    16            Position(A)                                  Velocity(au)
C        -0.04302370     0.01536687    -0.07216520    -0.00001221     0.00002955    -0.00076849
N        -0.04394563    -0.07105952     1.37232152    -0.00006555    -0.00008763     0.00067360
H         0.96827781     0.02465690    -0.53037302     0.00052385     0.00014205    -0.00039676
H         0.88976343    -0.02358045     1.91940137     0.00040844     0.00030715     0.00020561
H        -0.92819466    -0.00613809     1.85370194     0.00025719     0.00022974     0.00026730
H        -1.01941987     0.13964355    -0.56103144    -0.00013312     0.00018675    -0.00027932
     6
  Step:    17            Position(A)                                  Velocity(au)
C        -0.04307813     0.01552349    -0.07644161    -0.00000717     0.00002659    -0.00076305
N        -0.04425176    -0.07155143     1.37607641    -0.00004413    -0.00008861     0.00067095
H         0.97101499     0.02550958    -0.53257702     0.00045605     0.00016317    -0.00039240
H         0.89150843    -0.02188201     1.92026076     0.00021941     0.00030118     0.00010461
H        -0.92708144    -0.00478398     1.85538982     0.00013944     0.00025580     0.00033890
H        -1.02011237     0.14070794    -0.56259627    -0.00011613     0.00019438    -0.00028231
     6
  Step:    18            Position(A)                                  Velocity(au)
C        -0.04310376     0.01566361    -0.08068014    -0.00000195     0.00002376    -0.00075919
N        -0.04443807    -0.07204834     1.37980868    -0.00002301    -0.00008992     0.00066928
H         0.97336692     0.02647777    -0.53475182     0.00038849     0.00018451    -0.00038866
H         0.89221182    -0.02021953     1.92056869     0.00003709     0.00029600     0.00000896
H        -0.92663866    -0.00328365     1.85748370     0.00001915     0.00028359     0.00041386
H        -1.02071571     0.14181269    -0.56418176    -0.00010172     0.00020234    -0.00028825
     6
  Step:    19            Position(A)                                  Velocity(au)
C        -0.04309978     0.01578792    -0.08488988     0.00000343     0.00002099    -0.00075555
N        -0.04450784    -0.07255207     1.38352421    -0.00000253    -0.00009140     0.00066748
H         0.97533811     0.02756287    -0.53690201     0.00032094     0.00020599    -0.00038518
H         0.89192115    -0.01858812     1.92036048    -0.00013666     0.00029119    -0.00008028
H        -0.92686831    -0.00162822     1.85999528    -0.00010046     0.00031254     0.00048959
H        -1.02124428     0.14295958    -0.56580392    -0.00008955     0.00021030    -0.00029651
     6
  Step:    20            Position(A)                                  Velocity(au)
C        -0.04306563     0.01589674    -0.08907253     0.00000889     0.00001823    -0.00075117
N        -0.04446616    -0.07306356     1.38722281     0.00001688    -0.00009292     0.00066476
H         0.97693185     0.02876582    -0.53903021     0.00025369     0.00022749    -0.00038178
H         0.89069383    -0.01698508     1.91967692    -0.00029918     0.00028653    -0.00016170
H        -0.92775450     0.00018795     1.86292194    -0.00021565     0.00034207     0.00056341
H        -1.02171039     0.14414866    -0.56747530    -0.00007936     0.00021801    -0.00030659
     6
  Step:    21            Position(A)                                  Velocity(au)
C        -0.04300117     0.01599014    -0.09322446     0.00001432     0.00001545    -0.00074541
N        -0.04432049    -0.07358306     1.39089993     0.00003474    -0.00009440     0.00066059
H         0.97815286     0.03008701    -0.54113805     0.00018732     0.00024894    -0.00037846
H         0.88860166    -0.01540893     1.91856639    -0.00044732     0.00028194    -0.00023364
H        -0.92926107     0.00216724     1.86624649    -0.00032255     0.00037163     0.00063268
H        -1.02212478     0.14537850    -0.56920561    -0.00007092     0.00022524    -0.00031805
     6
  Step:    22            Position(A)                                  Velocity(au)
C        -0.04290679     0.01606807    -0.09733847     0.00001964     0.00001265    -0.00073785
N        -0.04408088    -0.07411038     1.39454816     0.00005056    -0.00009578     0.00065466
H         0.97900909     0.03152639    -0.54322695     0.00012267     0.00027027    -0.00037527
H         0.88573347    -0.01385862     1.91708610    -0.00057774     0.00027744    -0.00029440
H        -0.93133126     0.00430895     1.86993784    -0.00041743     0.00040068     0.00069505
H        -1.02249683     0.14664637    -0.57100217    -0.00006403     0.00023180    -0.00033053
     6
  Step:    23            Position(A)                                  Velocity(au)
C        -0.04278343     0.01613043    -0.10140514     0.00002472     0.00000983    -0.00072828
N        -0.04375996    -0.07464495     1.39815826     0.00006386    -0.00009700     0.00064680
H         0.97951289     0.03308356    -0.54529869     0.00006065     0.00029144    -0.00037236
H         0.88219614    -0.01233292     1.91530233    -0.00068716     0.00027313    -0.00034236
H        -0.93388917     0.00660960     1.87395258    -0.00049706     0.00042877     0.00074847
H        -1.02283467     0.14794849    -0.57287025    -0.00005847     0.00023752    -0.00034371
     6
  Step:    24            Position(A)                                  Velocity(au)
C        -0.04263265     0.01617709    -0.10541381     0.00002947     0.00000699    -0.00071661
N        -0.04337274    -0.07518599     1.40172002     0.00007427    -0.00009806     0.00063693
H         0.97968157     0.03475801    -0.54735576     0.00000222     0.00031247    -0.00036991
H         0.87811405    -0.01083006     1.91328994    -0.00077257     0.00026916    -0.00037607
H        -0.93684277     0.00906327     1.87823712    -0.00055887     0.00045555     0.00079139
H        -1.02314515     0.14928010    -0.57481335    -0.00005402     0.00024227    -0.00035732
     6
  Step:    25            Position(A)                                  Velocity(au)
C        -0.04245659     0.01620798    -0.10935340     0.00003377     0.00000414    -0.00070288
N        -0.04293616    -0.07573263     1.40522278     0.00008149    -0.00009895     0.00062509
H         0.97953755     0.03654930    -0.54940155    -0.00005167     0.00033340    -0.00036813
H         0.87362719    -0.00934755     1.91113117    -0.00083150     0.00026568    -0.00039441
H        -0.94008790     0.01166226     1.88273030    -0.00060113     0.00048075     0.00082275
H        -1.02343380     0.15063559    -0.57683343    -0.00005044     0.00024589    -0.00037111
     6
  Step:    26            Position(A)                                  Velocity(au)
C        -0.04225795     0.01622303    -0.11321297     0.00003753     0.00000129    -0.00068722
N        -0.04246856    -0.07628393     1.40865598     0.00008532    -0.00009967     0.00061136
H         0.97910821     0.03845737    -0.55144046    -0.00010018     0.00035435    -0.00036720
H         0.86888773    -0.00788213     1.90891361    -0.00086222     0.00026282    -0.00039666
H        -0.94351287     0.01439767     1.88736627    -0.00062294     0.00050427     0.00084199
H        -1.02370478     0.15200847    -0.57893118    -0.00004748     0.00024825    -0.00038491
     6
  Step:    27            Position(A)                                  Velocity(au)
C        -0.04203999     0.01622225    -0.11698221     0.00004066    -0.00000156    -0.00066980
N        -0.04198900    -0.07683902     1.41200951     0.00008572    -0.00010023     0.00059590
H         0.97842547     0.04048290    -0.55347787    -0.00014254     0.00037550    -0.00036734
H         0.86405567    -0.00643002     1.90672782    -0.00086386     0.00026065    -0.00038259
H        -0.94700319     0.01726021     1.89207727    -0.00062429     0.00052615     0.00084910
H        -1.02396093     0.15339144    -0.58110631    -0.00004493     0.00024921    -0.00039859
     6
  Step:    28            Position(A)                                  Velocity(au)
C        -0.04180640     0.01620569    -0.12065183     0.00004308    -0.00000440    -0.00065087
N        -0.04151659    -0.07739713     1.41527405     0.00008273    -0.00010068     0.00057889
H         0.97752520     0.04262771    -0.55552016    -0.00017812     0.00039714    -0.00036872
H         0.85929370    -0.00498730     1.90466458    -0.00083646     0.00025917    -0.00035242
H        -0.95044624     0.02024116     1.89679643    -0.00060593     0.00054661     0.00084450
H        -1.02420376     0.15477625    -0.58335797    -0.00004254     0.00024860    -0.00041212
     6
  Step:    29            Position(A)                                  Velocity(au)
C        -0.04156131     0.01617342    -0.12421372     0.00004474    -0.00000721    -0.00063065
N        -0.04106978    -0.07795765     1.41844134     0.00007656    -0.00010104     0.00056056
H         0.97644651     0.04489533    -0.55757454    -0.00020640     0.00041964    -0.00037149
H         0.85476206    -0.00355054     1.90281222    -0.00078108     0.00025819    -0.00030689
H        -0.95373547     0.02333332     1.90146018    -0.00056933     0.00056604     0.00082901
H        -1.02443360     0.15615356    -0.58568518    -0.00004013     0.00024620    -0.00042553
     6
  Step:    30            Position(A)                                  Velocity(au)
C        -0.04130919     0.01612554    -0.12766098     0.00004556    -0.00001001    -0.00060934
N        -0.04066570    -0.07852013     1.42150422     0.00006749    -0.00010134     0.00054110
H         0.97523118     0.04729170    -0.55964903    -0.00022698     0.00044355    -0.00037581
H         0.85061264    -0.00211773     1.90125373    -0.00069976     0.00025734    -0.00024722
H        -0.95677385     0.02653220     1.90601017    -0.00051642     0.00058507     0.00080369
H        -1.02464976     0.15751256    -0.58808744    -0.00003753     0.00024169    -0.00043901
     6
  Step:    31            Position(A)                                  Velocity(au)
C        -0.04105487     0.01606211    -0.13098756     0.00004548    -0.00001281    -0.00058704
N        -0.04031951    -0.07908426     1.42445653     0.00005593    -0.00010161     0.00052065
H         0.97392322     0.04982611    -0.56175229    -0.00023945     0.00046960    -0.00038180
H         0.84698313    -0.00068981     1.90006391    -0.00059551     0.00025590    -0.00017508
H        -0.95947636     0.02983733     1.91039452    -0.00044954     0.00060460     0.00076980
H        -1.02485084     0.15884032    -0.59056547    -0.00003467     0.00023459    -0.00045289
     6
  Step:    32            Position(A)                                  Velocity(au)
C        -0.04080356     0.01598312    -0.13418754     0.00004442    -0.00001563    -0.00056365
N        -0.04004385    -0.07964982     1.42729268     0.00004238    -0.00010185     0.00049925
H         0.97256899     0.05251261    -0.56389378    -0.00024329     0.00049887    -0.00038966
H         0.84399196     0.00072731     1.89930724    -0.00047218     0.00025269    -0.00009244
H        -0.96177167     0.03325397     1.91456859    -0.00037122     0.00062588     0.00072865
H        -1.02503525     0.16012068    -0.59312254    -0.00003160     0.00022415    -0.00046784
     6
  Step:    33            Position(A)                                  Velocity(au)
C        -0.04056101     0.01588839    -0.13725394     0.00004225    -0.00001851    -0.00053876
N        -0.03984831    -0.08021660     1.43000694     0.00002744    -0.00010204     0.00047672
H         0.97121841     0.05537230    -0.56608427    -0.00023752     0.00053299    -0.00039979
H         0.84173375     0.00211942     1.89903620    -0.00033431     0.00024571    -0.00000148
H        -0.96360339     0.03679553     1.91849521    -0.00028421     0.00065075     0.00068154
H        -1.02520220     0.16133232    -0.59576660    -0.00002868     0.00020914    -0.00048511
     6
  Step:    34            Position(A)                                  Velocity(au)
C        -0.04033389     0.01577741    -0.14017628     0.00003873    -0.00002155    -0.00051113
N        -0.03973888    -0.08078413     1.43259183     0.00001178    -0.00010210     0.00045234
H         0.96992877     0.05843725    -0.56833776    -0.00021985     0.00057452    -0.00041338
H         0.84027580     0.00345860     1.89929082    -0.00018695     0.00023168     0.00009573
H        -0.96493092     0.04048755     1.92214445    -0.00019144     0.00068188     0.00062970
H        -1.02535402     0.16244540    -0.59851492    -0.00002704     0.00018753    -0.00050738
     6
  Step:    35            Position(A)                                  Velocity(au)
C        -0.04013056     0.01564895    -0.14293418     0.00003346    -0.00002498    -0.00047728
N        -0.03971735    -0.08135127     1.43503389    -0.00000375    -0.00010177     0.00042387
H         0.96877514     0.06175700    -0.57067818    -0.00018469     0.00062700    -0.00043425
H         0.83965618     0.00469409     1.90010011    -0.00003522     0.00020565     0.00019766
H        -0.96573087     0.04437332     1.92549316    -0.00009632     0.00072253     0.00057445
H        -1.02550273     0.16341640    -0.60140512    -0.00003027     0.00015676    -0.00054080
     6
  Step:    36            Position(A)                                  Velocity(au)
C        -0.03996221     0.01549986    -0.14547859     0.00002617    -0.00002933    -0.00042929
N        -0.03978057    -0.08191473     1.43730075    -0.00001842    -0.00010045     0.00038599
H         0.96787697     0.06540279    -0.57316199    -0.00012152     0.00069034    -0.00047270
H         0.83988451     0.00574326     1.90148673     0.00011631     0.00016562     0.00030325
H        -0.96600093     0.04851444     1.92852624    -0.00000315     0.00077102     0.00051810
H        -1.02569029     0.16418697    -0.60452286    -0.00004747     0.00011836    -0.00059699
     6
  Step:    37            Position(A)                                  Velocity(au)
C        -0.03983992     0.01532326    -0.14770139     0.00001792    -0.00003495    -0.00036132
N        -0.03992193    -0.08246671     1.43932020    -0.00003218    -0.00009764     0.00033480
H         0.96742573     0.06942312    -0.57592744    -0.00002734     0.00075189    -0.00053914
H         0.84094776     0.00653331     1.90346761     0.00026361     0.00012370     0.00040906
H        -0.96576590     0.05293529     1.93124650     0.00008468     0.00081227     0.00046446
H        -1.02602989     0.16473075    -0.60803455    -0.00008718     0.00008541    -0.00068142
     6
  Step:    38            Position(A)                                  Velocity(au)
C        -0.03976336     0.01511192    -0.14948898     0.00001037    -0.00004149    -0.00027914
N        -0.04013777    -0.08299841     1.44101681    -0.00004541    -0.00009367     0.00027434
H         0.96757348     0.07374827    -0.57914603     0.00008271     0.00079784    -0.00062865
H         0.84281036     0.00711628     1.90602704     0.00040168     0.00009559     0.00050879
H        -0.96506108     0.05753011     1.93368143     0.00016720     0.00083256     0.00041581
H        -1.02665789     0.16513497    -0.61208611    -0.00014410     0.00007009    -0.00078209
     6
  Step:    39            Position(A)                                  Velocity(au)
C        -0.03972490     0.01486302    -0.15079793     0.00000418    -0.00004832    -0.00019255
N        -0.04042565    -0.08350581     1.44236354    -0.00005800    -0.00008922     0.00021135
H         0.96834320     0.07827365    -0.58290115     0.00019113     0.00082751    -0.00072755
H         0.84540370     0.00759375     1.90911165     0.00052487     0.00008341     0.00059729
H        -0.96391116     0.06217100     1.93585914     0.00024567     0.00083348     0.00037163
H        -1.02762847     0.16550828    -0.61671043    -0.00020553     0.00007122    -0.00088391
     6
  Step:    40            Position(A)                                  Velocity(au)
C        -0.03971699     0.01457623    -0.15162371    -0.00000069    -0.00005512    -0.00010627
N        -0.04078077    -0.08398757     1.44335996    -0.00006953    -0.00008459     0.00014902
H         0.96969250     0.08292263    -0.58721219     0.00028932     0.00084493    -0.00082742
H         0.84862948     0.00804103     1.91264898     0.00062848     0.00008295     0.00067169
H        -0.96233739     0.06677070     1.93780156     0.00032016     0.00082082     0.00033115
H        -1.02893659     0.16592453    -0.62188578    -0.00026356     0.00008371    -0.00098001
     6
  Step:    41            Position(A)                                  Velocity(au)
C        -0.03973255     0.01425224    -0.15197546    -0.00000423    -0.00006175    -0.00002212
N        -0.04119604    -0.08444317     1.44401481    -0.00007967    -0.00007989     0.00008856
H         0.97154901     0.08763600    -0.59206947     0.00037255     0.00085158    -0.00092424
H         0.85236757     0.00851285     1.91655438     0.00070912     0.00009214     0.00072989
H        -0.96036355     0.07126617     1.93952851     0.00039003     0.00079700     0.00029431
H        -1.03054881     0.16643583    -0.62756949    -0.00031417     0.00010527    -0.00106713
     6
  Step:    42            Position(A)                                  Velocity(au)
C        -0.03976381     0.01389236    -0.15186866    -0.00000609    -0.00006806     0.00005842
N        -0.04166314    -0.08487237     1.44434082    -0.00008836    -0.00007517     0.00003091
H         0.97381853     0.09235397    -0.59744830     0.00043605     0.00084494    -0.00101544
H         0.85648306     0.00906147     1.92073258     0.00076464     0.00011317     0.00076971
H        -0.95801771     0.07559765     1.94106104     0.00045452     0.00076014     0.00026163
H        -1.03241603     0.16709041    -0.63370444    -0.00035480     0.00013737    -0.00114163
     6
  Step:    43            Position(A)                                  Velocity(au)
C        -0.03979994     0.01349877    -0.15132873    -0.00000513    -0.00007362     0.00012938
N        -0.04217422    -0.08527538     1.44435706    -0.00009601    -0.00007083    -0.00001996
H         0.97637643     0.09699019    -0.60331119     0.00046792     0.00081517    -0.00109437
H         0.86083270     0.00976571     1.92507573     0.00079378     0.00015712     0.00078755
H        -0.95533167     0.07968153     1.94242499     0.00051362     0.00070160     0.00023431
H        -1.03447671     0.16795659    -0.64020827    -0.00037995     0.00018767    -0.00119183
     6
  Step:    44            Position(A)                                  Velocity(au)
C        -0.03982058     0.01307754    -0.15043679    -0.00000100    -0.00007713     0.00017163
N        -0.04272576    -0.08565627     1.44411996    -0.00010271    -0.00006832    -0.00005126
H         0.97899724     0.10137594    -0.60956036     0.00044384     0.00076246    -0.00113347
H         0.86526827     0.01080041     1.92944882     0.00079413     0.00022658     0.00078029
H        -0.95233316     0.08336269     1.94365427     0.00056963     0.00062802     0.00020998
H        -1.03662117     0.16916750    -0.64689516    -0.00036838     0.00025154    -0.00118966
     6