     6
  Step:   300            Position(A)                                  Velocity(au)
C        -0.01370254     0.00520016     0.01613462    -0.00004097    -0.00008540     0.00001796
N        -0.06727500    -0.05080917     1.30067174     0.00016270    -0.00000002    -0.00002714
H         0.24852748    -0.87948417    -0.55318468     0.00043802     0.00035420    -0.00030314
H         0.01079624     0.83121812     1.81530217    -0.00036017     0.00029015    -0.00036354
H        -0.12772326    -0.93520680     1.81563469    -0.00138020     0.00024715     0.00003895
H        -0.24639153     0.95779610    -0.45255648    -0.00047046     0.00012631     0.00079087
