     6
  Step:     0            Position(A)                                  Velocity(au)
C        -0.02978102    -0.00345899     0.04461564     0.00017231    -0.00008105     0.00001105
N        -0.03765376    -0.03605830     1.27945496     0.00001041     0.00008639    -0.00014040
H         0.87548178     0.07865955    -0.56903071    -0.00106413     0.00008691     0.00052328
H         0.77160961    -0.15238889     1.81425651    -0.00046018    -0.00015897    -0.00019257
H        -0.98246992    -0.19287898     1.82893874    -0.00063320    -0.00053426     0.00106214
H        -0.99943750     0.13912628    -0.49352179    -0.00004043     0.00037158     0.00042661
     6
  Step:     1            Position(A)                                  Velocity(au)
C        -0.02886095    -0.00389508     0.04422541     0.00016304    -0.00007852    -0.00015335
N        -0.03768804    -0.03557975     1.27906294    -0.00002348     0.00008874    -0.00000252
H         0.87006368     0.07910948    -0.56609261    -0.00090670     0.00007779     0.00054449
H         0.76993318    -0.15342325     1.81361434    -0.00014958    -0.00022045    -0.00004005
H        -0.98543260    -0.19578645     1.83437390    -0.00044431    -0.00052865     0.00092039
H        -0.99986758     0.14116450    -0.49115480    -0.00011592     0.00037369     0.00043764
     6
  Step:     2            Position(A)                                  Velocity(au)
C        -0.02799790    -0.00431767     0.04293855     0.00015159    -0.00007605    -0.00031617
N        -0.03791059    -0.03508778     1.27942736    -0.00005802     0.00009144     0.00013567
H         0.86556562     0.07951034    -0.56307590    -0.00072875     0.00006833     0.00055211
H         0.76997375    -0.15479989     1.81381847     0.00016336    -0.00028440     0.00011421
H        -0.98732914    -0.19866059     1.83900454    -0.00024558    -0.00052331     0.00076991
H        -1.00070530     0.14321315    -0.48873557    -0.00018907     0.00037491     0.00044603
     6
  Step:     3            Position(A)                                  Velocity(au)
C        -0.02720362    -0.00472655     0.04076874     0.00013799    -0.00007336    -0.00047574
N        -0.03832243    -0.03458005     1.28054621    -0.00009232     0.00009462     0.00027300
H         0.86209627     0.07985652    -0.56005642    -0.00053177     0.00005680     0.00054561
H         0.77171924    -0.15653255     1.81486297     0.00046970    -0.00035102     0.00026479
H        -0.98811756    -0.20150780     1.84279136    -0.00004076    -0.00052005     0.00061335
H        -1.00193474     0.14526342    -0.48627832    -0.00025855     0.00037346     0.00045163
     6
  Step:     4            Position(A)                                  Velocity(au)
C        -0.02648942    -0.00511959     0.03773795     0.00012235    -0.00006997    -0.00063042
N        -0.03891984    -0.03405340     1.28241164    -0.00012546     0.00009843     0.00040829
H         0.85975259     0.08013122    -0.55711155    -0.00031906     0.00004067     0.00052463
H         0.77510830    -0.15863703     1.81671301     0.00075982    -0.00042067     0.00040651
H        -0.98777470    -0.20434555     1.84570938     0.00016680    -0.00052098     0.00045344
H        -1.00353165     0.14729562    -0.48379852    -0.00032210     0.00036689     0.00045383
     6
  Step:     5            Position(A)                                  Velocity(au)
C        -0.02586574    -0.00549160     0.03387546     0.00010492    -0.00006524    -0.00077879
N        -0.03969429    -0.03350381     1.28501066    -0.00015649     0.00010290     0.00054051
H         0.85860758     0.08030123    -0.55431984    -0.00009743     0.00001682     0.00048887
H         0.78002748    -0.16113236     1.81930790     0.00102326    -0.00049349     0.00053506
H        -0.98629366    -0.20720439     1.84774942     0.00037403    -0.00052820     0.00029376
H        -1.00545669     0.14927515    -0.48131592    -0.00037551     0.00035226     0.00045132
     6
  Step:     6            Position(A)                                  Velocity(au)
C        -0.02534121    -0.00583353     0.02921500     0.00008612    -0.00005870    -0.00091977
N        -0.04063239    -0.03292729     1.28832694    -0.00018442     0.00010767     0.00066872
H         0.85868633     0.08031530    -0.55176145     0.00012168    -0.00001595     0.00043807
H         0.78630671    -0.16403765     1.82256857     0.00124892    -0.00056725     0.00064764
H        -0.98368133    -0.21012603     1.84892429     0.00057784    -0.00054149     0.00013947
H        -1.00764122     0.15115073    -0.47885933    -0.00041182     0.00032782     0.00044206
     6
  Step:     7            Position(A)                                  Velocity(au)
C        -0.02492177    -0.00613500     0.02379323     0.00006639    -0.00005077    -0.00105108
N        -0.04171587    -0.03232353     1.29234102    -0.00020822     0.00011164     0.00079079
H         0.85994138     0.08012638    -0.54951779     0.00032684    -0.00005263     0.00037297
H         0.79371776    -0.16735038     1.82640718     0.00142682    -0.00063478     0.00074186
H        -0.97995950    -0.21314007     1.84927826     0.00077328    -0.00055502    -0.00000356
H        -1.00997092     0.15286858    -0.47647016    -0.00042466     0.00029597     0.00042437
     6
  Step:     8            Position(A)                                  Velocity(au)
C        -0.02461154    -0.00639143     0.01766386     0.00004607    -0.00004259    -0.00116735
N        -0.04292066    -0.03170041     1.29701759    -0.00022668     0.00011358     0.00090192
H         0.86227829     0.07973696    -0.54766255     0.00051393    -0.00008468     0.00029630
H         0.80198720    -0.17101375     1.83072141     0.00155020    -0.00068726     0.00081331
H        -0.97518313    -0.21622558     1.84888518     0.00095161    -0.00056071    -0.00013083
H        -1.01230817     0.15440336    -0.47419557    -0.00041473     0.00026181     0.00039817
     6
  Step:     9            Position(A)                                  Velocity(au)
C        -0.02441365    -0.00660477     0.01091830     0.00002550    -0.00003495    -0.00126165
N        -0.04421594    -0.03107083     1.30228841    -0.00023865     0.00011307     0.00099594
H         0.86560961     0.07919243    -0.54624990     0.00068369    -0.00010768     0.00021214
H         0.81081523    -0.17493027     1.83537736     0.00161548    -0.00072019     0.00085676
H        -0.96946404    -0.21932429     1.84783535     0.00110190    -0.00055522    -0.00023919
H        -1.01454502     0.15575614    -0.47207865    -0.00038866     0.00022822     0.00036437
     6
  Step:    10            Position(A)                                  Velocity(au)
C        -0.02432895    -0.00677868     0.00368508     0.00000530    -0.00002798    -0.00132870
N        -0.04556482    -0.03044758     1.30805232    -0.00024333     0.00011033     0.00106794
H         0.86985339     0.07854392    -0.54531204     0.00083512    -0.00012193     0.00012478
H         0.81988625    -0.17899323     1.84021411     0.00162192    -0.00073333     0.00086931
H        -0.96297434    -0.22237730     1.84623504     0.00121431    -0.00053998    -0.00032543
H        -1.01661439     0.15693197    -0.47015848    -0.00035317     0.00019542     0.00032383
     6
  Step:    11            Position(A)                                  Velocity(au)
C        -0.02435459    -0.00691648    -0.00388268    -0.00001379    -0.00002163    -0.00136648
N        -0.04692646    -0.02984178     1.31418464    -0.00024051     0.00010580     0.00111556
H         0.87491230     0.07783419    -0.54485992     0.00096513    -0.00012922     0.00003825
H         0.82888245    -0.18309910     1.84506093     0.00157274    -0.00072838     0.00085168
H        -0.95593732    -0.22533930     1.84421024     0.00128200    -0.00051815    -0.00038651
H        -1.01847911     0.15793305    -0.46847136    -0.00031331     0.00016322     0.00027754
     6
  Step:    12            Position(A)                                  Velocity(au)
C        -0.02448346    -0.00702103    -0.01162396    -0.00003108    -0.00001585    -0.00137679
N        -0.04825932    -0.02926225     1.32055018    -0.00023072     0.00010006     0.00113954
H         0.88066596     0.07709627    -0.54488353     0.00107123    -0.00013142    -0.00004382
H         0.83750612    -0.18715350     1.84975566     0.00147592    -0.00070844     0.00080802
H        -0.94861173    -0.22818227     1.84190487     0.00130237    -0.00049352    -0.00042065
H        -1.02012452     0.15876055    -0.46704911    -0.00027309     0.00013181     0.00022685
     6
  Step:    13            Position(A)                                  Velocity(au)
C        -0.02470460    -0.00709499    -0.01938930    -0.00004609    -0.00001062    -0.00136516
N        -0.04952501    -0.02871486     1.32701924    -0.00021513     0.00009377     0.00114389
H         0.88697745     0.07635398    -0.54535347     0.00115347    -0.00013035    -0.00011857
H         0.84550561    -0.19107818     1.85416157     0.00134331    -0.00067783     0.00074497
H        -0.94126882    -0.23089779     1.83947246     0.00127772    -0.00047008    -0.00042821
H        -1.02155487     0.15941756    -0.46591642    -0.00023579     0.00010171     0.00017333
     6
  Step:    14            Position(A)                                  Velocity(au)
C        -0.02500463    -0.00714107    -0.02706081    -0.00005869    -0.00000590    -0.00133957
N        -0.05069194    -0.02820195     1.33348494    -0.00019529     0.00008761     0.00113483
H         0.89370904     0.07562230    -0.54622428     0.00121483    -0.00012763    -0.00018439
H         0.85269588    -0.19481819     1.85817957     0.00118809    -0.00064147     0.00067004
H        -0.93416366    -0.23349786     1.83706276     0.00121425    -0.00045156    -0.00041156
H        -1.02279075     0.15991062    -0.46508920    -0.00020397     0.00007343     0.00011835
     6
  Step:    15            Position(A)                                  Velocity(au)
C        -0.02536950    -0.00716185    -0.03456479    -0.00006901    -0.00000164    -0.00130786
N        -0.05173739    -0.02772231     1.33987530    -0.00017263     0.00008214     0.00111880
H         0.90073982     0.07490806    -0.54744240     0.00125984    -0.00012458    -0.00024118
H         0.85896508    -0.19834514     1.86175215     0.00102154    -0.00060370     0.00058973
H        -0.92751305    -0.23601332     1.83481010     0.00111918    -0.00044080    -0.00037389
H        -1.02386558     0.16024940    -0.46457571    -0.00017926     0.00004718     0.00006262
     6
  Step:    16            Position(A)                                  Velocity(au)
C        -0.02578605    -0.00715965    -0.04187051    -0.00007726     0.00000226    -0.00127545
N        -0.05264678    -0.02727185     1.34615384    -0.00014812     0.00007765     0.00110040
H         0.90797492     0.07421163    -0.54895535     0.00129219    -0.00012202    -0.00028967
H         0.86426335    -0.20165425     1.86485744     0.00085098    -0.00056736     0.00050841
H        -0.92149047    -0.23848934     1.83282894     0.00099808    -0.00043941    -0.00031808
H        -1.02482060     0.16044490    -0.46438011    -0.00016236     0.00002284     0.00000613
     6
  Step:    17            Position(A)                                  Velocity(au)
C        -0.02624247    -0.00713633    -0.04897679    -0.00012812     0.00000903    -0.00190774
N        -0.05341105    -0.02684492     1.35230934    -0.00018735     0.00011376     0.00165795
H         0.91534097     0.07352929    -0.55071549     0.00201313    -0.00018446    -0.00050666
H         0.86858081    -0.20475602     1.86749693     0.00104255    -0.00081799     0.00065656
H        -0.91623519    -0.24097844     1.83121596     0.00130947    -0.00068612    -0.00037752
H        -1.02570015     0.16050744    -0.46450647    -0.00023501     0.00000007    -0.00007901
     6
  Step:    18            Position(A)                                  Velocity(au)
C        -0.02695535    -0.00711248    -0.05926833    -0.00007636    -0.00000020    -0.00107800
N        -0.05438958    -0.02621596     1.36130989    -0.00009789     0.00006791     0.00094823
H         0.92678880     0.07262400    -0.55397854     0.00125759    -0.00008614    -0.00039562
H         0.87398648    -0.20916263     1.87097919     0.00053964    -0.00046073     0.00035735
H        -0.90938762    -0.24487000     1.82939847     0.00068099    -0.00043341    -0.00015877
H        -1.02730855     0.16068622    -0.46534815    -0.00020796     0.00003894    -0.00013438
     6
  Step:    19            Position(A)                                  Velocity(au)
C        -0.02739255    -0.00710272    -0.06525012    -0.00007807     0.00000358    -0.00104699
N        -0.05485656    -0.02583913     1.36658555    -0.00006783     0.00006630     0.00092524
H         0.93383703     0.07213583    -0.55626696     0.00123947    -0.00008756    -0.00041377
H         0.87652144    -0.21166927     1.87276258     0.00036317    -0.00043085     0.00027789
H        -0.90610104    -0.24737814     1.82879459     0.00048043    -0.00046043    -0.00005168
H        -1.02847925     0.16083620    -0.46627221    -0.00021022     0.00001486    -0.00019389
     6
  Step:    20            Position(A)                                  Velocity(au)
C        -0.02783381    -0.00707220    -0.07104957    -0.00007833     0.00000723    -0.00101932
N        -0.05515283    -0.02546994     1.37172114    -0.00003782     0.00006552     0.00090398
H         0.94073587     0.07163876    -0.55863447     0.00121206    -0.00008978    -0.00042654
H         0.87807305    -0.21401072     1.87410614     0.00019292    -0.00040469     0.00020300
H        -0.90398160    -0.25005093     1.82881694     0.00027144    -0.00049384     0.00006200
H        -1.02967405     0.16085343    -0.46752985    -0.00021745    -0.00000838    -0.00025419
     6
  Step:    21            Position(A)                                  Velocity(au)
C        -0.02827140    -0.00702162    -0.07668642    -0.00007710     0.00001078    -0.00099256
N        -0.05528089    -0.02510397     1.37672779    -0.00000830     0.00006532     0.00088252
H         0.94743583     0.07112853    -0.56105259     0.00117315    -0.00009250    -0.00043363
H         0.87868596    -0.21620976     1.87504018     0.00003023    -0.00038170     0.00013310
H        -0.90305565    -0.25291886     1.82949026     0.00005906    -0.00053073     0.00017878
H        -1.03091890     0.16074214    -0.46912407    -0.00022842    -0.00003115    -0.00031461
     6
  Step:    22            Position(A)                                  Velocity(au)
C        -0.02869740    -0.00695151    -0.08216695    -0.00007440     0.00001423    -0.00096525
N        -0.05524575    -0.02473835     1.38160597     0.00002010     0.00006545     0.00085977
H         0.95387599     0.07060267    -0.56349145     0.00112183    -0.00009545    -0.00043505
H         0.87841166    -0.21828601     1.87559691    -0.00012259    -0.00036177     0.00006905
H        -0.90332012    -0.25599546     1.83081938    -0.00015001    -0.00056819     0.00029453
H        -1.03223255     0.16050450    -0.47105372    -0.00024199    -0.00005368    -0.00037427
     6
  Step:    23            Position(A)                                  Velocity(au)
C        -0.02910405    -0.00686238    -0.08748922    -0.00007032     0.00001758    -0.00093662
N        -0.05505596    -0.02437146     1.38635014     0.00004662     0.00006575     0.00083528
H         0.95999111     0.07006031    -0.56592152     0.00105830    -0.00009836    -0.00043111
H         0.87731400    -0.22025857     1.87581299    -0.00026275    -0.00034514     0.00001197
H        -0.90473455    -0.25927793     1.83278653    -0.00034842    -0.00060351     0.00040502
H        -1.03362723     0.16014134    -0.47331286    -0.00025711    -0.00007614    -0.00043234
     6
  Step:    24            Position(A)                                  Velocity(au)
C        -0.02948422    -0.00675478    -0.09264706    -0.00006502     0.00002083    -0.00090642
N        -0.05472405    -0.02400270     1.39095214     0.00007056     0.00006606     0.00080901
H         0.96571765     0.06950208    -0.56831531     0.00098358    -0.00010101    -0.00042241
H         0.87547162    -0.22214786     1.87573081    -0.00038746    -0.00033225    -0.00003703
H        -0.90721873    -0.26274836     1.83535125    -0.00052908    -0.00063425     0.00050634
H        -1.03510943     0.15965257    -0.47589132    -0.00027282    -0.00009865    -0.00048810
     6
  Step:    25            Position(A)                                  Velocity(au)
C        -0.02983169    -0.00662928    -0.09763276    -0.00005870     0.00002397    -0.00087472
N        -0.05426630    -0.02363225     1.39540349     0.00009128     0.00006627     0.00078118
H         0.97099802     0.06892995    -0.57064859     0.00089920    -0.00010317    -0.00040967
H         0.87297809    -0.22397667     1.87539856    -0.00049411    -0.00032364    -0.00007694
H        -0.91065532    -0.26637567     1.83845282    -0.00068584    -0.00065835     0.00059523
H        -1.03668027     0.15903738    -0.47877507    -0.00028824    -0.00012134    -0.00054095
     6
  Step:    26            Position(A)                                  Velocity(au)
C        -0.03014132    -0.00648650    -0.10243881    -0.00005157     0.00002698    -0.00084175
N        -0.05370225    -0.02326087     1.39969679     0.00010827     0.00006631     0.00075216
H         0.97578345     0.06834716    -0.57290126     0.00080707    -0.00010465    -0.00039376
H         0.86994045    -0.22577071     1.87486956    -0.00058058    -0.00031988    -0.00010694
H        -0.91489610    -0.27011805     1.84201433    -0.00081400    -0.00067423     0.00066929
H        -1.03833607     0.15829425    -0.48194681    -0.00030261    -0.00014435    -0.00059042
     6
  Step:    27            Position(A)                                  Velocity(au)
C        -0.03040917    -0.00632710    -0.10705897    -0.00004385     0.00002988    -0.00080789
N        -0.05305383    -0.02288964     1.40382636     0.00012121     0.00006615     0.00072235
H         0.98003578     0.06775810    -0.57505798     0.00070921    -0.00010523    -0.00037556
H         0.86647657    -0.22755873     1.87420105    -0.00064530    -0.00032151    -0.00012649
H        -0.91977067    -0.27392585     1.84594776    -0.00091054    -0.00068081     0.00072710
H        -1.04006893     0.15742093    -0.48538680    -0.00031524    -0.00016781    -0.00063621
     6
  Step:    28            Position(A)                                  Velocity(au)
C        -0.03063254    -0.00615175    -0.11148886    -0.00003576     0.00003266    -0.00077350
N        -0.05234443    -0.02251982     1.40778862     0.00012994     0.00006578     0.00069216
H         0.98372815     0.06716835    -0.57710832     0.00060770    -0.00010474    -0.00035599
H         0.86271169    -0.22937235     1.87345262    -0.00068738    -0.00032904    -0.00013536
H        -0.92509614    -0.27774457     1.85015939    -0.00097421    -0.00067755     0.00076815
H        -1.04186738     0.15641440    -0.48907366    -0.00032560    -0.00019189    -0.00067814
     6
  Step:    29            Position(A)                                  Velocity(au)
C        -0.03080991    -0.00596116    -0.11572609    -0.00002751     0.00003531    -0.00073898
N        -0.05159789    -0.02215262     1.41158198     0.00013446     0.00006521     0.00066195
H         0.98684500     0.06658452    -0.57904681     0.00050447    -0.00010298    -0.00033591
H         0.85877448    -0.23124564     1.87268440    -0.00070661    -0.00034286    -0.00013362
H        -0.93068667    -0.28151782     1.85455491    -0.00100530    -0.00066437     0.00079280
H        -1.04371726     0.15527077    -0.49298530    -0.00033330    -0.00021677    -0.00071619
     6
  Step:    30            Position(A)                                  Velocity(au)
C        -0.03094083    -0.00575602    -0.11977022    -0.00001926     0.00003785    -0.00070464
N        -0.05083759    -0.02178906     1.41520672     0.00013494     0.00006449     0.00063202
H         0.98938151     0.06601434    -0.58087272     0.00040135    -0.00009975    -0.00031616
H         0.85479306    -0.23321462     1.87195522    -0.00070348    -0.00036328    -0.00012167
H        -0.93636194    -0.28518980     1.85904385    -0.00100540    -0.00064155     0.00080204
H        -1.04560246     0.15398523    -0.49709962    -0.00033807    -0.00024261    -0.00075046
     6
  Step:    31            Position(A)                                  Velocity(au)
C        -0.03102579    -0.00553701    -0.12362250    -0.00001118     0.00004027    -0.00067074
N        -0.05008573    -0.02142994     1.41866461     0.00013163     0.00006367     0.00060261
H         0.99134259     0.06546671    -0.58258978     0.00029991    -0.00009483    -0.00029748
H         0.85089109    -0.23531668     1.87132088    -0.00067908    -0.00039050    -0.00010020
H        -0.94195351    -0.28870717     1.86354276    -0.00097708    -0.00060963     0.00079733
H        -1.04750582     0.15255200    -0.50139518    -0.00033982    -0.00026962    -0.00078114
     6
  Step:    32            Position(A)                                  Velocity(au)
C        -0.03106605    -0.00530484    -0.12728543    -0.00000337     0.00004257    -0.00063742
N        -0.04936272    -0.02107571     1.42195858     0.00012490     0.00006280     0.00057384
H         0.99274180     0.06495178    -0.58420583     0.00020155    -0.00008799    -0.00028058
H         0.84718436    -0.23758995     1.87083250    -0.00063508    -0.00042461    -0.00007016
H        -0.94730951    -0.29202040     1.86797747    -0.00092352    -0.00056936     0.00078046
H        -1.04940991     0.15096428    -0.50585178    -0.00033855    -0.00029799    -0.00080847
     6
  Step:    33            Position(A)                                  Velocity(au)
C        -0.03106348    -0.00506023    -0.13076221     0.00000408     0.00004474    -0.00060472
N        -0.04868671    -0.02072650     1.42509218     0.00011517     0.00006195     0.00054577
H         0.99360017     0.06448118    -0.58573250     0.00010748    -0.00007891    -0.00026609
H         0.84377756    -0.24007273     1.87053503    -0.00057370    -0.00046560    -0.00003275
H        -0.95229784    -0.29508454     1.87228460    -0.00084833    -0.00052153     0.00075335
H        -1.05129786     0.14921423    -0.51045080    -0.00033442    -0.00032791    -0.00083278
     6
  Step:    34            Position(A)                                  Velocity(au)
C        -0.03102040    -0.00480397    -0.13405590     0.00001109     0.00004676    -0.00057254
N        -0.04807332    -0.02038214     1.42806900     0.00010288     0.00006116     0.00051833
H         0.99394518     0.06406833    -0.58718499     0.00001874    -0.00006723    -0.00025466
H         0.84076118    -0.24280280     1.87046578    -0.00049764    -0.00051334     0.00001055
H        -0.95680739    -0.29785943     1.87641200    -0.00075519    -0.00046694     0.00071799
H        -1.05315411     0.14729299    -0.51517556    -0.00032774    -0.00035956    -0.00085441
     6
  Step:    35            Position(A)                                  Velocity(au)
C        -0.03093941    -0.00453696    -0.13716884     0.00001763     0.00004862    -0.00054066
N        -0.04753546    -0.02004218     1.43089225     0.00008854     0.00006047     0.00049141
H         0.99380991     0.06372889    -0.58858205    -0.00006374    -0.00005250    -0.00024690
H         0.83820905    -0.24581692     1.87065314    -0.00040999    -0.00056761     0.00005811
H        -0.96074832    -0.30030956     1.88031882    -0.00064783    -0.00040636     0.00067633
H        -1.05496528     0.14519074    -0.52001157    -0.00031897    -0.00039312    -0.00087378
     6
  Step:    36            Position(A)                                  Velocity(au)
C        -0.03082322    -0.00426029    -0.14010200     0.00002371     0.00005025    -0.00050880
N        -0.04708318    -0.01970596     1.43356433     0.00007264     0.00005991     0.00046483
H         0.99323240     0.06348128    -0.58994608    -0.00013910    -0.00003413    -0.00024354
H         0.83617634    -0.24915033     1.87111559    -0.00031415    -0.00062815     0.00010809
H        -0.96405191    -0.30240369     1.88397532    -0.00052987    -0.00034047     0.00063030
H        -1.05672111     0.14289682    -0.52494690    -0.00030876    -0.00042869    -0.00089136
     6
  Step:    37            Position(A)                                  Velocity(au)
C        -0.03067450    -0.00397536    -0.14285472     0.00002933     0.00005161    -0.00047655
N        -0.04672373    -0.01937263     1.43608674     0.00005566     0.00005953     0.00043835
H         0.99225540     0.06334748    -0.59130360    -0.00020649    -0.00001140    -0.00024538
H         0.83469840    -0.25283652     1.87186104    -0.00021369    -0.00069460     0.00015858
H        -0.96666971    -0.30411432     1.88736246    -0.00040483    -0.00026985     0.00058174
H        -1.05841564     0.14040005    -0.52997263    -0.00029799    -0.00046633    -0.00090774
     6
  Step:    38            Position(A)                                  Velocity(au)
C        -0.03049571    -0.00368400    -0.14542363     0.00003455     0.00005257    -0.00044326
N        -0.04646159    -0.01904121     1.43845934     0.00003810     0.00005933     0.00041155
H         0.99092651     0.06335402    -0.59268627    -0.00026495     0.00001664    -0.00025352
H         0.83379010    -0.25690694     1.87288646    -0.00011222    -0.00076659     0.00020764
H        -0.96857265    -0.30541715     1.89047156    -0.00027604    -0.00019504     0.00053245
H        -1.06004876     0.13768931    -0.53508366    -0.00028791    -0.00050590    -0.00092372
     6
  Step:    39            Position(A)                                  Velocity(au)
C        -0.03028897    -0.00338877    -0.14780095     0.00003944     0.00005297    -0.00040790
N        -0.04629861    -0.01871058     1.44067914     0.00002039     0.00005935     0.00038376
H         0.98929891     0.06353315    -0.59413250    -0.00031329     0.00005110    -0.00026941
H         0.83344620    -0.26139068     1.87417804    -0.00001322    -0.00084359     0.00025341
H        -0.96974995    -0.30629070     1.89330386    -0.00014666    -0.00011656     0.00048415
H        -1.06162837     0.13475488    -0.54028016    -0.00028021    -0.00054689    -0.00094042
     6
  Step:    40            Position(A)                                  Velocity(au)
C        -0.03005592    -0.00309334    -0.14997194     0.00004408     0.00005257    -0.00036889
N        -0.04623421    -0.01837946     1.44273845     0.00000297     0.00005961     0.00035388
H         0.98743324     0.06392383    -0.59569029    -0.00034985     0.00009318    -0.00029515
H         0.83364273    -0.26631336     1.87571213     0.00008018    -0.00092467     0.00029433
H        -0.97020798    -0.30671688     1.89587003    -0.00001967    -0.00003528     0.00043845
H        -1.06317325     0.13159124    -0.54556978    -0.00027712    -0.00058803    -0.00095949
     6
  Step:    41            Position(A)                                  Velocity(au)
C        -0.02979785    -0.00280301    -0.15191125     0.00004846     0.00005102    -0.00032398
N        -0.04626556    -0.01804640     1.44462216    -0.00001379     0.00006014     0.00032032
H         0.98540080     0.06457142    -0.59742119    -0.00037226     0.00014361    -0.00033355
H         0.83433961    -0.27169366     1.87745752     0.00016542    -0.00100774     0.00032942
H        -0.96996910    -0.30668375     1.89818922     0.00010221     0.00004702     0.00039664
H        -1.06471608     0.12820282    -0.55097119    -0.00028119    -0.00062657    -0.00098325
     6
  Step:    42            Position(A)                                  Velocity(au)
C        -0.02951637    -0.00252528    -0.15357935     0.00005238     0.00004792    -0.00027067
N        -0.04638773    -0.01770980     1.44630513    -0.00002947     0.00006095     0.00028132
H         0.98328823     0.06552282    -0.59940426    -0.00037753     0.00020138    -0.00038765
H         0.83548464    -0.27753416     1.87938003     0.00024069    -0.00108835     0.00035876
H        -0.96906996    -0.30619333     1.90028644     0.00021666     0.00012651     0.00035924
H        -1.06630420     0.12461460    -0.55651781    -0.00029435    -0.00065753    -0.00101435
     6
  Step:    43            Position(A)                                  Velocity(au)
C        -0.02921504    -0.00226980    -0.15492302     0.00005527     0.00004303    -0.00020737
N        -0.04659353    -0.01736821     1.44775244    -0.00004366     0.00006196     0.00023571
H         0.98119993     0.06681224    -0.60173463    -0.00036312     0.00026225    -0.00045902
H         0.83701780    -0.28380391     1.88144954     0.00030474    -0.00115876     0.00038364
H        -0.96755834    -0.30527610     1.90218656     0.00032208     0.00019672     0.00032546
H        -1.06799132     0.12088641    -0.56225804    -0.00031569    -0.00067399    -0.00105459
     6
  Step:    44            Position(A)                                  Velocity(au)
C        -0.02890172    -0.00204675    -0.15588532     0.00005628     0.00003651    -0.00013492
N        -0.04687318    -0.01702083     1.44892628    -0.00005584     0.00006299     0.00018405
H         0.97925026     0.06843902    -0.60450854    -0.00032892     0.00031860    -0.00054570
H         0.83887337    -0.29041969     1.88364608     0.00035638    -0.00120928     0.00040582
H        -0.96548837    -0.30400574     1.90390559     0.00041770     0.00024984     0.00029317
H        -1.06981473     0.11711975    -0.56824495    -0.00033990    -0.00066953    -0.00110314
     6