     6
  Step:     0            Position(A)                                  Velocity(au)
C        -0.03615567     0.02556760     0.01923324     0.00013837    -0.00014213    -0.00032740
N        -0.04264249    -0.06965212     1.29219456    -0.00018937     0.00011335     0.00034508
H         0.92577578    -0.02670637    -0.49805818    -0.00009525     0.00071446     0.00011653
H         0.78427886     0.01228645     1.82355939     0.00134528    -0.00057330     0.00140767
H        -0.91315312    -0.00868324     1.91812818     0.00169455    -0.00042365    -0.00132347
H        -0.98643103     0.01657100    -0.53756262    -0.00196191     0.00040099    -0.00109473
     6
  Step:     1            Position(A)                                  Velocity(au)
C        -0.03468808     0.02409761     0.01509369     0.00012619    -0.00012781    -0.00042358
N        -0.04496111    -0.06850493     1.29654431    -0.00022218     0.00009777     0.00044321
H         0.92544533    -0.01905848    -0.49789155     0.00003708     0.00068638    -0.00009410
H         0.80136011     0.00646267     1.84068693     0.00167616    -0.00050489     0.00164964
H        -0.89337017    -0.01329105     1.90257758     0.00183365    -0.00041352    -0.00145112
H        -1.00823295     0.02092969    -0.55042432    -0.00196308     0.00039647    -0.00121606
     6
  Step:     2            Position(A)                                  Velocity(au)
C        -0.03339504     0.02277150     0.00996671     0.00010787    -0.00011584    -0.00050612
N        -0.04750319    -0.06751332     1.30189067    -0.00022832     0.00008471     0.00052445
H         0.92658707    -0.01169050    -0.50011690     0.00016711     0.00066348    -0.00031602
H         0.82094805     0.00124092     1.85964841     0.00180397    -0.00046076     0.00174415
H        -0.87303854    -0.01772972     1.88638219     0.00176907    -0.00039188    -0.00142265
H        -1.02937707     0.02524465    -0.56416621    -0.00185279     0.00039232    -0.00126240
     6
  Step:     3            Position(A)                                  Velocity(au)
C        -0.03232830     0.02156345     0.00402131     0.00008602    -0.00010618    -0.00057214
N        -0.04995594    -0.06665169     1.30801762    -0.00020552     0.00007378     0.00058371
H         0.92910125    -0.00454364    -0.50480520     0.00028161     0.00064589    -0.00053936
H         0.84082538    -0.00361742     1.87884365     0.00174219    -0.00043542     0.00170275
H        -0.85466847    -0.02186419     1.87145440     0.00146024    -0.00035797    -0.00120992
H        -1.04876634     0.02951238    -0.57804163    -0.00165318     0.00038744    -0.00124724
     6
  Step:     4            Position(A)                                  Velocity(au)
C        -0.03151309     0.02044859    -0.00255004     0.00006275    -0.00009871    -0.00062026
N        -0.05199935    -0.06589914     1.31466053    -0.00015521     0.00006463     0.00061822
H         0.93274787     0.00243949    -0.51191643     0.00036893     0.00063328    -0.00075426
H         0.85906173    -0.00828476     1.89689941     0.00152266    -0.00042308     0.00155014
H        -0.84109293    -0.02556100     1.85991285     0.00090200    -0.00031335    -0.00081248
H        -1.06554353     0.03372071    -0.59145190    -0.00138453     0.00038124    -0.00118326
     6
  Step:     5            Position(A)                                  Velocity(au)
C        -0.03095542     0.01940408    -0.00954816     0.00003951    -0.00009318    -0.00065055
N        -0.05335154    -0.06523779     1.32154236    -0.00008321     0.00005707     0.00062903
H         0.93717226     0.00931049    -0.52130599     0.00042020     0.00062489    -0.00095180
H         0.87413641    -0.01287317     1.91275590     0.00118351    -0.00041876     0.00131527
H        -0.83493547    -0.02871922     1.85367974     0.00014562    -0.00026230    -0.00027126
H        -1.07905553     0.03785285    -0.60392770    -0.00106389     0.00037348    -0.00108139
     6
  Step:     6            Position(A)                                  Velocity(au)
C        -0.03064882     0.01841005    -0.01678198     0.00001019    -0.00008385    -0.00078425
N        -0.05381965    -0.06465059     1.32842167     0.00000593     0.00004536     0.00071899
H         0.94194050     0.01611023    -0.53273887     0.00038761     0.00057862    -0.00103871
H         0.88495335    -0.01744602     1.92567346     0.00069893    -0.00036417     0.00098739
H        -0.83790724    -0.03129930     1.85397857    -0.00068062    -0.00026187     0.00027266
H        -1.08881814     0.04189127    -0.61510941    -0.00060973     0.00041633    -0.00086744
     6
  Step:     7            Position(A)                                  Velocity(au)
C        -0.03073258     0.01756967    -0.02670511    -0.00002539    -0.00007061    -0.00101824
N        -0.05322185    -0.06424554     1.33727157     0.00010062     0.00002987     0.00089114
H         0.94565196     0.02196887    -0.54402983     0.00027922     0.00051519    -0.00101477
H         0.88942675    -0.02083997     1.93435702     0.00010801    -0.00028349     0.00059437
H        -0.84982540    -0.03444809     1.85964469    -0.00144450    -0.00029098     0.00072537
H        -1.09239456     0.04696090    -0.62290471    -0.00003856     0.00048566    -0.00055522
     6
  Step:     8            Position(A)                                  Velocity(au)
C        -0.03120430     0.01686531    -0.03905788    -0.00006006    -0.00005909    -0.00122417
N        -0.05161829    -0.06399718     1.34791714     0.00018455     0.00001686     0.00104538
H         0.94804904     0.02738090    -0.55493894     0.00015350     0.00048222    -0.00097473
H         0.88731634    -0.02364799     1.93867648    -0.00048176    -0.00023908     0.00020563
H        -0.86950847    -0.03766503     1.86984742    -0.00205157    -0.00029270     0.00107500
H        -1.08966165     0.05251599    -0.62725583     0.00053089     0.00051945    -0.00024557
     6
  Step:     9            Position(A)                                  Velocity(au)
C        -0.03204649     0.01627697    -0.05348617    -0.00009244    -0.00004937    -0.00139643
N        -0.04918452    -0.06387676     1.36014128     0.00024881     0.00000636     0.00117921
H         0.94901011     0.03251825    -0.56535394     0.00002259     0.00046041    -0.00092883
H         0.87888724    -0.02607021     1.93885555    -0.00102309    -0.00020697    -0.00014678
H        -0.89470751    -0.04085140     1.88316231    -0.00242796    -0.00029041     0.00128309
H        -1.08078022     0.05832481    -0.62827693     0.00107234     0.00053685     0.00004573
     6
  Step:    10            Position(A)                                  Velocity(au)
C        -0.03322651     0.01578530    -0.06960736    -0.00012087    -0.00004134    -0.00153366
N        -0.04617514    -0.06385799     1.37371459     0.00028761    -0.00000199     0.00129132
H         0.94854325     0.03745329    -0.57525877    -0.00010198     0.00044330    -0.00088520
H         0.86493436    -0.02817596     1.93546549    -0.00146314    -0.00017812    -0.00042903
H        -0.92262476    -0.04401836     1.89791744    -0.00254788    -0.00029011     0.00134302
H        -1.06620221     0.06426056    -0.62625538     0.00155649     0.00054524     0.00030171
     6
  Step:    11            Position(A)                                  Velocity(au)
C        -0.03469071     0.01537259    -0.08703784    -0.00014303    -0.00003489    -0.00163641
N        -0.04289254    -0.06392035     1.38839140     0.00029749    -0.00000880     0.00138003
H         0.94677911     0.04221635    -0.58471929    -0.00020960     0.00042808    -0.00085073
H         0.84687831    -0.02996683     1.92946964    -0.00174042    -0.00014719    -0.00060349
H        -0.95044730    -0.04719817     1.91254345    -0.00242684    -0.00029231     0.00127381
H        -1.04672895     0.07025303    -0.62167636     0.00194712     0.00054949     0.00050258
     6
  Step:    12            Position(A)                                  Velocity(au)
C        -0.03635547     0.01502211    -0.10540689    -0.00015566    -0.00002997    -0.00170604
N        -0.03966708    -0.06405059     1.40390535     0.00027651    -0.00001473     0.00144358
H         0.94395791     0.04681841    -0.59387006    -0.00029102     0.00041333    -0.00083105
H         0.82685935    -0.03139607     1.92226296    -0.00178950    -0.00011020    -0.00063216
H        -0.97571656    -0.05041313     1.92578452    -0.00210531    -0.00029586     0.00110730
H        -1.02360518     0.07628169    -0.61526045     0.00219811     0.00055455     0.00062471
     6
  Step:    13            Position(A)                                  Velocity(au)
C        -0.03809602     0.01471694    -0.12436070    -0.00015465    -0.00002671    -0.00174403
N        -0.03684338    -0.06424257     1.41997243     0.00022435    -0.00002037     0.00148097
H         0.94041252     0.05125864    -0.60290012    -0.00033884     0.00039827    -0.00083041
H         0.80772965    -0.03237764     1.91563997    -0.00155698    -0.00006406    -0.00048691
H        -0.99650505    -0.05367059     1.93676776    -0.00163333    -0.00029942     0.00087746
H        -0.99864102     0.08238492    -0.60800955     0.00225426     0.00056660     0.00064173
     6
  Step:    14            Position(A)                                  Velocity(au)
C        -0.03973878     0.01443771    -0.14356078    -0.00013581    -0.00002543    -0.00175180
N        -0.03475896    -0.06449618     1.43630437     0.00014357    -0.00002616     0.00149294
H         0.93654516     0.05553144    -0.61203677    -0.00034796     0.00038246    -0.00085148
H         0.79279742    -0.03279760     1.91161082    -0.00102850    -0.00000720    -0.00016501
H        -1.01144888    -0.05696355     1.94498059    -0.00106107    -0.00030186     0.00061466
H        -0.97428888     0.08867704    -0.60122147     0.00206072     0.00059311     0.00052989
     6
  Step:    15            Position(A)                                  Velocity(au)
C        -0.04106716     0.01416071    -0.16268463    -0.00009661    -0.00002648    -0.00173121
N        -0.03370254    -0.06481483     1.45263345     0.00004136    -0.00003228     0.00148272
H         0.93280033     0.05962574    -0.62152790    -0.00031581     0.00036553    -0.00089536
H         0.78522920    -0.03253520     1.91203013    -0.00025574     0.00005955     0.00029728
H        -1.01971789    -0.06027445     1.95021460    -0.00043620    -0.00030240     0.00034452
H        -0.95355879     0.09536032    -0.59641720     0.00158412     0.00064143     0.00027849
     6
  Step:    16            Position(A)                                  Velocity(au)
C        -0.04185228     0.01385840    -0.18143440    -0.00003855    -0.00003003    -0.00168552
N        -0.03385412    -0.06520232     1.46874160    -0.00006985    -0.00003862     0.00145579
H         0.92963620     0.06352804    -0.63162439    -0.00024259     0.00034726    -0.00096147
H         0.78720263    -0.03149478     1.91811437     0.00063715     0.00013239     0.00082468
H        -1.02099158    -0.06357909     1.95251764     0.00019430    -0.00030058     0.00008934
H        -0.93963326     0.10270960    -0.59512897     0.00084115     0.00071540    -0.00009798
     6
  Step:    17            Position(A)                                  Velocity(au)
C        -0.04191061     0.01350383    -0.19955864     0.00003123    -0.00003563    -0.00162025
N        -0.03523064    -0.06565968     1.48448173    -0.00017433    -0.00004484     0.00141872
H         0.92749329     0.06722280    -0.64256185    -0.00013150     0.00032748    -0.00104758
H         0.79916809    -0.02963902     1.93007154     0.00148317     0.00020510     0.00132327
H        -1.01546721    -0.06685014     1.95216903     0.00078082    -0.00029627    -0.00012965
H        -0.93515709     0.11101107    -0.59856079    -0.00008222     0.00081139    -0.00055404
     6
  Step:    18            Position(A)                                  Velocity(au)
C        -0.04116896     0.01307896    -0.21688044     0.00010103    -0.00004211    -0.00154278
N        -0.03766788    -0.06618332     1.49977874    -0.00025682    -0.00005052     0.00137689
H         0.92675941     0.07069236    -0.65454213     0.00001080     0.00030594    -0.00114975
H         0.81964981    -0.02700780     1.94706352     0.00212781     0.00027092     0.00171198
H        -1.00390961    -0.07006053     1.94968130     0.00126803    -0.00028970    -0.00029025
H        -0.94143200     0.12046035    -0.60724961    -0.00104174     0.00091667    -0.00102188
     6
  Step:    19            Position(A)                                  Velocity(au)
C        -0.03970028     0.01258268    -0.23330981     0.00015835    -0.00004779    -0.00146050
N        -0.04084911    -0.06676494     1.51460380    -0.00030602    -0.00005529     0.00133286
H         0.92772948     0.07391588    -0.66771480     0.00017380     0.00028226    -0.00126239
H         0.84571801    -0.02371222     1.96752437     0.00247683     0.00032454     0.00194593
H        -0.98772658    -0.07318778     1.94581918     0.00159467    -0.00028151    -0.00036888
H        -0.95794713     0.13106500    -0.62091642    -0.00187973     0.00101254    -0.00143324
     6
  Step:    20            Position(A)                                  Velocity(au)
C        -0.03770468     0.01203346    -0.24883161     0.00019444    -0.00005108    -0.00137895
N        -0.04436267    -0.06739290     1.52893770    -0.00031600    -0.00005892     0.00128627
H         0.93056170     0.07686730    -0.68215923     0.00034325     0.00025584    -0.00137839
H         0.87383521    -0.01990780     1.98963453     0.00251013     0.00036341     0.00201987
H        -0.96902306    -0.07621906     1.94161143     0.00169941    -0.00027283    -0.00034296
H        -0.98255473     0.14261162    -0.63860449    -0.00247859     0.00108113    -0.00174131
     6
  Step:    21            Position(A)                                  Velocity(au)
C        -0.03544650     0.01146515    -0.26347707     0.00020661    -0.00005095    -0.00130108
N        -0.04776220    -0.06805400     1.54274350    -0.00028601    -0.00006135     0.00123519
H         0.93523872     0.07951292    -0.69786982     0.00050215     0.00022588    -0.00148968
H         0.90063199    -0.01576200     2.01171281     0.00226398     0.00038757     0.00195574
H        -0.95054869    -0.07915639     1.93831631     0.00153561    -0.00026511    -0.00019727
H        -1.01217095     0.15471671    -0.65901091    -0.00278929     0.00111130    -0.00192965
     6
  Step:    22            Position(A)                                  Velocity(au)
C        -0.03318467     0.01091887    -0.27729517     0.00019746    -0.00004705    -0.00122765
N        -0.05061969    -0.06873500     1.55595979    -0.00022003    -0.00006262     0.00117798
H         0.94154728     0.08180888    -0.71474891     0.00063300     0.00019141    -0.00158803
H         0.92336414    -0.01142905     2.03242018     0.00180205     0.00039885     0.00178672
H        -0.93542858    -0.08201889     1.93729581     0.00109402    -0.00025972     0.00006686
H        -1.04357576     0.16692345    -0.68081934    -0.00282443     0.00110034    -0.00200641
     6
  Step:    23            Position(A)                                  Velocity(au)
C        -0.03112678     0.01043576    -0.29033424     0.00017237    -0.00003960    -0.00115827
N        -0.05257576    -0.06942389     1.56851406    -0.00012663    -0.00006291     0.00111474
H         0.94908689     0.08370041    -0.73261102     0.00072044     0.00015153    -0.00166614
H         0.94005526    -0.00703643     2.05080081     0.00119267     0.00039993     0.00154587
H        -0.92661482    -0.08483826     1.93977898     0.00042397    -0.00025716     0.00042361
H        -1.07396065     0.17878884    -0.70290507    -0.00263147     0.00105178    -0.00199214
     6
  Step:    24            Position(A)                                  Velocity(au)
C        -0.02941367     0.01005255    -0.30263449     0.00013719    -0.00002906    -0.00109215
N        -0.05338995    -0.07011120     1.58034683    -0.00001843    -0.00006251     0.00104761
H         0.95730832     0.08512378    -0.75119888     0.00075359     0.00010560    -0.00171857
H         0.94945604    -0.00267992     2.06623907     0.00049790     0.00039376     0.00126152
H        -0.92615340    -0.08764475     1.94656299    -0.00036320    -0.00025640     0.00082265
H        -1.10114423     0.18993321    -0.72440126    -0.00226702     0.00097204    -0.00190946
     6
  Step:    25            Position(A)                                  Velocity(au)
C        -0.02812550     0.00980006    -0.31422712     0.00009678    -0.00001597    -0.00102854
N        -0.05297892    -0.07079150     1.59143261     0.00008989    -0.00006187     0.00097996
H         0.96557307     0.08601057    -0.77020805     0.00072717     0.00005344    -0.00174221
H         0.95094781     0.00157780     2.07839898    -0.00022814     0.00038347     0.00095730
H        -0.93456055    -0.09044741     1.95777600    -0.00111966    -0.00025479     0.00120079
H        -1.12355613     0.20005405    -0.74467809    -0.00178175     0.00086789    -0.00177763
     6
  Step:    26            Position(A)                                  Velocity(au)
C        -0.02729653     0.00970322    -0.32513581     0.00005467    -0.00000085    -0.00096679
N        -0.05142345    -0.07146462     1.60178543     0.00018463    -0.00006147     0.00091482
H         0.97321657     0.08629291    -0.78931300     0.00064149    -0.00000466    -0.00173624
H         0.94446501     0.00570927     2.08718190    -0.00093584     0.00037257     0.00065458
H        -0.95064806    -0.09321883     1.97283255    -0.00170680    -0.00024894     0.00150079
H        -1.14012345     0.20891989    -0.76329026    -0.00121609     0.00074535    -0.00161139
     6
  Step:    27            Position(A)                                  Velocity(au)
C        -0.02692954     0.00978150    -0.33537758     0.00001325     0.00001582    -0.00090630
N        -0.04893968    -0.07213625     1.61144604     0.00025565    -0.00006186     0.00085351
H         0.97960680     0.08590871    -0.80819156     0.00050165    -0.00006798    -0.00170187
H         0.93047448     0.00972859     2.09271918    -0.00157469     0.00036546     0.00037565
H        -0.97190013    -0.09589341     1.99060861    -0.00203562    -0.00023590     0.00168695
H        -1.15016034     0.21636003    -0.77993038    -0.00060182     0.00060961    -0.00142191
     6
  Step:    28            Position(A)                                  Velocity(au)
C        -0.02700676     0.01004921    -0.34496280    -0.00002594     0.00003356    -0.00084643
N        -0.04583068    -0.07281791     1.62045763     0.00029698    -0.00006358     0.00079516
H         0.98419110     0.08480573    -0.82654465     0.00031623    -0.00013552    -0.00164178
H         0.91001571     0.01370436     2.09540002    -0.00208879     0.00036801     0.00014643
H        -0.99518113    -0.09837960     2.00973774    -0.00208055    -0.00021411     0.00174961
H        -1.15328936     0.22225634    -0.79439720     0.00003524     0.00046523    -0.00121794
     6
  Step:    29            Position(A)                                  Velocity(au)
C        -0.02749706     0.01051572    -0.35389490    -0.00006185     0.00005194    -0.00078653
N        -0.04244271    -0.07352714     1.62884171     0.00030594    -0.00006721     0.00073704
H         0.98652494     0.08294398    -0.84410856     0.00009597    -0.00020610    -0.00155958
H         0.88477813     0.01777948     2.09592265    -0.00241607     0.00038811    -0.00000268
H        -1.01741620    -0.10057742     2.02888464    -0.00186710    -0.00018345     0.00169937
H        -1.14938944     0.22653779    -0.80657523     0.00067265     0.00031645    -0.00100698
     6
  Step:    30            Position(A)                                  Velocity(au)
C        -0.02835980     0.01118548    -0.36216963    -0.00009364     0.00007048    -0.00072583
N        -0.03913763    -0.07428815     1.63658189     0.00028190    -0.00007338     0.00067551
H         0.98629058     0.08029690    -0.86066347    -0.00014710    -0.00027849    -0.00145953
H         0.85715952     0.02219509     2.09534135    -0.00249481     0.00043556    -0.00003963
H        -1.03602755    -0.10239287     2.04691480    -0.00144851    -0.00014482     0.00155744
H        -1.13857388     0.22917938    -0.81642689     0.00128874     0.00016767    -0.00079632
     6
  Step:    31            Position(A)                                  Velocity(au)
C        -0.02954556     0.01205767    -0.36977391    -0.00012042     0.00008868    -0.00066346
N        -0.03627557    -0.07513257     1.64361981     0.00022608    -0.00008276     0.00060719
H         0.98330678     0.07685138    -0.87603855    -0.00040034    -0.00035151    -0.00134623
H         0.83019934     0.02730824     2.09505574    -0.00228083     0.00052056     0.00006087
H        -1.04910519    -0.10374557     2.06295669    -0.00088589    -0.00009955     0.00134763
H        -1.12119578     0.23020588    -0.82399623     0.00186012     0.00002384    -0.00059415
     6
  Step:    32            Position(A)                                  Velocity(au)
C        -0.03099413     0.01312555    -0.37668413    -0.00014101     0.00010594    -0.00059834
N        -0.03419161    -0.07609866     1.64986539     0.00014264    -0.00009575     0.00053030
H         0.97753238     0.07260696    -0.89011476    -0.00065090    -0.00042405    -0.00122450
H         0.80726199     0.03358344     2.09667301    -0.00177295     0.00065029     0.00030369
H        -1.05540800    -0.10457074     2.07639671    -0.00023757    -0.00004904     0.00109221
H        -1.09788022     0.22970091    -0.82942515     0.00235936    -0.00010900    -0.00041074
     6
  Step:    33            Position(A)                                  Velocity(au)
C        -0.03263034     0.01437533    -0.38286368    -0.00015377     0.00012155    -0.00052912
N        -0.03315496    -0.07722726     1.65522109     0.00004009    -0.00011221     0.00044563
H         0.96906719     0.06757439    -0.90282681    -0.00088589    -0.00049519    -0.00109934
H         0.79141259     0.04153449     2.10169946    -0.00103490     0.00082395     0.00066015
H        -1.05430256    -0.10481850     2.08685082     0.00044303     0.00000540     0.00081125
H        -1.06958023     0.22782128    -0.83298202     0.00275295    -0.00022328    -0.00025956
     6
  Step:    34            Position(A)                                  Velocity(au)
C        -0.03435805     0.01578477    -0.38825966    -0.00015644     0.00013466    -0.00045412
N        -0.03331467    -0.07855345     1.65961432    -0.00006860    -0.00013116     0.00035664
H         0.95815186     0.06177365    -0.91416497    -0.00109250    -0.00056420    -0.00097591
H         0.78462149     0.05160902     2.11111510    -0.00019453     0.00102917     0.00106576
H        -1.04571587    -0.10445268     2.09414434     0.00110482     0.00006256     0.00052402
H        -1.03765425     0.22481627    -0.83510360     0.00299962    -0.00030950    -0.00015849
     6
  Step:    35            Position(A)                                  Velocity(au)
C        -0.03605271     0.01732130    -0.39279842    -0.00014627     0.00014429    -0.00037129
N        -0.03465581    -0.08009660     1.66302324    -0.00016807    -0.00015085     0.00026815
H         0.94516674     0.05523140    -0.92417673    -0.00125813    -0.00063062    -0.00085947
H         0.78715694     0.06404946     2.12501504     0.00058965     0.00124289     0.00143581
H        -1.03013259    -0.10344993     2.09831475     0.00169469     0.00012133     0.00025130
H        -1.00395772     0.22105045    -0.83644924     0.00305220    -0.00035657    -0.00012963
     6
  Step:    36            Position(A)                                  Velocity(au)
C        -0.03755793     0.01894131    -0.39638233    -0.00012072     0.00014951    -0.00027853
N        -0.03699147    -0.08185369     1.66548066    -0.00024407    -0.00016928     0.00018419
H         0.93062790     0.04797771    -0.93296761    -0.00137083    -0.00069430    -0.00075527
H         0.79752111     0.07879959     2.14252627     0.00117995     0.00143810     0.00169310
H        -1.00864124    -0.10179830     2.09964208     0.00215431     0.00018086     0.00001752
H        -0.97088159     0.21701567    -0.83793953     0.00286671    -0.00035377    -0.00019584
     6
  Step:    37            Position(A)                                  Velocity(au)
C        -0.03869371     0.02059203    -0.39889178    -0.00007894     0.00014979    -0.00017439
N        -0.03999528    -0.08379995     1.66705265    -0.00028637    -0.00018480     0.00010623
H         0.91517721     0.04004227    -0.94069962    -0.00141989    -0.00075547    -0.00066825
H         0.81297053     0.09551073     2.16205485     0.00149877     0.00159253     0.00179124
H        -0.98300299    -0.09949328     2.09869793     0.00242065     0.00024086    -0.00014876
H        -0.94124299     0.21331110    -0.84073362     0.00242058    -0.00029469    -0.00037237
     6
  Step:    38            Position(A)                                  Velocity(au)
C        -0.03928484     0.02221819    -0.40019735    -0.00002350     0.00014541    -0.00005911
N        -0.04325639    -0.08589658     1.66780457    -0.00028983    -0.00019661     0.00003298
H         0.89956503     0.03145037    -0.94758677    -0.00139709    -0.00081470    -0.00060254
H         0.83030955     0.11363915     2.18171305     0.00153572     0.00169420     0.00172108
H        -0.95568492    -0.09652897     2.09638776     0.00243385     0.00030216    -0.00021760
H        -0.91792687     0.21056873    -0.84608583     0.00173508    -0.00018224    -0.00065493
     6
  Step:    39            Position(A)                                  Velocity(au)
C        -0.03920786     0.02377323    -0.40018482     0.00003864     0.00013773     0.00006448
N        -0.04633583    -0.08810114     1.66777420    -0.00025426    -0.00020477    -0.00003838
H         0.88461325     0.02221914    -0.95388125    -0.00129857    -0.00087286    -0.00056047
H         0.84656740     0.13257453     2.19970675     0.00132854     0.00174178     0.00150159
H        -0.92975795    -0.09288300     2.09393746     0.00215465     0.00036708    -0.00016579
H        -0.90328488     0.20932431    -0.85506147     0.00088829    -0.00003158    -0.00101034
     6
  Step:    40            Position(A)                                  Velocity(au)
C        -0.03843961     0.02523124    -0.39878669     0.00009731     0.00012892     0.00019102
N        -0.04881892    -0.09037631     1.66696500    -0.00018433    -0.00020999    -0.00011026
H         0.87115635     0.01235491    -0.95984820    -0.00112690    -0.00093094    -0.00054149
H         0.85937400     0.15174394     2.21456321     0.00093682     0.00174136     0.00116541
H        -0.90854792    -0.08849845     2.09276075     0.00158854     0.00043925     0.00001071
H        -0.89849373     0.20987778    -0.86818900     0.00000353     0.00013222    -0.00137853
     6
  Step:    41            Position(A)                                  Velocity(au)
C        -0.03707911     0.02659350    -0.39600595     0.00014237     0.00012132     0.00031390
N        -0.05036845    -0.09269497     1.66536202    -0.00008945    -0.00021322    -0.00018299
H         0.85996009     0.00185308    -0.96572734    -0.00089288    -0.00098978    -0.00054083
H         0.86706203     0.17067022     2.22520231     0.00042241     0.00170268     0.00074743
H        -0.89500554    -0.08327355     2.09417168     0.00080449     0.00052221     0.00028513
H        -0.90320762     0.21221680    -0.88521942    -0.00078746     0.00028220    -0.00168914
     6
  Step:    42            Position(A)                                  Velocity(au)
C        -0.03532501     0.02788537    -0.39191960     0.00016725     0.00011664     0.00042715
N        -0.05077591    -0.09504087     1.66296164     0.00001712    -0.00021532    -0.00025433
H         0.85162294    -0.00929842    -0.97167987    -0.00061580    -0.00104966    -0.00054893
H         0.86861495     0.18899337     2.23091467    -0.00015967     0.00163666     0.00027923
H        -0.89094825    -0.07707407     2.09899846    -0.00006914     0.00061681     0.00059863
H        -0.91572102     0.21605153    -0.90514216    -0.00138622     0.00039848    -0.00188455
     6
  Step:    43            Position(A)                                  Velocity(au)
C        -0.03342027     0.02914523    -0.38666124     0.00017058     0.00011550     0.00052681
N        -0.04999401    -0.09740546     1.65979804     0.00012085    -0.00021681    -0.00032049
H         0.84648823    -0.02111035    -0.97773613    -0.00032140    -0.00110996    -0.00055200
H         0.86356900     0.20647521     2.23131107    -0.00076268     0.00155456    -0.00021182
H        -0.89651810    -0.06977967     2.10726791    -0.00087849     0.00071914     0.00087530
H        -0.93353390     0.22093429    -0.92644764    -0.00174955     0.00047285    -0.00193526
     6
  Step:    44            Position(A)                                  Velocity(au)
C        -0.03159325     0.03041206    -0.38039471     0.00015543     0.00011753     0.00061116
N        -0.04813203    -0.09978392     1.65595033     0.00020928    -0.00021793    -0.00037811
H         0.84459166    -0.03358083    -0.98375584    -0.00003771    -0.00116897    -0.00053402
H         0.85192982     0.22300226     2.22628060    -0.00134555     0.00146845    -0.00070091
H        -0.91016694    -0.06134152     2.11814740    -0.00149274     0.00082080     0.00104734
H        -0.95399576     0.22639611    -0.94747966    -0.00188436     0.00050764    -0.00184059
     6