|===============================================================================
|
|  DFTB+ release 20.1
|
|  Copyright (C) 2006 - 2020  DFTB+ developers group
|
|===============================================================================
|
|  When publishing results obtained with DFTB+, please cite the following
|  reference:
|
|  * DFTB+, a software package for efficient approximate density functional
|    theory based atomistic simulations, J. Chem. Phys. 152, 124101 (2020).
|    [doi: 10.1063/1.5143190]
|
|  You should also cite additional publications crediting the parametrization
|  data you use. Please consult the documentation of the SK-files for the
|  references.
|
|===============================================================================

Reading input file 'dftb_in.hsd'
Parser version: 8

--------------------------------------------------------------------------------
Reading SK-files:
Done.


Processed input in HSD format written to 'dftb_pin.hsd'

Starting initialization...
--------------------------------------------------------------------------------
OpenMP threads:              1
Chosen random seed:          511926977
Mode:                        Static calculation
Self consistent charges:     Yes
SCC-tolerance:                 0.100000E-05
Max. scc iterations:                   1000
Shell resolved Hubbard:      No
Spin polarisation:           No
Nr. of up electrons:             6.000000
Nr. of down electrons:           6.000000
Periodic boundaries:         No
Electronic solver:           Relatively robust
Maximal SCC-cycles:                    1000
Initial charges:             Set automatically (system chrg:   0.100E+01)
Included shells:             C:  s, p
                             N:  s, p
                             H:  s
Spin coupling constants:     C   1(s)-1(s):  -0.455900E-01
                             C   1(s)-2(p):  -0.293000E-01
                             C   2(p)-1(s):  -0.293000E-01
                             C   2(p)-2(p):  -0.275500E-01
                             N   1(s)-1(s):  -0.468700E-01
                             N   1(s)-2(p):  -0.317000E-01
                             N   2(p)-1(s):  -0.317000E-01
                             N   2(p)-2(p):  -0.307200E-01
                             H   1(s)-1(s):  -0.792500E-01
Range separated hybrid:      Yes
  Screening parameter omega:   0.300000E+00
  Range separated algorithm:   MatrixBased
Extra options:
                             Mulliken analysis
                             Force calculation
Force type                   original
                             Eigenvector printing


REKS Calcuation:             Yes
SSR(2,2) Calcuation:         Yes
Energy Functional:           (PPS+OSS)/2
Number of Core Orbitals:                  5
Number of Active Orbitals:                2
Number of Basis:                         12
Number of States:                         2
State-Averaging Weight:          0.500000
                                 0.500000
State of Interest:                        1
Initial Guess:               Diagonalize H0 matrix
Newton-Raphson for FON opt:  Yes
NR max. Iterations:                      50
Level Shifting:              Yes
Shift Value:                     0.300000
W Scale Factor:              C  =    3.000000
                             N  =    3.000000
                             H  =    3.000000
Transition Dipole:           No
Gradient of Microstate:      No
CP-REKS Solver:              Preconditioned Conjugate-Gradient
CG max. Iterations:                     100
CG Tolerance:                  0.100000E-07
Memory for A and Hxc:        Direct Updating Without Saving
Non-Adiabatic Coupling:      Yes

--------------------------------------------------------------------------------

***  Geometry step: 0

  iSCC       reks energy        Diff energy         x_a       SCC error   
    1       -6.2636901001       0.0000000000     0.999388    1.19308970
    2       -6.2764527743      -0.0127626743     0.999743    0.09917131
    3       -6.2803986177      -0.0039458434     0.999856    0.04283866
    4       -6.2823544667      -0.0019558490     0.999905    0.02110109
    5       -6.2834700327      -0.0011155660     0.999928    0.01087989
    6       -6.2841491385      -0.0006791058     0.999941    0.00736577
    7       -6.2845732369      -0.0004240985     0.999949    0.00644053
    8       -6.2848395840      -0.0002663470     0.999953    0.00541955
    9       -6.2850065735      -0.0001669895     0.999956    0.00444688
   10       -6.2851109659      -0.0001043924     0.999958    0.00358621
   11       -6.2851761161      -0.0000651502     0.999959    0.00285741
   12       -6.2852167818      -0.0000406657     0.999960    0.00225768
   13       -6.2852422113      -0.0000254295     0.999961    0.00177364
   14       -6.2852581623      -0.0000159510     0.999961    0.00139721
   15       -6.2852682063      -0.0000100440     0.999961    0.00110748
   16       -6.2852745574      -0.0000063511     0.999961    0.00090420
   17       -6.2852785903      -0.0000040329     0.999962    0.00074996
   18       -6.2852811613      -0.0000025710     0.999962    0.00061985
   19       -6.2852828062      -0.0000016450     0.999962    0.00051074
   20       -6.2852838621      -0.0000010558     0.999962    0.00041973
   21       -6.2852845416      -0.0000006795     0.999962    0.00034414
   22       -6.2852849800      -0.0000004384     0.999962    0.00028160
   23       -6.2852852633      -0.0000002833     0.999962    0.00023002
   24       -6.2852854468      -0.0000001834     0.999962    0.00018882
   25       -6.2852855656      -0.0000001189     0.999962    0.00015499
   26       -6.2852856428      -0.0000000771     0.999962    0.00012692
   27       -6.2852856928      -0.0000000501     0.999962    0.00010374
   28       -6.2852857254      -0.0000000325     0.999962    0.00008464
   29       -6.2852857465      -0.0000000212     0.999962    0.00006897
   30       -6.2852857603      -0.0000000138     0.999962    0.00005612
   31       -6.2852857693      -0.0000000090     0.999962    0.00004562
   32       -6.2852857751      -0.0000000058     0.999962    0.00003705
   33       -6.2852857789      -0.0000000038     0.999962    0.00003007
   34       -6.2852857813      -0.0000000025     0.999962    0.00002438
   35       -6.2852857829      -0.0000000016     0.999962    0.00001976
   36       -6.2852857840      -0.0000000010     0.999962    0.00001600
   37       -6.2852857847      -0.0000000007     0.999962    0.00001296
   38       -6.2852857851      -0.0000000004     0.999962    0.00001049
   39       -6.2852857854      -0.0000000003     0.999962    0.00000848
   40       -6.2852857856      -0.0000000002     0.999962    0.00000686
   41       -6.2852857857      -0.0000000001     0.999962    0.00000555
   42       -6.2852857858      -0.0000000001     0.999962    0.00000448
   43       -6.2852857858      -0.0000000001     0.999962    0.00000362
   44       -6.2852857859      -0.0000000000     0.999962    0.00000293
   45       -6.2852857859      -0.0000000000     0.999962    0.00000237
   46       -6.2852857859      -0.0000000000     0.999962    0.00000191
   47       -6.2852857859      -0.0000000000     0.999962    0.00000154
   48       -6.2852857859      -0.0000000000     0.999962    0.00000125
   49       -6.2852857859      -0.0000000000     0.999962    0.00000101
   50       -6.2852857859      -0.0000000000     0.999962    0.00000081
  
--------------------------------------------------
 Final SA-REKS(2,2) energy:      -6.28528579
  
 State     Energy      FON(1)    FON(2)   Spin
  PPS   -6.41378515   1.999923  0.000077  0.00
  OSS   -6.15678642   1.000000  1.000000  0.00
 Trip   -6.23684636   1.000000  1.000000  1.00
--------------------------------------------------

 Lagrangian Wab:  -0.00463766 -0.00463751

--------------------------------------------------
 SSR: 2SI-2SA-REKS(2,2) Hamiltonian matrix
               PPS           OSS
   PPS    -6.41378515   -0.00651785
   OSS    -0.00651785   -6.15678642
--------------------------------------------------

----------------------------------------------------------------
 SSR: 2SI-2SA-REKS(2,2) states
                    E_n       C_{PPS}    C_{OSS}
 SSR state  1   -6.41395035  -0.999679  -0.025337
 SSR state  2   -6.15662123   0.025337  -0.999679
----------------------------------------------------------------

 unrelaxed SSR FONs for S0:  1.999281  0.000719

Total Energy:                       -6.4139503464 H         -174.5325 eV
Extrapolated to 0:                  -6.4139503464 H         -174.5325 eV

----------------------------------------------------------------------------------
 Solving CP-REKS equation for  1 state vector...
----------------------------------------------------------------------------------
  CG solver: Constructing Y initial guess
  CG solver: Iteration    1    eps =    0.000096108555
  CG solver: Iteration    2    eps =    0.000026159790
  CG solver: Iteration    3    eps =    0.000001018702
  CG solver: Iteration    4    eps =    0.000000365825
  CG solver: Iteration    5    eps =    0.000000008593
  Convergence reached in CG solver after    5 iterations
  CG solver: Calculating converged R, Z, Q2 matrix
----------------------------------------------------------------------------------

----------------------------------------------------------------------------------
 Solving CP-REKS equation for SI between  1 and  2 state vectors...
----------------------------------------------------------------------------------
  CG solver: Constructing Y initial guess
  CG solver: Iteration    1    eps =    0.001399216337
  CG solver: Iteration    2    eps =    0.001297052413
  CG solver: Iteration    3    eps =    0.000300715921
  CG solver: Iteration    4    eps =    0.000003455157
  CG solver: Iteration    5    eps =    0.000000438303
  CG solver: Iteration    6    eps =    0.000000007443
  Convergence reached in CG solver after    6 iterations
  CG solver: Calculating converged R, Z, Q2 matrix
----------------------------------------------------------------------------------

--------------------------------------------------
 Gradient Information
--------------------------------------------------
           1 st state (SSR)
     0.00136213    -0.00461026     0.02998065
    -0.00510683     0.00202003    -0.02426570
     0.01005203    -0.00085310    -0.00299454
     0.01288569    -0.00134363     0.00062854
    -0.00914055     0.00170798     0.00048814
    -0.01005247     0.00307898    -0.00383709

           2 st state (SSR)
    -0.00372176    -0.00695236     0.13471278
     0.00579870     0.00911734    -0.14965008
    -0.01073140    -0.01101213     0.01544343
    -0.00949162     0.00606553    -0.00751327
     0.00676485    -0.00618387    -0.00895828
     0.01138124     0.00896549     0.01596543
--------------------------------------------------
 Coupling Information
--------------------------------------------------
 between  1 and  2 states
--------------------------------------------------
 g vector - difference gradient
     0.00253987     0.00124526    -0.05276752
    -0.00552844    -0.00364115     0.06300899
     0.01089816     0.00499342    -0.00921787
     0.01174677    -0.00366445     0.00409727
    -0.00845957     0.00395736     0.00477245
    -0.01119679    -0.00289044    -0.00989333

 h vector - derivative coupling
     0.00010540    -0.00143339     0.00658738
     0.00135375     0.00173355    -0.00465679
    -0.00972111     0.00182603    -0.00025561
    -0.01071972    -0.00088500    -0.00041656
     0.00979137    -0.00012539    -0.00085101
     0.00919032    -0.00111579    -0.00040740

 G vector - GDV
     0.00254195     0.00117105    -0.05236606
    -0.00545276    -0.00354865     0.06269219
     0.01039172     0.00507952    -0.00921898
     0.01118866    -0.00370458     0.00407090
    -0.00795270     0.00394592     0.00472321
    -0.01071685    -0.00294326    -0.00990126

 H vector - DCV - non-adiabatic coupling
    -0.00009094    -0.00580826     0.03595395
     0.00634234     0.00744484    -0.03047731
    -0.03987387     0.00610397     0.00082259
    -0.04391658    -0.00271339    -0.00242331
     0.03966646    -0.00126569    -0.00424236
     0.03787259    -0.00376147     0.00036644
--------------------------------------------------


--------------------------------------------------------------------------------
DFTB+ running times                          cpu [s]             wall clock [s]
--------------------------------------------------------------------------------
SCC                                    +     0.02  ( 67.5%)      0.02  ( 62.9%)
Post-SCC processing                    +     0.01  ( 29.1%)      0.01  ( 28.6%)
--------------------------------------------------------------------------------
Missing                                +     0.00  (  3.5%)      0.00  (  8.6%)
Total                                  =     0.03  (100.0%)      0.04  (100.0%)
--------------------------------------------------------------------------------
