|===============================================================================
|
|  DFTB+ release 20.1
|
|  Copyright (C) 2006 - 2020  DFTB+ developers group
|
|===============================================================================
|
|  When publishing results obtained with DFTB+, please cite the following
|  reference:
|
|  * DFTB+, a software package for efficient approximate density functional
|    theory based atomistic simulations, J. Chem. Phys. 152, 124101 (2020).
|    [doi: 10.1063/1.5143190]
|
|  You should also cite additional publications crediting the parametrization
|  data you use. Please consult the documentation of the SK-files for the
|  references.
|
|===============================================================================

Reading input file 'dftb_in.hsd'
Parser version: 8

--------------------------------------------------------------------------------
Reading SK-files:
Done.


Processed input in HSD format written to 'dftb_pin.hsd'

Starting initialization...
--------------------------------------------------------------------------------
OpenMP threads:              1
Chosen random seed:          509432619
Mode:                        Static calculation
Self consistent charges:     Yes
SCC-tolerance:                 0.100000E-05
Max. scc iterations:                   1000
Shell resolved Hubbard:      No
Spin polarisation:           No
Nr. of up electrons:             6.000000
Nr. of down electrons:           6.000000
Periodic boundaries:         No
Electronic solver:           Relatively robust
Maximal SCC-cycles:                    1000
Initial charges:             Set automatically (system chrg:   0.100E+01)
Included shells:             C:  s, p
                             N:  s, p
                             H:  s
Spin coupling constants:     C   1(s)-1(s):  -0.455900E-01
                             C   1(s)-2(p):  -0.293000E-01
                             C   2(p)-1(s):  -0.293000E-01
                             C   2(p)-2(p):  -0.275500E-01
                             N   1(s)-1(s):  -0.468700E-01
                             N   1(s)-2(p):  -0.317000E-01
                             N   2(p)-1(s):  -0.317000E-01
                             N   2(p)-2(p):  -0.307200E-01
                             H   1(s)-1(s):  -0.792500E-01
Range separated hybrid:      Yes
  Screening parameter omega:   0.300000E+00
  Range separated algorithm:   MatrixBased
Extra options:
                             Mulliken analysis
                             Force calculation
Force type                   original
                             Eigenvector printing


REKS Calcuation:             Yes
SSR(2,2) Calcuation:         Yes
Energy Functional:           (PPS+OSS)/2
Number of Core Orbitals:                  5
Number of Active Orbitals:                2
Number of Basis:                         12
Number of States:                         2
State-Averaging Weight:          0.500000
                                 0.500000
State of Interest:                        1
Initial Guess:               Diagonalize H0 matrix
Newton-Raphson for FON opt:  Yes
NR max. Iterations:                      50
Level Shifting:              Yes
Shift Value:                     0.300000
W Scale Factor:              C  =    3.000000
                             N  =    3.000000
                             H  =    3.000000
Transition Dipole:           No
Gradient of Microstate:      No
CP-REKS Solver:              Preconditioned Conjugate-Gradient
CG max. Iterations:                     100
CG Tolerance:                  0.100000E-07
Memory for A and Hxc:        Direct Updating Without Saving
Non-Adiabatic Coupling:      Yes

--------------------------------------------------------------------------------

***  Geometry step: 0

  iSCC       reks energy        Diff energy         x_a       SCC error   
    1       -6.2621921029       0.0000000000     0.999061    1.19060273
    2       -6.2754836708      -0.0132915679     0.999628    0.10517663
    3       -6.2793629823      -0.0038793114     0.999796    0.04783007
    4       -6.2811523126      -0.0017893304     0.999866    0.02403341
    5       -6.2821438938      -0.0009915811     0.999899    0.01270594
    6       -6.2827650832      -0.0006211894     0.999917    0.00664061
    7       -6.2831821505      -0.0004170673     0.999927    0.00580392
    8       -6.2834708605      -0.0002887100     0.999934    0.00497479
    9       -6.2836727126      -0.0002018520     0.999938    0.00423495
   10       -6.2838139433      -0.0001412308     0.999941    0.00360735
   11       -6.2839124916      -0.0000985482     0.999943    0.00323430
   12       -6.2839810119      -0.0000685203     0.999945    0.00285942
   13       -6.2840284950      -0.0000474831     0.999946    0.00250021
   14       -6.2840613099      -0.0000328149     0.999946    0.00216694
   15       -6.2840839407      -0.0000226307     0.999947    0.00186479
   16       -6.2840995245      -0.0000155838     0.999947    0.00159547
   17       -6.2841102444      -0.0000107200     0.999947    0.00135850
   18       -6.2841176133      -0.0000073689     0.999947    0.00115211
   19       -6.2841226763      -0.0000050630     0.999948    0.00097378
   20       -6.2841261538      -0.0000034775     0.999948    0.00082071
   21       -6.2841285418      -0.0000023880     0.999948    0.00069002
   22       -6.2841301813      -0.0000016395     0.999948    0.00057893
   23       -6.2841313068      -0.0000011255     0.999948    0.00048486
   24       -6.2841320794      -0.0000007726     0.999948    0.00040545
   25       -6.2841326096      -0.0000005302     0.999948    0.00033860
   26       -6.2841329735      -0.0000003639     0.999948    0.00028245
   27       -6.2841332232      -0.0000002497     0.999948    0.00023537
   28       -6.2841333945      -0.0000001713     0.999948    0.00019597
   29       -6.2841335121      -0.0000001175     0.999948    0.00016305
   30       -6.2841335927      -0.0000000806     0.999948    0.00013557
   31       -6.2841336480      -0.0000000553     0.999948    0.00011266
   32       -6.2841336860      -0.0000000379     0.999948    0.00009357
   33       -6.2841337120      -0.0000000260     0.999948    0.00007769
   34       -6.2841337298      -0.0000000178     0.999948    0.00006448
   35       -6.2841337421      -0.0000000122     0.999948    0.00005350
   36       -6.2841337505      -0.0000000084     0.999948    0.00004437
   37       -6.2841337562      -0.0000000058     0.999948    0.00003680
   38       -6.2841337602      -0.0000000039     0.999948    0.00003051
   39       -6.2841337629      -0.0000000027     0.999948    0.00002529
   40       -6.2841337647      -0.0000000019     0.999948    0.00002096
   41       -6.2841337660      -0.0000000013     0.999948    0.00001737
   42       -6.2841337669      -0.0000000009     0.999948    0.00001439
   43       -6.2841337675      -0.0000000006     0.999948    0.00001192
   44       -6.2841337679      -0.0000000004     0.999948    0.00000988
   45       -6.2841337682      -0.0000000003     0.999948    0.00000818
   46       -6.2841337684      -0.0000000002     0.999948    0.00000678
   47       -6.2841337685      -0.0000000001     0.999948    0.00000561
   48       -6.2841337686      -0.0000000001     0.999948    0.00000465
   49       -6.2841337686      -0.0000000001     0.999948    0.00000385
   50       -6.2841337687      -0.0000000000     0.999948    0.00000319
   51       -6.2841337687      -0.0000000000     0.999948    0.00000264
   52       -6.2841337687      -0.0000000000     0.999948    0.00000219
   53       -6.2841337688      -0.0000000000     0.999948    0.00000181
   54       -6.2841337688      -0.0000000000     0.999948    0.00000150
   55       -6.2841337688      -0.0000000000     0.999948    0.00000124
   56       -6.2841337688      -0.0000000000     0.999948    0.00000103
   57       -6.2841337688      -0.0000000000     0.999948    0.00000085
  
--------------------------------------------------
 Final SA-REKS(2,2) energy:      -6.28413377
  
 State     Energy      FON(1)    FON(2)   Spin
  PPS   -6.41049615   1.999895  0.000105  0.00
  OSS   -6.15777139   1.000000  1.000000  0.00
 Trip   -6.23927864   1.000000  1.000000  1.00
--------------------------------------------------

 Lagrangian Wab:   0.00638465  0.00638444

--------------------------------------------------
 SSR: 2SI-2SA-REKS(2,2) Hamiltonian matrix
               PPS           OSS
   PPS    -6.41049615    0.00896371
   OSS     0.00896371   -6.15777139
--------------------------------------------------

----------------------------------------------------------------
 SSR: 2SI-2SA-REKS(2,2) states
                    E_n       C_{PPS}    C_{OSS}
 SSR state  1   -6.41081368  -0.999373   0.035402
 SSR state  2   -6.15745386  -0.035402  -0.999373
----------------------------------------------------------------

 unrelaxed SSR FONs for S0:  1.998642  0.001358

Total Energy:                       -6.4108136792 H         -174.4471 eV
Extrapolated to 0:                  -6.4108136792 H         -174.4471 eV

----------------------------------------------------------------------------------
 Solving CP-REKS equation for  1 state vector...
----------------------------------------------------------------------------------
  CG solver: Constructing Y initial guess
  CG solver: Iteration    1    eps =    0.000113647438
  CG solver: Iteration    2    eps =    0.000068092484
  CG solver: Iteration    3    eps =    0.000004663383
  CG solver: Iteration    4    eps =    0.000000785477
  CG solver: Iteration    5    eps =    0.000000012843
  CG solver: Iteration    6    eps =    0.000000003935
  Convergence reached in CG solver after    6 iterations
  CG solver: Calculating converged R, Z, Q2 matrix
----------------------------------------------------------------------------------

----------------------------------------------------------------------------------
 Solving CP-REKS equation for SI between  1 and  2 state vectors...
----------------------------------------------------------------------------------
  CG solver: Constructing Y initial guess
  CG solver: Iteration    1    eps =    0.002496021114
  CG solver: Iteration    2    eps =    0.003338321412
  CG solver: Iteration    3    eps =    0.000503138785
  CG solver: Iteration    4    eps =    0.000005605558
  CG solver: Iteration    5    eps =    0.000000753467
  CG solver: Iteration    6    eps =    0.000000012294
  CG solver: Iteration    7    eps =    0.000000000435
  Convergence reached in CG solver after    7 iterations
  CG solver: Calculating converged R, Z, Q2 matrix
----------------------------------------------------------------------------------

--------------------------------------------------
 Gradient Information
--------------------------------------------------
           1 st state (SSR)
    -0.00149914    -0.00177576     0.00785995
    -0.00271630    -0.00282174    -0.00801105
     0.01290842    -0.00435403     0.00719775
     0.01470918    -0.00042053    -0.00108027
    -0.01280970     0.00392181    -0.00721474
    -0.01059247     0.00545026     0.00124836

           2 st state (SSR)
     0.00196125    -0.00177895     0.11480571
     0.00028302     0.00919819    -0.13220823
    -0.01321998    -0.01620202     0.02314052
    -0.01189257     0.00329806    -0.00874349
     0.00929097    -0.00530968    -0.01566884
     0.01357731     0.01079441     0.01867433
--------------------------------------------------
 Coupling Information
--------------------------------------------------
 between  1 and  2 states
--------------------------------------------------
 g vector - difference gradient
    -0.00174012     0.00009422    -0.05487413
    -0.00162361    -0.00614360     0.06325192
     0.01402935     0.00574676    -0.00796260
     0.01432163    -0.00172455     0.00384278
    -0.01202997     0.00453135     0.00432564
    -0.01295729    -0.00250418    -0.00858360

 h vector - derivative coupling
    -0.00007867     0.00130565    -0.01785938
    -0.00169421    -0.00167098     0.01405880
     0.01314306    -0.00270831     0.00040624
     0.01391850     0.00196533     0.00002169
    -0.01341849    -0.00135321     0.00124015
    -0.01187019     0.00246152     0.00213250

 G vector - GDV
    -0.00173019     0.00000159    -0.05347288
    -0.00149966    -0.00600996     0.06209859
     0.01306420     0.00592400    -0.00797138
     0.01330088    -0.00185929     0.00383161
    -0.01105034     0.00461574     0.00422705
    -0.01208489    -0.00267208    -0.00871298

 H vector - DCV - non-adiabatic coupling
    -0.00079569     0.00516673    -0.08563882
    -0.00712367    -0.00829456     0.07301545
     0.05566318    -0.00905782    -0.00062443
     0.05879778     0.00725600     0.00115862
    -0.05618920    -0.00406215     0.00609061
    -0.05035239     0.00899180     0.00599856
--------------------------------------------------


--------------------------------------------------------------------------------
DFTB+ running times                          cpu [s]             wall clock [s]
--------------------------------------------------------------------------------
SCC                                    +     0.03  ( 69.3%)      0.03  ( 68.1%)
Post-SCC processing                    +     0.01  ( 27.0%)      0.01  ( 23.4%)
  Force calculation                          0.01  ( 26.4%)      0.01  ( 21.3%)
--------------------------------------------------------------------------------
Missing                                +     0.00  (  3.8%)      0.00  (  8.5%)
Total                                  =     0.04  (100.0%)      0.05  (100.0%)
--------------------------------------------------------------------------------
