|===============================================================================
|
|  DFTB+ release 20.1
|
|  Copyright (C) 2006 - 2020  DFTB+ developers group
|
|===============================================================================
|
|  When publishing results obtained with DFTB+, please cite the following
|  reference:
|
|  * DFTB+, a software package for efficient approximate density functional
|    theory based atomistic simulations, J. Chem. Phys. 152, 124101 (2020).
|    [doi: 10.1063/1.5143190]
|
|  You should also cite additional publications crediting the parametrization
|  data you use. Please consult the documentation of the SK-files for the
|  references.
|
|===============================================================================

Reading input file 'dftb_in.hsd'
Parser version: 8

--------------------------------------------------------------------------------
Reading SK-files:
Done.


Processed input in HSD format written to 'dftb_pin.hsd'

Starting initialization...
--------------------------------------------------------------------------------
OpenMP threads:              1
Chosen random seed:          511923815
Mode:                        Static calculation
Self consistent charges:     Yes
SCC-tolerance:                 0.100000E-05
Max. scc iterations:                   1000
Shell resolved Hubbard:      No
Spin polarisation:           No
Nr. of up electrons:             6.000000
Nr. of down electrons:           6.000000
Periodic boundaries:         No
Electronic solver:           Relatively robust
Maximal SCC-cycles:                    1000
Initial charges:             Set automatically (system chrg:   0.100E+01)
Included shells:             C:  s, p
                             N:  s, p
                             H:  s
Spin coupling constants:     C   1(s)-1(s):  -0.455900E-01
                             C   1(s)-2(p):  -0.293000E-01
                             C   2(p)-1(s):  -0.293000E-01
                             C   2(p)-2(p):  -0.275500E-01
                             N   1(s)-1(s):  -0.468700E-01
                             N   1(s)-2(p):  -0.317000E-01
                             N   2(p)-1(s):  -0.317000E-01
                             N   2(p)-2(p):  -0.307200E-01
                             H   1(s)-1(s):  -0.792500E-01
Range separated hybrid:      Yes
  Screening parameter omega:   0.300000E+00
  Range separated algorithm:   MatrixBased
Extra options:
                             Mulliken analysis
                             Force calculation
Force type                   original
                             Eigenvector printing


REKS Calcuation:             Yes
SSR(2,2) Calcuation:         Yes
Energy Functional:           (PPS+OSS)/2
Number of Core Orbitals:                  5
Number of Active Orbitals:                2
Number of Basis:                         12
Number of States:                         2
State-Averaging Weight:          0.500000
                                 0.500000
State of Interest:                        1
Initial Guess:               Diagonalize H0 matrix
Newton-Raphson for FON opt:  Yes
NR max. Iterations:                      50
Level Shifting:              Yes
Shift Value:                     0.300000
W Scale Factor:              C  =    3.000000
                             N  =    3.000000
                             H  =    3.000000
Transition Dipole:           No
Gradient of Microstate:      No
CP-REKS Solver:              Preconditioned Conjugate-Gradient
CG max. Iterations:                     100
CG Tolerance:                  0.100000E-07
Memory for A and Hxc:        Direct Updating Without Saving
Non-Adiabatic Coupling:      Yes

--------------------------------------------------------------------------------

***  Geometry step: 0

  iSCC       reks energy        Diff energy         x_a       SCC error   
    1       -6.2636872388       0.0000000000     0.998891    1.18856409
    2       -6.2769289158      -0.0132416770     0.999568    0.10467089
    3       -6.2805583518      -0.0036294360     0.999764    0.04753589
    4       -6.2820793957      -0.0015210439     0.999843    0.02377426
    5       -6.2828439150      -0.0007645193     0.999880    0.01255080
    6       -6.2832927350      -0.0004488200     0.999899    0.00664387
    7       -6.2835871159      -0.0002943808     0.999910    0.00496915
    8       -6.2837927550      -0.0002056391     0.999917    0.00442541
    9       -6.2839409678      -0.0001482128     0.999921    0.00388478
   10       -6.2840493084      -0.0001083406     0.999924    0.00346283
   11       -6.2841289325      -0.0000796241     0.999926    0.00318800
   12       -6.2841875150      -0.0000585825     0.999927    0.00289154
   13       -6.2842305721      -0.0000430571     0.999928    0.00259201
   14       -6.2842621555      -0.0000315834     0.999929    0.00230175
   15       -6.2842852683      -0.0000231127     0.999930    0.00202845
   16       -6.2843021416      -0.0000168733     0.999930    0.00177646
   17       -6.2843144316      -0.0000122900     0.999930    0.00154774
   18       -6.2843233643      -0.0000089327     0.999931    0.00134267
   19       -6.2843298445      -0.0000064802     0.999931    0.00116056
   20       -6.2843345374      -0.0000046930     0.999931    0.00100008
   21       -6.2843379310      -0.0000033936     0.999931    0.00085957
   22       -6.2843403817      -0.0000024507     0.999931    0.00073717
   23       -6.2843421495      -0.0000017678     0.999931    0.00063102
   24       -6.2843434233      -0.0000012738     0.999931    0.00053928
   25       -6.2843443404      -0.0000009171     0.999931    0.00046024
   26       -6.2843450002      -0.0000006598     0.999931    0.00039232
   27       -6.2843454745      -0.0000004743     0.999931    0.00033408
   28       -6.2843458154      -0.0000003408     0.999931    0.00028424
   29       -6.2843460601      -0.0000002448     0.999931    0.00024165
   30       -6.2843462358      -0.0000001757     0.999931    0.00020531
   31       -6.2843463619      -0.0000001261     0.999931    0.00017434
   32       -6.2843464523      -0.0000000904     0.999931    0.00014797
   33       -6.2843465172      -0.0000000649     0.999931    0.00012553
   34       -6.2843465637      -0.0000000465     0.999931    0.00010646
   35       -6.2843465970      -0.0000000333     0.999931    0.00009026
   36       -6.2843466209      -0.0000000239     0.999931    0.00007650
   37       -6.2843466381      -0.0000000171     0.999931    0.00006482
   38       -6.2843466503      -0.0000000123     0.999931    0.00005492
   39       -6.2843466591      -0.0000000088     0.999931    0.00004652
   40       -6.2843466654      -0.0000000063     0.999931    0.00003940
   41       -6.2843466699      -0.0000000045     0.999931    0.00003336
   42       -6.2843466731      -0.0000000032     0.999931    0.00002825
   43       -6.2843466755      -0.0000000023     0.999931    0.00002392
   44       -6.2843466771      -0.0000000017     0.999931    0.00002025
   45       -6.2843466783      -0.0000000012     0.999931    0.00001714
   46       -6.2843466792      -0.0000000008     0.999931    0.00001451
   47       -6.2843466798      -0.0000000006     0.999931    0.00001228
   48       -6.2843466802      -0.0000000004     0.999931    0.00001040
   49       -6.2843466805      -0.0000000003     0.999931    0.00000880
   50       -6.2843466807      -0.0000000002     0.999931    0.00000745
   51       -6.2843466809      -0.0000000002     0.999931    0.00000630
   52       -6.2843466810      -0.0000000001     0.999931    0.00000533
   53       -6.2843466811      -0.0000000001     0.999931    0.00000451
   54       -6.2843466811      -0.0000000001     0.999931    0.00000382
   55       -6.2843466812      -0.0000000000     0.999931    0.00000323
   56       -6.2843466812      -0.0000000000     0.999931    0.00000274
   57       -6.2843466812      -0.0000000000     0.999931    0.00000231
   58       -6.2843466813      -0.0000000000     0.999931    0.00000196
   59       -6.2843466813      -0.0000000000     0.999931    0.00000166
   60       -6.2843466813      -0.0000000000     0.999931    0.00000140
   61       -6.2843466813      -0.0000000000     0.999931    0.00000119
   62       -6.2843466813      -0.0000000000     0.999931    0.00000100
   63       -6.2843466813      -0.0000000000     0.999931    0.00000085
  
--------------------------------------------------
 Final SA-REKS(2,2) energy:      -6.28434668
  
 State     Energy      FON(1)    FON(2)   Spin
  PPS   -6.40794480   1.999862  0.000138  0.00
  OSS   -6.16074857   1.000000  1.000000  0.00
 Trip   -6.24316300   1.000000  1.000000  1.00
--------------------------------------------------

 Lagrangian Wab:  -0.00869674 -0.00869648

--------------------------------------------------
 SSR: 2SI-2SA-REKS(2,2) Hamiltonian matrix
               PPS           OSS
   PPS    -6.40794480   -0.01219643
   OSS    -0.01219643   -6.16074857
--------------------------------------------------

----------------------------------------------------------------
 SSR: 2SI-2SA-REKS(2,2) states
                    E_n       C_{PPS}    C_{OSS}
 SSR state  1   -6.40854510  -0.998791  -0.049160
 SSR state  2   -6.16014826   0.049160  -0.998791
----------------------------------------------------------------

 unrelaxed SSR FONs for S0:  1.997446  0.002554

Total Energy:                       -6.4085451004 H         -174.3854 eV
Extrapolated to 0:                  -6.4085451004 H         -174.3854 eV

----------------------------------------------------------------------------------
 Solving CP-REKS equation for  1 state vector...
----------------------------------------------------------------------------------
  CG solver: Constructing Y initial guess
  CG solver: Iteration    1    eps =    0.000175835247
  CG solver: Iteration    2    eps =    0.000089179499
  CG solver: Iteration    3    eps =    0.000022960139
  CG solver: Iteration    4    eps =    0.000001175026
  CG solver: Iteration    5    eps =    0.000000016459
  CG solver: Iteration    6    eps =    0.000000007999
  Convergence reached in CG solver after    6 iterations
  CG solver: Calculating converged R, Z, Q2 matrix
----------------------------------------------------------------------------------

----------------------------------------------------------------------------------
 Solving CP-REKS equation for SI between  1 and  2 state vectors...
----------------------------------------------------------------------------------
  CG solver: Constructing Y initial guess
  CG solver: Iteration    1    eps =    0.004208055058
  CG solver: Iteration    2    eps =    0.006470828559
  CG solver: Iteration    3    eps =    0.000759339598
  CG solver: Iteration    4    eps =    0.000008951660
  CG solver: Iteration    5    eps =    0.000001186509
  CG solver: Iteration    6    eps =    0.000000018200
  CG solver: Iteration    7    eps =    0.000000000598
  Convergence reached in CG solver after    7 iterations
  CG solver: Calculating converged R, Z, Q2 matrix
----------------------------------------------------------------------------------

--------------------------------------------------
 Gradient Information
--------------------------------------------------
           1 st state (SSR)
     0.00333759    -0.00253739     0.01092569
    -0.00307278     0.00668724    -0.00733510
     0.01400741     0.00286232     0.00310077
     0.01699664    -0.00347333    -0.00627565
    -0.01557054    -0.00087353    -0.00421977
    -0.01569832    -0.00266531     0.00380406

           2 st state (SSR)
    -0.00272832    -0.00603745     0.12190020
     0.00507755     0.00830854    -0.13398244
    -0.01473054     0.00974669     0.01960862
    -0.01561284    -0.00496295    -0.01448750
     0.01273872     0.00382484    -0.01233963
     0.01525543    -0.01087967     0.01930076
--------------------------------------------------
 Coupling Information
--------------------------------------------------
 between  1 and  2 states
--------------------------------------------------
 g vector - difference gradient
     0.00307043     0.00180754    -0.05894681
    -0.00424806    -0.00082583     0.06625691
     0.01612538    -0.00305994    -0.00803968
     0.01824882     0.00032396     0.00415231
    -0.01599009    -0.00201489     0.00416611
    -0.01720648     0.00376916    -0.00758884

 h vector - derivative coupling
    -0.00023051    -0.00049671     0.03232795
     0.00155161     0.00011394    -0.02660857
    -0.01709208    -0.00404309    -0.00257738
    -0.01889870     0.00430154    -0.00026799
     0.01790377    -0.00350338    -0.00087623
     0.01676592     0.00362771    -0.00199777

 G vector - GDV
     0.00303295     0.00175003    -0.05548725
    -0.00407516    -0.00081065     0.06332367
     0.01436897    -0.00344219    -0.00825392
     0.01630474     0.00074481     0.00410592
    -0.01415463    -0.00234919     0.00405993
    -0.01547688     0.00410718    -0.00774835

 H vector - DCV - non-adiabatic coupling
    -0.00213737    -0.00270461     0.15282134
     0.00789572     0.00078296    -0.13279746
    -0.07485201    -0.01498834    -0.00714752
    -0.08292945     0.01710544    -0.00271523
     0.07805043    -0.01323923    -0.00515751
     0.07397268     0.01304379    -0.00500362
--------------------------------------------------


--------------------------------------------------------------------------------
DFTB+ running times                          cpu [s]             wall clock [s]
--------------------------------------------------------------------------------
SCC                                    +     0.03  ( 70.9%)      0.03  ( 65.9%)
Post-SCC processing                    +     0.01  ( 26.1%)      0.01  ( 22.7%)
--------------------------------------------------------------------------------
Missing                                +     0.00  (  3.0%)      0.01  ( 11.4%)
Total                                  =     0.04  (100.0%)      0.04  (100.0%)
--------------------------------------------------------------------------------
