|===============================================================================
|
|  DFTB+ release 20.1
|
|  Copyright (C) 2006 - 2020  DFTB+ developers group
|
|===============================================================================
|
|  When publishing results obtained with DFTB+, please cite the following
|  reference:
|
|  * DFTB+, a software package for efficient approximate density functional
|    theory based atomistic simulations, J. Chem. Phys. 152, 124101 (2020).
|    [doi: 10.1063/1.5143190]
|
|  You should also cite additional publications crediting the parametrization
|  data you use. Please consult the documentation of the SK-files for the
|  references.
|
|===============================================================================

Reading input file 'dftb_in.hsd'
Parser version: 8

--------------------------------------------------------------------------------
Reading SK-files:
Done.


Processed input in HSD format written to 'dftb_pin.hsd'

Starting initialization...
--------------------------------------------------------------------------------
OpenMP threads:              1
Chosen random seed:          511718110
Mode:                        Static calculation
Self consistent charges:     Yes
SCC-tolerance:                 0.100000E-05
Max. scc iterations:                   1000
Shell resolved Hubbard:      No
Spin polarisation:           No
Nr. of up electrons:             6.000000
Nr. of down electrons:           6.000000
Periodic boundaries:         No
Electronic solver:           Relatively robust
Maximal SCC-cycles:                    1000
Initial charges:             Set automatically (system chrg:   0.100E+01)
Included shells:             C:  s, p
                             N:  s, p
                             H:  s
Spin coupling constants:     C   1(s)-1(s):  -0.455900E-01
                             C   1(s)-2(p):  -0.293000E-01
                             C   2(p)-1(s):  -0.293000E-01
                             C   2(p)-2(p):  -0.275500E-01
                             N   1(s)-1(s):  -0.468700E-01
                             N   1(s)-2(p):  -0.317000E-01
                             N   2(p)-1(s):  -0.317000E-01
                             N   2(p)-2(p):  -0.307200E-01
                             H   1(s)-1(s):  -0.792500E-01
Range separated hybrid:      Yes
  Screening parameter omega:   0.300000E+00
  Range separated algorithm:   MatrixBased
Extra options:
                             Mulliken analysis
                             Force calculation
Force type                   original
                             Eigenvector printing


REKS Calcuation:             Yes
SSR(2,2) Calcuation:         Yes
Energy Functional:           (PPS+OSS)/2
Number of Core Orbitals:                  5
Number of Active Orbitals:                2
Number of Basis:                         12
Number of States:                         2
State-Averaging Weight:          0.500000
                                 0.500000
State of Interest:                        1
Initial Guess:               Diagonalize H0 matrix
Newton-Raphson for FON opt:  Yes
NR max. Iterations:                      50
Level Shifting:              Yes
Shift Value:                     0.300000
W Scale Factor:              C  =    3.000000
                             N  =    3.000000
                             H  =    3.000000
Transition Dipole:           No
Gradient of Microstate:      No
CP-REKS Solver:              Preconditioned Conjugate-Gradient
CG max. Iterations:                     100
CG Tolerance:                  0.100000E-07
Memory for A and Hxc:        Direct Updating Without Saving
Non-Adiabatic Coupling:      Yes

--------------------------------------------------------------------------------

***  Geometry step: 0

  iSCC       reks energy        Diff energy         x_a       SCC error   
    1       -6.2776288669       0.0000000000     0.999959    1.19835749
    2       -6.2808227235      -0.0031938566     0.999967    0.02276426
    3       -6.2815765742      -0.0007538507     0.999971    0.00858192
    4       -6.2818295483      -0.0002529741     0.999974    0.00468573
    5       -6.2819318075      -0.0001022591     0.999975    0.00312931
    6       -6.2819780375      -0.0000462301     0.999975    0.00227618
    7       -6.2820003203      -0.0000222827     0.999976    0.00163111
    8       -6.2820114742      -0.0000111539     0.999976    0.00115815
    9       -6.2820171974      -0.0000057232     0.999976    0.00081780
   10       -6.2820201892      -0.0000029918     0.999977    0.00062383
   11       -6.2820217778      -0.0000015887     0.999977    0.00049053
   12       -6.2820226337      -0.0000008558     0.999977    0.00038554
   13       -6.2820231010      -0.0000004673     0.999977    0.00030284
   14       -6.2820233595      -0.0000002585     0.999977    0.00023774
   15       -6.2820235043      -0.0000001448     0.999977    0.00018653
   16       -6.2820235864      -0.0000000821     0.999977    0.00014629
   17       -6.2820236334      -0.0000000470     0.999977    0.00011468
   18       -6.2820236606      -0.0000000272     0.999977    0.00008988
   19       -6.2820236765      -0.0000000159     0.999977    0.00007043
   20       -6.2820236858      -0.0000000093     0.999977    0.00005517
   21       -6.2820236913      -0.0000000055     0.999977    0.00004322
   22       -6.2820236946      -0.0000000033     0.999977    0.00003385
   23       -6.2820236966      -0.0000000020     0.999977    0.00002651
   24       -6.2820236978      -0.0000000012     0.999977    0.00002076
   25       -6.2820236985      -0.0000000007     0.999977    0.00001626
   26       -6.2820236990      -0.0000000004     0.999977    0.00001274
   27       -6.2820236992      -0.0000000003     0.999977    0.00000997
   28       -6.2820236994      -0.0000000002     0.999977    0.00000781
   29       -6.2820236995      -0.0000000001     0.999977    0.00000612
   30       -6.2820236995      -0.0000000001     0.999977    0.00000479
   31       -6.2820236996      -0.0000000000     0.999977    0.00000375
   32       -6.2820236996      -0.0000000000     0.999977    0.00000294
   33       -6.2820236996      -0.0000000000     0.999977    0.00000230
   34       -6.2820236996      -0.0000000000     0.999977    0.00000180
   35       -6.2820236996      -0.0000000000     0.999977    0.00000141
   36       -6.2820236996      -0.0000000000     0.999977    0.00000111
   37       -6.2820236996      -0.0000000000     0.999977    0.00000087
  
--------------------------------------------------
 Final SA-REKS(2,2) energy:      -6.28202370
  
 State     Energy      FON(1)    FON(2)   Spin
  PPS   -6.41261053   1.999954  0.000046  0.00
  OSS   -6.15143687   1.000000  1.000000  0.00
 Trip   -6.22820124   1.000000  1.000000  1.00
--------------------------------------------------

 Lagrangian Wab:  -0.00038434 -0.00038435

--------------------------------------------------
 SSR: 2SI-2SA-REKS(2,2) Hamiltonian matrix
               PPS           OSS
   PPS    -6.41261053   -0.00054093
   OSS    -0.00054093   -6.15143687
--------------------------------------------------

----------------------------------------------------------------
 SSR: 2SI-2SA-REKS(2,2) states
                    E_n       C_{PPS}    C_{OSS}
 SSR state  1   -6.41261165  -0.999998  -0.002071
 SSR state  2   -6.15143575   0.002071  -0.999998
----------------------------------------------------------------

 unrelaxed SSR FONs for S0:  1.999950  0.000050

Total Energy:                       -6.4126116465 H         -174.4960 eV
Extrapolated to 0:                  -6.4126116465 H         -174.4960 eV

----------------------------------------------------------------------------------
 Solving CP-REKS equation for  1 state vector...
----------------------------------------------------------------------------------
  CG solver: Constructing Y initial guess
  CG solver: Iteration    1    eps =    0.000024777879
  CG solver: Iteration    2    eps =    0.000000638919
  CG solver: Iteration    3    eps =    0.000000198080
  CG solver: Iteration    4    eps =    0.000000004224
  Convergence reached in CG solver after    4 iterations
  CG solver: Calculating converged R, Z, Q2 matrix
----------------------------------------------------------------------------------

----------------------------------------------------------------------------------
 Solving CP-REKS equation for SI between  1 and  2 state vectors...
----------------------------------------------------------------------------------
  CG solver: Constructing Y initial guess
  CG solver: Iteration    1    eps =    0.000384789156
  CG solver: Iteration    2    eps =    0.000107172629
  CG solver: Iteration    3    eps =    0.000015805771
  CG solver: Iteration    4    eps =    0.000000736540
  CG solver: Iteration    5    eps =    0.000000009873
  Convergence reached in CG solver after    5 iterations
  CG solver: Calculating converged R, Z, Q2 matrix
----------------------------------------------------------------------------------

--------------------------------------------------
 Gradient Information
--------------------------------------------------
           1 st state (SSR)
    -0.00886953    -0.01536605     0.03941238
     0.03220816    -0.00281953    -0.05110344
    -0.00061205     0.00528982    -0.00758156
    -0.01406638     0.00429615     0.00741826
    -0.01007374     0.00669963     0.00768737
     0.00141354     0.00189998     0.00416698

           2 st state (SSR)
     0.00892819    -0.00340263     0.14835690
    -0.01292804     0.00051770    -0.17870199
    -0.00256586     0.01204322     0.01374713
     0.00444026    -0.00172816    -0.00060083
     0.00431261     0.01164909    -0.00266469
    -0.00218717    -0.01907923     0.01986347
--------------------------------------------------
 Coupling Information
--------------------------------------------------
 between  1 and  2 states
--------------------------------------------------
 g vector - difference gradient
    -0.00890537    -0.00600095    -0.05447549
     0.02256434    -0.00163402     0.06380067
     0.00095600    -0.00337419    -0.01066461
    -0.00927712     0.00299635     0.00400405
    -0.00716742    -0.00248450     0.00518227
     0.00182957     0.01049730    -0.00784689

 h vector - derivative coupling
     0.00155239     0.00463228     0.00066778
     0.00095606    -0.00835587    -0.00020554
     0.00504775    -0.00061403     0.00004107
     0.00572597     0.00382084     0.00133566
    -0.00623284     0.00235344    -0.00149500
    -0.00704933    -0.00183665    -0.00034396

 G vector - GDV
    -0.00889886    -0.00598171    -0.05447226
     0.02256810    -0.00166861     0.06379928
     0.00097690    -0.00337670    -0.01066435
    -0.00925332     0.00301216     0.00400955
    -0.00719317    -0.00247473     0.00517603
     0.00180035     0.01048960    -0.00784825

 H vector - DCV - non-adiabatic coupling
     0.00608504     0.01783128     0.00342077
     0.00330270    -0.03196709    -0.00179886
     0.01931170    -0.00229750     0.00032641
     0.02207074     0.01458173     0.00505046
    -0.02375066     0.00905025    -0.00580627
    -0.02701952    -0.00719868    -0.00119251
--------------------------------------------------


--------------------------------------------------------------------------------
DFTB+ running times                          cpu [s]             wall clock [s]
--------------------------------------------------------------------------------
SCC                                    +     0.02  ( 63.0%)      0.02  ( 58.1%)
--------------------------------------------------------------------------------
Missing                                +     0.01  ( 37.0%)      0.01  ( 41.9%)
Total                                  =     0.03  (100.0%)      0.03  (100.0%)
--------------------------------------------------------------------------------
