     6
  Step:     0            Position(A)                                  Velocity(au)
C        -0.04369972     0.00428967     0.01600342    -0.00005209    -0.00007401     0.00035102
N        -0.03971919    -0.04765359     1.29604374     0.00018238    -0.00004698    -0.00027976
H         0.93356829     0.05569535    -0.52010554     0.00037240     0.00024995    -0.00045704
H         0.84042850    -0.15033721     1.93159225    -0.00180648     0.00064840    -0.00048035
H        -0.91072483    -0.07002252     1.80776798    -0.00055418     0.00012388     0.00058207
H        -1.00352943     0.10598145    -0.52819059     0.00007448     0.00051261     0.00006029
     6
  Step:     1            Position(A)                                  Velocity(au)
C        -0.04422415     0.00348114     0.01928411    -0.00004352    -0.00007351     0.00024175
N        -0.03753448    -0.04818693     1.29359471     0.00020945    -0.00005040    -0.00016327
H         0.93757593     0.05855726    -0.52579446     0.00034249     0.00027210    -0.00056955
H         0.81875526    -0.14311787     1.92489219    -0.00209280     0.00066468    -0.00070398
H        -0.91786333    -0.06876428     1.81514102    -0.00069998     0.00010815     0.00072759
H        -1.00283646     0.11168888    -0.52823381     0.00005816     0.00053140    -0.00006581
     6
  Step:     2            Position(A)                                  Velocity(au)
C        -0.04465171     0.00268159     0.02129219    -0.00003476    -0.00007245     0.00012101
N        -0.03513706    -0.04875614     1.29247187     0.00021978    -0.00005330    -0.00004095
H         0.94106102     0.06164799    -0.53256563     0.00027976     0.00029171    -0.00065577
H         0.79464446    -0.13579610     1.91619143    -0.00222976     0.00066552    -0.00082707
H        -0.92603834    -0.06765660     1.82368544    -0.00074457     0.00009599     0.00079606
H        -1.00225701     0.11760688    -0.52963033     0.00005455     0.00055089    -0.00018598
     6
  Step:     3            Position(A)                                  Velocity(au)
C        -0.04498463     0.00189620     0.02193144    -0.00002646    -0.00007102    -0.00000549
N        -0.03272632    -0.04935307     1.29269876     0.00021089    -0.00005526     0.00007938
H         0.94369631     0.06493892    -0.54014071     0.00019053     0.00030866    -0.00071792
H         0.76997491    -0.12855836     1.90679855    -0.00217494     0.00064839    -0.00081264
H        -0.93415227    -0.06666422     1.83255640    -0.00069529     0.00008659     0.00079129
H        -1.00164309     0.12374073    -0.53230255     0.00006437     0.00057069    -0.00029827
     6
  Step:     4            Position(A)                                  Velocity(au)
C        -0.04523061     0.00112789     0.02117200    -0.00001895    -0.00006944    -0.00013168
N        -0.03052348    -0.04996514     1.29420847     0.00018164    -0.00005596     0.00018985
H         0.94522917     0.06840050    -0.54827146     0.00008164     0.00032290    -0.00075900
H         0.74706345    -0.12161131     1.89841337    -0.00189837     0.00061283    -0.00063253
H        -0.94124922    -0.06576227     1.84099636    -0.00056828     0.00007896     0.00072390
H        -1.00084871     0.13009184    -0.53615551     0.00008663     0.00059050    -0.00040145
     6
  Step:     5            Position(A)                                  Velocity(au)
C        -0.04539921     0.00037716     0.01905070    -0.00001225    -0.00006791    -0.00025176
N        -0.02875263    -0.05057740     1.29685217     0.00013318    -0.00005535     0.00028431
H         0.94548242     0.07200297    -0.55674533    -0.00004014     0.00033443    -0.00078240
H         0.72844449    -0.11515163     1.89296073    -0.00139950     0.00056167    -0.00028177
H        -0.94658448    -0.06493679     1.84839304    -0.00038397     0.00007215     0.00060840
H        -0.99974784     0.13665899    -0.54108500     0.00011885     0.00061014    -0.00049500
     6
  Step:     6            Position(A)                                  Velocity(au)
C        -0.04549866    -0.00035777     0.01566429    -0.00000614    -0.00006664    -0.00036080
N        -0.02760994    -0.05117592     1.30042823     0.00006982    -0.00005365     0.00035986
H         0.94435095     0.07571690    -0.56538792    -0.00016848     0.00034332    -0.00079162
H         0.71644682    -0.10932365     1.89224903    -0.00072195     0.00050152     0.00020821
H        -0.94964940    -0.06418378     1.85430637    -0.00016416     0.00006532     0.00046100
H        -0.99824874     0.14343975    -0.54698453     0.00015744     0.00062957    -0.00057893
     6
  Step:     7            Position(A)                                  Velocity(au)
C        -0.04553363    -0.00108067     0.01115756    -0.00000026    -0.00006578    -0.00045505
N        -0.02722510    -0.05175117     1.30472475    -0.00000088    -0.00005137     0.00041740
H         0.94179669     0.07951368    -0.57406354    -0.00029746     0.00034964    -0.00079017
H         0.71265050    -0.10417987     1.89751577     0.00004523     0.00044149     0.00076747
H        -0.95017584    -0.06350778     1.85847833     0.00006927     0.00005775     0.00029841
H        -0.99630344     0.15043201    -0.55375011     0.00019827     0.00064888    -0.00065355
     6
  Step:     8            Position(A)                                  Velocity(au)
C        -0.04550440    -0.00179678     0.00570917     0.00000578    -0.00006544    -0.00053202
N        -0.02762921    -0.05229976     1.30955968    -0.00006950    -0.00004902     0.00046056
H         0.93784353     0.08336589    -0.58267447    -0.00042158     0.00035353    -0.00078149
H         0.71743630    -0.09966525     1.90903883     0.00078682     0.00039050     0.00130298
H        -0.94813399    -0.06292032     1.86083465     0.00029464     0.00004887     0.00013735
H        -0.99391131     0.15763524    -0.56128226     0.00023707     0.00066822    -0.00071927
     6
  Step:     9            Position(A)                                  Velocity(au)
C        -0.04540728    -0.00251239    -0.00048141     0.00001224    -0.00006571    -0.00059033
N        -0.02874558    -0.05282359     1.31480037    -0.00012708    -0.00004696     0.00049353
H         0.93257372     0.08724789    -0.59116005    -0.00053560     0.00035516    -0.00076889
H         0.72986358    -0.09563697     1.92602100     0.00139509     0.00035447     0.00172696
H        -0.94373004    -0.06243859     1.86148318     0.00049040     0.00003820    -0.00000567
H        -0.99111716     0.16505061    -0.56948545     0.00027011     0.00068780    -0.00077623
     6
  Step:    10            Position(A)                                  Velocity(au)
C        -0.04523658    -0.00323431    -0.00720537     0.00001921    -0.00006661    -0.00062953
N        -0.03040931    -0.05332706     1.32035663    -0.00016724    -0.00004527     0.00051913
H         0.92612636     0.09113575    -0.59949537    -0.00063435     0.00035470    -0.00075558
H         0.74795665    -0.09191061     1.94681941     0.00179932     0.00033504     0.00198210
H        -0.93740559    -0.06208458     1.86071070     0.00063548     0.00002534    -0.00011482
H        -0.98800224     0.17268217    -0.57826382     0.00029459     0.00070782    -0.00082420
     6
  Step:    11            Position(A)                                  Velocity(au)
C        -0.04498692    -0.00396954    -0.01425351     0.00002655    -0.00006813    -0.00064990
N        -0.03240434    -0.05381400     1.32615741    -0.00018705    -0.00004382     0.00053801
H         0.91869608     0.09500769    -0.60768991    -0.00071288     0.00035235    -0.00074460
H         0.76922717    -0.08830738     1.96938323     0.00197621     0.00033031     0.00205086
H        -0.92982759    -0.06188430     1.85897138     0.00071058     0.00000994    -0.00017596
H        -0.98467246     0.18053544    -0.58751637     0.00030893     0.00072834    -0.00086245
     6
  Step:    12            Position(A)                                  Velocity(au)
C        -0.04465570    -0.00472485    -0.02142309     0.00003689    -0.00006128    -0.00076202
N        -0.03450136    -0.05428576     1.33212672    -0.00019104    -0.00004734     0.00063635
H         0.91053083     0.09884412    -0.61578495    -0.00083226     0.00023382    -0.00066025
H         0.79119005    -0.08468443     1.99168587     0.00192801     0.00044537     0.00190443
H        -0.92186037    -0.06186722     1.85686130     0.00075111    -0.00010546    -0.00021855
H        -0.98124379     0.18861594    -0.59713150     0.00036827     0.00081432    -0.00078823
     6
  Step:    13            Position(A)                                  Velocity(au)
C        -0.04417998    -0.00531010    -0.03092409     0.00004854    -0.00004576    -0.00096772
N        -0.03658362    -0.05484956     1.34007875    -0.00018000    -0.00005602     0.00081397
H         0.90048870     0.10012288    -0.62213409    -0.00097766     0.00003137    -0.00050408
H         0.81140601    -0.07856402     2.01104625     0.00169003     0.00064141     0.00157156
H        -0.91339572    -0.06419137     1.85419026     0.00074203    -0.00028038    -0.00023954
H        -0.97661580     0.19835033    -0.60476047     0.00046849     0.00093136    -0.00060767
     6
  Step:    14            Position(A)                                  Velocity(au)
C        -0.04359390    -0.00572589    -0.04259386     0.00005659    -0.00003067    -0.00115040
N        -0.03843912    -0.05551124     1.34993390    -0.00015084    -0.00006468     0.00097606
H         0.88914254     0.09953038    -0.62681257    -0.00105875    -0.00012789    -0.00036853
H         0.82816280    -0.07065226     2.02606670     0.00132206     0.00079253     0.00114041
H        -0.90562696    -0.06800109     1.85162098     0.00061459    -0.00040303    -0.00019206
H        -0.97099477     0.20899126    -0.61042535     0.00054380     0.00100278    -0.00043516
     6
  Step:    15            Position(A)                                  Velocity(au)
C        -0.04294198    -0.00598108    -0.05609125     0.00006012    -0.00001661    -0.00129956
N        -0.03988346    -0.05626458     1.36143187    -0.00010657    -0.00007256     0.00111201
H         0.87732652     0.09732494    -0.63019646    -0.00105349    -0.00026825    -0.00027651
H         0.84032867    -0.06122585     2.03599481     0.00087222     0.00092285     0.00066086
H        -0.89995037    -0.07300844     1.84998864     0.00036284    -0.00050692    -0.00006984
H        -0.96471915     0.22028808    -0.61428033     0.00058293     0.00105865    -0.00028177
     6
  Step:    16            Position(A)                                  Velocity(au)
C        -0.04227875    -0.00608926    -0.07102415     0.00005834    -0.00000393    -0.00141257
N        -0.04077050    -0.05709865     1.37426133    -0.00005143    -0.00007937     0.00121947
H         0.86609544     0.09366190    -0.63286182    -0.00094442    -0.00039626    -0.00024366
H         0.84724420    -0.05046308     2.04052420     0.00038138     0.00103867     0.00017005
H        -0.89768908    -0.07909085     1.85009321     0.00000593    -0.00060307     0.00011636
H        -0.95824205     0.23215118    -0.61658964     0.00057651     0.00111051    -0.00015662
     6
  Step:    17            Position(A)                                  Velocity(au)
C        -0.04166563    -0.00606706    -0.08699389     0.00005092     0.00000715    -0.00149016
N        -0.04100855    -0.05800093     1.38811012     0.00000877    -0.00008507     0.00129963
H         0.85666558     0.08865595    -0.63552696    -0.00072192    -0.00051507    -0.00027918
H         0.84867209    -0.03850297     2.03971502    -0.00011190     0.00114304    -0.00029982
H        -0.89982073    -0.08620178     1.85253427    -0.00041326    -0.00069632     0.00034224
H        -0.95210695     0.24458271    -0.61770679     0.00051825     0.00116542    -0.00006638
     6
  Step:    18            Position(A)                                  Velocity(au)
C        -0.04116468    -0.00593294    -0.10362428     0.00003829     0.00001659    -0.00153534
N        -0.04057854    -0.05895966     1.40269316     0.00006679    -0.00008987     0.00135540
H         0.85030212     0.08239383    -0.63896940    -0.00038950    -0.00062760    -0.00038321
H         0.84479622    -0.02545698     2.03396497    -0.00056672     0.00123889    -0.00071755
H        -0.90672987    -0.09432429     1.85758028    -0.00083458    -0.00078791     0.00057529
H        -0.94690434     0.25764694    -0.61804183     0.00040640     0.00122798    -0.00001446
     6
  Step:    19            Position(A)                                  Velocity(au)
C        -0.04082804    -0.00570422    -0.12058233     0.00002188     0.00002461    -0.00155270
N        -0.03954745    -0.05996709     1.41776217     0.00011460    -0.00009431     0.00138991
H         0.84814442     0.07492607    -0.64391039     0.00003163    -0.00073762    -0.00054464
H         0.83627406    -0.01139981     2.02401725    -0.00093634     0.00133071    -0.00105056
H        -0.91807866    -0.10343888     1.86511986    -0.00119368    -0.00087641     0.00078303
H        -0.94321618     0.27144721    -0.61802323     0.00024504     0.00130065    -0.00000045
     6
  Step:    20            Position(A)                                  Velocity(au)
C        -0.04068596    -0.00539448    -0.13759254     0.00000414     0.00003171    -0.00154778
N        -0.03807143    -0.06102284     1.43310019     0.00014452    -0.00009921     0.00140537
H         0.85099400     0.06625702    -0.65088436     0.00050205    -0.00084971    -0.00074166
H         0.82431204     0.00365488     2.01098199    -0.00116788     0.00142577    -0.00126526
H        -0.93284396    -0.11349735     1.87471046    -0.00143698    -0.00095857     0.00094078
H        -0.94154358     0.28610104    -0.61805157     0.00004504     0.00138328    -0.00001983
     6
  Step:    21            Position(A)                                  Velocity(au)
C        -0.04073745    -0.00501040    -0.15444307    -0.00001199     0.00003857    -0.00152629
N        -0.03638571    -0.06213741     1.44850736     0.00015042    -0.00010568     0.00140277
H         0.85912782     0.05633707    -0.66013568     0.00096967    -0.00096812    -0.00094591
H         0.81072435     0.01979160     1.99633721    -0.00120823     0.00153484    -0.00133165
H        -0.94951533    -0.12440939     1.88570113    -0.00153251    -0.00103047     0.00103619
H        -0.94223083     0.30170907    -0.61845708    -0.00017632     0.00147290    -0.00006466
     6
  Step:    22            Position(A)                                  Velocity(au)
C        -0.04094834    -0.00455079    -0.17098297    -0.00002380     0.00004587    -0.00149328
N        -0.03478080    -0.06333485     1.46378851     0.00012897    -0.00011499     0.00138249
H         0.87220738     0.04507755    -0.67157787     0.00138016    -0.00109517    -0.00112886
H         0.79787968     0.03723242     1.98184960    -0.00101869     0.00167137    -0.00123292
H        -0.96637048    -0.13604096     1.89737905    -0.00147298    -0.00108854     0.00106910
H        -0.94540085     0.31832349    -0.61946622    -0.00039714     0.00156387    -0.00012481
     6
  Step:    23            Position(A)                                  Velocity(au)
C        -0.04125817    -0.00400698    -0.18711153    -0.00002952     0.00005423    -0.00145281
N        -0.03356425    -0.06465312     1.47875205     0.00008102    -0.00012823     0.00134562
H         0.88932144     0.03237811    -0.68483155     0.00168854    -0.00123046    -0.00126823
H         0.78843865     0.05635598     1.96936466    -0.00059648     0.00184786    -0.00097758
H        -0.98173965    -0.14822332     1.90908984    -0.00127236    -0.00113028     0.00104830
H        -0.95091893     0.33592169    -0.62118748    -0.00059398     0.00164868    -0.00018979
     6
  Step:    24            Position(A)                                  Velocity(au)
C        -0.04159406    -0.00336451    -0.20276599    -0.00002868     0.00006407    -0.00140775
N        -0.03300826    -0.06614004     1.49322642     0.00001243    -0.00014581     0.00129508
H         0.90914740     0.01815890    -0.69932281     0.00186710    -0.00137094    -0.00135165
H         0.78483063     0.07765796     1.96046326     0.00000640     0.00206931    -0.00060705
H        -0.99420572    -0.16076809     1.92031269    -0.00095912    -0.00115465     0.00098740
H        -0.95839538     0.35439157    -0.62361831    -0.00074546     0.00171919    -0.00025062
     6
  Step:    25            Position(A)                                  Velocity(au)
C        -0.04188564    -0.00260536    -0.21790879    -0.00002203     0.00007561    -0.00135984
N        -0.03329224    -0.06784305     1.50708435    -0.00006636    -0.00016705     0.00123564
H         0.93016794     0.00238609    -0.71440157     0.00190720    -0.00151189    -0.00137673
H         0.78857864     0.10162604     1.95608418     0.00068246     0.00232642    -0.00019067
H        -1.00272223    -0.17348351     1.93069103    -0.00056968    -0.00116205     0.00090157
H        -0.96722732     0.37353226    -0.62667024    -0.00083534     0.00176802    -0.00030104
     6
  Step:    26            Position(A)                                  Velocity(au)
C        -0.04207608    -0.00171047    -0.23251502    -0.00001102     0.00008883    -0.00130979
N        -0.03445998    -0.06979452     1.52025833    -0.00014261    -0.00018998     0.00117257
H         0.95087095    -0.01491655    -0.72944137     0.00181575    -0.00164797    -0.00134848
H         0.79976085     0.12855295     1.95629192     0.00129531     0.00259412     0.00019397
H        -1.00666866    -0.18619013     1.94003627    -0.00014356    -0.00115425     0.00080578
H        -0.97667007     0.39307032    -0.63020414    -0.00085450     0.00178974    -0.00033810
     6
  Step:    27            Position(A)                                  Velocity(au)
C        -0.04212676    -0.00066208    -0.24656296     0.00000268     0.00010355    -0.00125762
N        -0.03641204    -0.07199924     1.53273656    -0.00020461    -0.00021188     0.00110994
H         0.96989097    -0.03366635    -0.74390212     0.00160969    -0.00177452    -0.00127616
H         0.81691611     0.15837727     1.96032758     0.00172322     0.00283788     0.00048552
H        -1.00586291    -0.19873486     1.94831910     0.00027943    -0.00113430     0.00071422
H        -0.98592125     0.41268627    -0.63406687    -0.00080101     0.00178147    -0.00036171
     6
  Step:    28            Position(A)                                  Velocity(au)
C        -0.04201735     0.00055493    -0.26002792     0.00001757     0.00011947    -0.00120292
N        -0.03893628    -0.07442983     1.54454038    -0.00024438    -0.00023008     0.00104950
H         0.98608603    -0.05373748    -0.75735983     0.00131065    -0.00188802    -0.00117052
H         0.83745963     0.19063691     1.96691365     0.00189432     0.00302533     0.00065396
H        -1.00055568    -0.21100521     1.95566115     0.00066061    -0.00110651     0.00064031
H        -0.99419363     0.43204343    -0.63811718    -0.00067908     0.00174291    -0.00037385
     6
  Step:    29            Position(A)                                  Velocity(au)
C        -0.04174230     0.00195158    -0.27287918     0.00003248     0.00013617    -0.00114510
N        -0.04175828    -0.07703263     1.55569646    -0.00025835    -0.00024266     0.00099079
H         0.99856396    -0.07497041    -0.76950957     0.00094125    -0.00198600    -0.00104200
H         0.85835803     0.22456218     1.97463414     0.00179555     0.00313574     0.00069991
H        -0.99141078    -0.22294186     1.96232720     0.00096383    -0.00107620     0.00059671
H        -1.00077750     0.45081566    -0.64224565    -0.00049760     0.00167601    -0.00037783
     6
  Step:    30            Position(A)                                  Velocity(au)
C        -0.04130684     0.00353402    -0.28507911     0.00004656     0.00015320    -0.00108353
N        -0.04458812    -0.07973853     1.56621574    -0.00024655    -0.00024870     0.00093195
H         1.00667762    -0.09718506    -0.78015565     0.00052329    -0.00206715    -0.00090005
H         0.87674082     0.25923711     1.98222554     0.00145838     0.00316257     0.00064370
H        -0.97947008    -0.23454915     1.96871540     0.00115784    -0.00104939     0.00059455
H        -1.00507962     0.46870931    -0.64638289    -0.00026820     0.00158449    -0.00037735
     6
  Step:    31            Position(A)                                  Velocity(au)
C        -0.04072378     0.00530318    -0.29658349     0.00005923     0.00017007    -0.00101766
N        -0.04715203    -0.08247339     1.57608456    -0.00021127    -0.00024808     0.00087081
H         1.01001191    -0.12019331    -0.78919985     0.00007726    -0.00213126    -0.00075304
H         0.89026297     0.29374955     1.98871621     0.00093617     0.00311064     0.00051282
H        -0.96608071    -0.24589936     1.97533409     0.00122061    -0.00103193     0.00064178
H        -1.00664479     0.48547943    -0.65050089    -0.00000397     0.00147336    -0.00037610
     6
  Step:    32            Position(A)                                  Velocity(au)
C        -0.04001105     0.00725473    -0.30734226     0.00007009     0.00018632    -0.00094697
N        -0.04921012    -0.08516565     1.58526634    -0.00015617    -0.00024127     0.00080567
H         1.00836784    -0.14381047    -0.79662991    -0.00037761    -0.00217917    -0.00060849
H         0.89722136     0.32728838     1.99344449     0.00028604     0.00299126     0.00033365
H        -0.95276691    -0.25712466     1.98275563     0.00114503    -0.00102805     0.00074071
H        -1.00516653     0.50094186    -0.65461085     0.00028138     0.00134856    -0.00037748
     6
  Step:    33            Position(A)                                  Velocity(au)
C        -0.03919035     0.00937933    -0.31730033     0.00007882     0.00020151    -0.00087105
N        -0.05056844    -0.08775158     1.59371015    -0.00008596    -0.00022920     0.00073573
H         1.00175093    -0.16786678    -0.80251163    -0.00082289    -0.00221282    -0.00047334
H         0.89652058     0.35918914     1.99601539    -0.00044033     0.00281864     0.00012802
H        -0.94103109    -0.26838985     1.99153844     0.00094428    -0.00103857     0.00088536
H        -1.00048909     0.51498165    -0.65875906     0.00057416     0.00121671    -0.00038452
     6
  Step:    34            Position(A)                                  Velocity(au)
C        -0.03828675     0.01166319    -0.32639806     0.00008510     0.00021527    -0.00078946
N        -0.05109059    -0.09017994     1.60136190    -0.00000644    -0.00021327     0.00066119
H         0.99036563    -0.19222005    -0.80698512    -0.00124041    -0.00223539    -0.00035439
H         0.88758830     0.38895146     1.99624509    -0.00119855     0.00260834    -0.00008673
H        -0.93210900    -0.27984533     2.00212462     0.00065352    -0.00105950     0.00106025
H        -0.99260570     0.52755969    -0.66302291     0.00086086     0.00108504    -0.00039992
     6
  Step:    35            Position(A)                                  Velocity(au)
C        -0.03732867     0.01408885    -0.33457133     0.00008862     0.00022731    -0.00070181
N        -0.05070938    -0.09241718     1.60817498     0.00007569    -0.00019533     0.00058303
H         0.97461464    -0.21677026    -0.81026457    -0.00161213    -0.00225150    -0.00025845
H         0.87030009     0.41625157     1.99411791    -0.00194928     0.00237779    -0.00029614
H        -0.92673399    -0.29156849     2.01473351     0.00032533    -0.00108186     0.00124159
H        -0.98165619     0.53871888    -0.66750802     0.00112821     0.00096131    -0.00042620
     6
  Step:    36            Position(A)                                  Velocity(au)
C        -0.03634804     0.01663612    -0.34175141     0.00008908     0.00023743    -0.00060765
N        -0.04943473    -0.09445313     1.61411688     0.00015339    -0.00017778     0.00050258
H         0.95509729    -0.24147591    -0.81263912    -0.00192054    -0.00226724    -0.00019228
H         0.84494409     0.44097016     1.98976655    -0.00265464     0.00214808    -0.00048654
H        -0.92499183    -0.30351305     2.02928667     0.00001876    -0.00109331     0.00140147
H        -0.96792396     0.54859021    -0.67234682     0.00136335     0.00085380    -0.00046578
     6
  Step:    37            Position(A)                                  Velocity(au)
C        -0.03537997     0.01928314    -0.34786483     0.00008622     0.00024553    -0.00050658
N        -0.04735367    -0.09630645     1.61916984     0.00022002    -0.00016347     0.00042093
H         0.93259922    -0.26637058    -0.81447113    -0.00214980    -0.00229012    -0.00016225
H         0.81222470     0.46324486     1.98347388    -0.00327530     0.00194638    -0.00064342
H        -0.92632365    -0.31548683     2.04539345    -0.00021410    -0.00108128     0.00151380
H        -0.95183027     0.55739737    -0.67769780     0.00155428     0.00077100    -0.00052097
     6
  Step:    38            Position(A)                                  Velocity(au)
C        -0.03446181     0.02200750    -0.35283373     0.00007997     0.00025158    -0.00039826
N        -0.04462144    -0.09802931     1.62332542     0.00027010    -0.00015559     0.00033853
H         0.90806631    -0.29157658    -0.81618875    -0.00228797    -0.00232833    -0.00017336
H         0.77329068     0.48355094     1.97569043    -0.00377027     0.00180768    -0.00075072
H        -0.92967569    -0.32716821     2.06240395    -0.00033886    -0.00103615     0.00155943
H        -0.93392114     0.56545733    -0.68374394     0.00169067     0.00072117    -0.00059384
     6
  Step:    39            Position(A)                                  Velocity(au)
C        -0.03363041     0.02478696    -0.35657757     0.00007058     0.00025560    -0.00028263
N        -0.04144474    -0.09971031     1.62657579     0.00029998    -0.00015746     0.00025509
H         0.88254547    -0.31730727    -0.81826379    -0.00233026    -0.00238940    -0.00022773
H         0.72974290     0.50279136     1.96705033    -0.00410157     0.00177363    -0.00079216
H        -0.93373687    -0.33815465     2.07950893    -0.00034309    -0.00095337     0.00152888
H        -0.91484369     0.57317437    -0.69068916     0.00176508     0.00071154    -0.00068594
     6
  Step:    40            Position(A)                                  Velocity(au)
C        -0.03291764     0.02759927    -0.35901680     0.00005875     0.00025754    -0.00016005
N        -0.03805872    -0.10147399     1.62890608     0.00030846    -0.00017195     0.00016989
H         0.85708747    -0.34384936    -0.82117073    -0.00228219    -0.00247797    -0.00032282
H         0.68356090     0.52235257     1.95836048    -0.00424492     0.00188565    -0.00075523
H        -0.93718154    -0.34802511     2.09585120    -0.00023434    -0.00083398     0.00142217
H        -0.89530668     0.58102363    -0.69875026     0.00177476     0.00074702    -0.00079768
     6
  Step:    41            Position(A)                                  Velocity(au)
C        -0.03234516     0.03042110    -0.36007896     0.00004562     0.00025719    -0.00003154
N        -0.03469648    -0.10347204     1.63029240     0.00029744    -0.00020051     0.00008237
H         0.83261830    -0.37151762    -0.82532616    -0.00216150    -0.00259326    -0.00045000
H         0.63687722     0.54404360     1.95052828    -0.00420446     0.00217011    -0.00063791
H        -0.93886348    -0.35639964     2.11062170    -0.00003444    -0.00068385     0.00124669
H        -0.87601736     0.58951688    -0.70814002     0.00172341     0.00082875    -0.00092754
     6
  Step:    42            Position(A)                                  Velocity(au)
C        -0.03191964     0.03322574    -0.35970670     0.00003261     0.00025415     0.00010115
N        -0.03155167    -0.10586048     1.63070807     0.00027224    -0.00024178    -0.00000712
H         0.80980044    -0.40058193    -0.83101532    -0.00199705    -0.00272728    -0.00059420
H         0.59158031     0.56982787     1.94440491    -0.00402382     0.00261851    -0.00045544
H        -0.93793492    -0.36298558     2.12312494     0.00022667    -0.00051239     0.00101461
H        -0.85760379     0.59915403    -0.71904187     0.00162228     0.00095272    -0.00107120
     6
  Step:    43            Position(A)                                  Velocity(au)
C        -0.03163167     0.03598105    -0.35786611     0.00002104     0.00024788     0.00023558
N        -0.02874060    -0.10876151     1.63013655     0.00024101    -0.00029072    -0.00009709
H         0.78892901    -0.43118211    -0.83832538    -0.00182381    -0.00286492    -0.00073558
H         0.54884847     0.60132850     1.94056464    -0.00378194     0.00317341    -0.00024220
H        -0.93390459    -0.36760923     2.13281829     0.00051582    -0.00033127     0.00074082
H        -0.84052685     0.61035953    -0.73157448     0.00149006     0.00110909    -0.00122095
     6
  Step:    44            Position(A)                                  Velocity(au)
C        -0.03145941     0.03864862    -0.35455298     0.00001168     0.00023789     0.00036893
N        -0.02627920    -0.11222062     1.62858411     0.00021268    -0.00033907    -0.00018526
H         0.76990103    -0.46325750    -0.84710758    -0.00167572    -0.00298642    -0.00085279
H         0.50884313     0.63925236     1.93910628    -0.00356932     0.00373399    -0.00004476
H        -0.92665030    -0.37023281     2.13933172     0.00079976    -0.00015311     0.00044158
H        -0.82500580     0.62341756    -0.74575239     0.00135061     0.00128272    -0.00136572
     6