     6
  Step:   120            Position(A)                                  Velocity(au)
C        -0.04334285     0.01030191    -0.14767954    -0.00002379    -0.00004002     0.00055538
N        -0.04508166    -0.06834624     1.44824445     0.00000757     0.00000253    -0.00048462
H         0.88200375    -0.34297071    -0.68742963    -0.00053619    -0.00156632     0.00009095
H         0.79405207     0.37726064     1.93741273    -0.00093638     0.00180026    -0.00012842
H        -0.87708435    -0.44135907     1.92893797     0.00084927    -0.00142960    -0.00032242
H        -0.86898190     0.56430419    -0.65242822     0.00080166     0.00163744     0.00047644
