    14
  Step:   600            Position(A)                                  Velocity(au)
C        -5.97164162    -1.09035997    -0.32105676     0.00036282     0.00023068    -0.00042618
C        -4.77717379    -0.29528463    -0.44044774    -0.00044137    -0.00003259     0.00021903
H        -6.28023775    -1.35793333     0.72496314    -0.00094200    -0.00155540    -0.00074581
H        -6.58288922    -1.21814769    -1.20430028    -0.00016018     0.00057199     0.00056985
H        -4.37588979    -0.02095458    -1.38875000    -0.00105582    -0.00021302     0.00160771
C        -3.90243079     0.18836210     0.72860399     0.00024914    -0.00058302     0.00060548
C        -2.79233911     1.16098479     0.65524373    -0.00040097    -0.00008151    -0.00041364
H        -4.39583178     0.01849568     1.67646114     0.00215825     0.00205783     0.00082941
H        -2.25408529     1.54163947     1.56878157    -0.00163136     0.00409733    -0.00122164
C        -1.75774467     1.26624206    -0.28741643     0.00037837     0.00001690    -0.00038138
H        -1.74257262     1.08060392    -1.40641199    -0.00037583     0.00432036     0.00055715
N        -0.40156934     1.71939801     0.04985924    -0.00008881    -0.00031346     0.00028571
H         0.23834163     2.04002188    -0.72145731     0.00051195    -0.00151150    -0.00050606
H        -0.19464224     2.00800211     1.08061847     0.00096585     0.00194506    -0.00033412
