|===============================================================================
|
|  DFTB+ release 20.1
|
|  Copyright (C) 2006 - 2020  DFTB+ developers group
|
|===============================================================================
|
|  When publishing results obtained with DFTB+, please cite the following
|  reference:
|
|  * DFTB+, a software package for efficient approximate density functional
|    theory based atomistic simulations, J. Chem. Phys. 152, 124101 (2020).
|    [doi: 10.1063/1.5143190]
|
|  You should also cite additional publications crediting the parametrization
|  data you use. Please consult the documentation of the SK-files for the
|  references.
|
|===============================================================================

Reading input file 'dftb_in.hsd'
Parser version: 8

--------------------------------------------------------------------------------
Reading SK-files:
Done.


Processed input in HSD format written to 'dftb_pin.hsd'

Starting initialization...
--------------------------------------------------------------------------------
OpenMP threads:              1
Chosen random seed:          509707824
Mode:                        Static calculation
Self consistent charges:     Yes
SCC-tolerance:                 0.100000E-05
Max. scc iterations:                   1000
Shell resolved Hubbard:      No
Spin polarisation:           No
Nr. of up electrons:             6.000000
Nr. of down electrons:           6.000000
Periodic boundaries:         No
Electronic solver:           Relatively robust
Maximal SCC-cycles:                    1000
Initial charges:             Set automatically (system chrg:   0.100E+01)
Included shells:             C:  s, p
                             N:  s, p
                             H:  s
Spin coupling constants:     C   1(s)-1(s):  -0.455900E-01
                             C   1(s)-2(p):  -0.293000E-01
                             C   2(p)-1(s):  -0.293000E-01
                             C   2(p)-2(p):  -0.275500E-01
                             N   1(s)-1(s):  -0.468700E-01
                             N   1(s)-2(p):  -0.317000E-01
                             N   2(p)-1(s):  -0.317000E-01
                             N   2(p)-2(p):  -0.307200E-01
                             H   1(s)-1(s):  -0.792500E-01
Range separated hybrid:      Yes
  Screening parameter omega:   0.300000E+00
  Range separated algorithm:   MatrixBased
Extra options:
                             Mulliken analysis
                             Force calculation
Force type                   original
                             Eigenvector printing


REKS Calcuation:             Yes
SSR(2,2) Calcuation:         Yes
Energy Functional:           (PPS+OSS)/2
Number of Core Orbitals:                  5
Number of Active Orbitals:                2
Number of Basis:                         12
Number of States:                         2
State-Averaging Weight:          0.500000
                                 0.500000
State of Interest:                        1
Initial Guess:               Diagonalize H0 matrix
Newton-Raphson for FON opt:  Yes
NR max. Iterations:                      50
Level Shifting:              Yes
Shift Value:                     0.300000
W Scale Factor:              C  =    3.000000
                             N  =    3.000000
                             H  =    3.000000
Transition Dipole:           No
Gradient of Microstate:      No
CP-REKS Solver:              Preconditioned Conjugate-Gradient
CG max. Iterations:                     100
CG Tolerance:                  0.100000E-07
Memory for A and Hxc:        Direct Updating Without Saving
Non-Adiabatic Coupling:      Yes

--------------------------------------------------------------------------------

***  Geometry step: 0

  iSCC       reks energy        Diff energy         x_a       SCC error   
    1       -6.2638738857       0.0000000000     0.999513    1.19510817
    2       -6.2762960071      -0.0124221214     0.999790    0.09357718
    3       -6.2803351436      -0.0040391365     0.999882    0.03924048
    4       -6.2824180271      -0.0020828835     0.999922    0.01866254
    5       -6.2836144699      -0.0011964428     0.999941    0.00903310
    6       -6.2843261111      -0.0007116412     0.999952    0.00770377
    7       -6.2847518620      -0.0004257509     0.999958    0.00651667
    8       -6.2850053510      -0.0002534890     0.999961    0.00531389
    9       -6.2851553207      -0.0001499697     0.999964    0.00422515
   10       -6.2852436720      -0.0000883513     0.999965    0.00330059
   11       -6.2852956652      -0.0000519932     0.999966    0.00254658
   12       -6.2853263200      -0.0000306548     0.999966    0.00194806
   13       -6.2853444712      -0.0000181512     0.999967    0.00152466
   14       -6.2853552829      -0.0000108117     0.999967    0.00124620
   15       -6.2853617677      -0.0000064848     0.999967    0.00101564
   16       -6.2853656860      -0.0000039182     0.999967    0.00082566
   17       -6.2853680707      -0.0000023848     0.999967    0.00066975
   18       -6.2853695322      -0.0000014615     0.999967    0.00054224
   19       -6.2853704336      -0.0000009013     0.999967    0.00043826
   20       -6.2853709925      -0.0000005589     0.999967    0.00035368
   21       -6.2853713408      -0.0000003483     0.999967    0.00028505
   22       -6.2853715587      -0.0000002179     0.999967    0.00022947
   23       -6.2853716956      -0.0000001368     0.999967    0.00018453
   24       -6.2853717817      -0.0000000862     0.999967    0.00014826
   25       -6.2853718361      -0.0000000544     0.999967    0.00011934
   26       -6.2853718705      -0.0000000344     0.999967    0.00009642
   27       -6.2853718922      -0.0000000218     0.999967    0.00007778
   28       -6.2853719060      -0.0000000138     0.999967    0.00006266
   29       -6.2853719148      -0.0000000088     0.999967    0.00005042
   30       -6.2853719204      -0.0000000056     0.999967    0.00004053
   31       -6.2853719239      -0.0000000035     0.999967    0.00003255
   32       -6.2853719261      -0.0000000022     0.999967    0.00002612
   33       -6.2853719276      -0.0000000014     0.999967    0.00002095
   34       -6.2853719285      -0.0000000009     0.999967    0.00001679
   35       -6.2853719291      -0.0000000006     0.999967    0.00001345
   36       -6.2853719294      -0.0000000004     0.999967    0.00001077
   37       -6.2853719297      -0.0000000002     0.999967    0.00000862
   38       -6.2853719298      -0.0000000001     0.999967    0.00000690
   39       -6.2853719299      -0.0000000001     0.999967    0.00000552
   40       -6.2853719300      -0.0000000001     0.999967    0.00000441
   41       -6.2853719300      -0.0000000000     0.999967    0.00000353
   42       -6.2853719300      -0.0000000000     0.999967    0.00000282
   43       -6.2853719300      -0.0000000000     0.999967    0.00000225
   44       -6.2853719301      -0.0000000000     0.999967    0.00000180
   45       -6.2853719301      -0.0000000000     0.999967    0.00000144
   46       -6.2853719301      -0.0000000000     0.999967    0.00000115
   47       -6.2853719301      -0.0000000000     0.999967    0.00000092
  
--------------------------------------------------
 Final SA-REKS(2,2) energy:      -6.28537193
  
 State     Energy      FON(1)    FON(2)   Spin
  PPS   -6.41517503   1.999935  0.000065  0.00
  OSS   -6.15556883   1.000000  1.000000  0.00
 Trip   -6.23497013   1.000000  1.000000  1.00
--------------------------------------------------

 Lagrangian Wab:  -0.00361063 -0.00361050

--------------------------------------------------
 SSR: 2SI-2SA-REKS(2,2) Hamiltonian matrix
               PPS           OSS
   PPS    -6.41517503   -0.00507691
   OSS    -0.00507691   -6.15556883
--------------------------------------------------

----------------------------------------------------------------
 SSR: 2SI-2SA-REKS(2,2) states
                    E_n       C_{PPS}    C_{OSS}
 SSR state  1   -6.41527427  -0.999809  -0.019545
 SSR state  2   -6.15546959   0.019545  -0.999809
----------------------------------------------------------------

 unrelaxed SSR FONs for S0:  1.999553  0.000447

Total Energy:                       -6.4152742730 H         -174.5685 eV
Extrapolated to 0:                  -6.4152742730 H         -174.5685 eV

----------------------------------------------------------------------------------
 Solving CP-REKS equation for  1 state vector...
----------------------------------------------------------------------------------
  CG solver: Constructing Y initial guess
  CG solver: Iteration    1    eps =    0.000075519842
  CG solver: Iteration    2    eps =    0.000013627760
  CG solver: Iteration    3    eps =    0.000000480911
  CG solver: Iteration    4    eps =    0.000000148974
  CG solver: Iteration    5    eps =    0.000000007092
  Convergence reached in CG solver after    5 iterations
  CG solver: Calculating converged R, Z, Q2 matrix
----------------------------------------------------------------------------------

----------------------------------------------------------------------------------
 Solving CP-REKS equation for SI between  1 and  2 state vectors...
----------------------------------------------------------------------------------
  CG solver: Constructing Y initial guess
  CG solver: Iteration    1    eps =    0.000978068350
  CG solver: Iteration    2    eps =    0.000711578152
  CG solver: Iteration    3    eps =    0.000209965407
  CG solver: Iteration    4    eps =    0.000002488547
  CG solver: Iteration    5    eps =    0.000000309221
  CG solver: Iteration    6    eps =    0.000000005669
  Convergence reached in CG solver after    6 iterations
  CG solver: Calculating converged R, Z, Q2 matrix
----------------------------------------------------------------------------------

--------------------------------------------------
 Gradient Information
--------------------------------------------------
           1 st state (SSR)
    -0.00134033    -0.00403743     0.03348324
     0.00463966    -0.00009626    -0.02665844
     0.00843870     0.00200672    -0.00567569
     0.00747701     0.00123947     0.00298187
    -0.01086439     0.00160116     0.00046519
    -0.00835064    -0.00071366    -0.00459617

           2 st state (SSR)
     0.00303180    -0.00700134     0.13805368
    -0.00506375     0.00654218    -0.15353239
    -0.00870379     0.01121865     0.01511033
    -0.00597871    -0.00485137    -0.00652530
     0.00852392     0.00751890    -0.00786289
     0.00819054    -0.01342702     0.01475656
--------------------------------------------------
 Coupling Information
--------------------------------------------------
 between  1 and  2 states
--------------------------------------------------
 g vector - difference gradient
    -0.00217951     0.00152035    -0.05244724
     0.00488796    -0.00338039     0.06355732
     0.00888689    -0.00461811    -0.01039834
     0.00705555     0.00302554     0.00478537
    -0.01004955    -0.00289991     0.00418308
    -0.00860134     0.00635252    -0.00968019

 h vector - derivative coupling
    -0.00021033    -0.00095277     0.00312017
    -0.00083199     0.00149903    -0.00183680
    -0.00790263     0.00022069    -0.00006682
    -0.00824665     0.00056772    -0.00071973
     0.00889700    -0.00156535    -0.00040547
     0.00829460     0.00023068    -0.00009135

 G vector - GDV
    -0.00218606     0.00148195    -0.05228522
     0.00485171    -0.00331922     0.06343697
     0.00857125    -0.00460596    -0.01039301
     0.00672786     0.00304542     0.00475358
    -0.00969416    -0.00295887     0.00416404
    -0.00827059     0.00635668    -0.00967637

 H vector - DCV - non-adiabatic coupling
    -0.00048110    -0.00389315     0.01989018
    -0.00393522     0.00627395    -0.01662549
    -0.03173119     0.00154349     0.00130721
    -0.03277886     0.00172838    -0.00348801
     0.03573056    -0.00558427    -0.00218874
     0.03319581    -0.00006841     0.00110484
--------------------------------------------------


--------------------------------------------------------------------------------
DFTB+ running times                          cpu [s]             wall clock [s]
--------------------------------------------------------------------------------
SCC                                    +     0.02  ( 59.7%)      0.02  ( 46.9%)
Post-SCC processing                    +     0.01  ( 35.0%)      0.01  ( 28.6%)
--------------------------------------------------------------------------------
Missing                                +     0.00  (  5.3%)      0.01  ( 24.5%)
Total                                  =     0.03  (100.0%)      0.05  (100.0%)
--------------------------------------------------------------------------------
