|===============================================================================
|
|  DFTB+ release 20.1
|
|  Copyright (C) 2006 - 2020  DFTB+ developers group
|
|===============================================================================
|
|  When publishing results obtained with DFTB+, please cite the following
|  reference:
|
|  * DFTB+, a software package for efficient approximate density functional
|    theory based atomistic simulations, J. Chem. Phys. 152, 124101 (2020).
|    [doi: 10.1063/1.5143190]
|
|  You should also cite additional publications crediting the parametrization
|  data you use. Please consult the documentation of the SK-files for the
|  references.
|
|===============================================================================

Reading input file 'dftb_in.hsd'
Parser version: 8

--------------------------------------------------------------------------------
Reading SK-files:
Done.


Processed input in HSD format written to 'dftb_pin.hsd'

Starting initialization...
--------------------------------------------------------------------------------
OpenMP threads:              1
Chosen random seed:          498018581
Mode:                        Static calculation
Self consistent charges:     Yes
SCC-tolerance:                 0.100000E-05
Max. scc iterations:                   1000
Shell resolved Hubbard:      No
Spin polarisation:           No
Nr. of up electrons:            16.000000
Nr. of down electrons:          16.000000
Periodic boundaries:         No
Electronic solver:           Relatively robust
Maximal SCC-cycles:                    1000
Initial charges:             Set automatically (system chrg:   0.100E+01)
Included shells:             C:  s, p
                             H:  s
                             N:  s, p
Spin coupling constants:     C   1(s)-1(s):  -0.455900E-01
                             C   1(s)-2(p):  -0.293000E-01
                             C   2(p)-1(s):  -0.293000E-01
                             C   2(p)-2(p):  -0.275500E-01
                             H   1(s)-1(s):  -0.792500E-01
                             N   1(s)-1(s):  -0.468700E-01
                             N   1(s)-2(p):  -0.317000E-01
                             N   2(p)-1(s):  -0.317000E-01
                             N   2(p)-2(p):  -0.307200E-01
Range separated hybrid:      Yes
  Screening parameter omega:   0.300000E+00
  Range separated algorithm:   MatrixBased
Extra options:
                             Mulliken analysis
                             Force calculation
Force type                   original
                             Eigenvector printing


REKS Calcuation:             Yes
SSR(2,2) Calcuation:         Yes
Energy Functional:           (PPS+OSS)/2
Number of Core Orbitals:                 15
Number of Active Orbitals:                2
Number of Basis:                         32
Number of States:                         2
State-Averaging Weight:          0.500000
                                 0.500000
State of Interest:                        1
Initial Guess:               Diagonalize H0 matrix
Newton-Raphson for FON opt:  Yes
NR max. Iterations:                      50
Level Shifting:              Yes
Shift Value:                     0.300000
W Scale Factor:              C  =    3.200000
                             H  =    3.200000
                             N  =    3.200000
Transition Dipole:           No
Gradient of Microstate:      No
CP-REKS Solver:              Preconditioned Conjugate-Gradient
CG max. Iterations:                     100
CG Tolerance:                  0.100000E-07
Memory for A and Hxc:        Direct Updating Without Saving
Non-Adiabatic Coupling:      Yes

--------------------------------------------------------------------------------

***  Geometry step: 0

  iSCC       reks energy        Diff energy         x_a       SCC error   
    1      -16.3637878417       0.0000000000     0.999778    1.20247734
    2      -16.3765352262      -0.0127473845     0.999966    0.03991049
    3      -16.3792138059      -0.0026785796     0.999988    0.01258922
    4      -16.3802110382      -0.0009972323     0.999994    0.00829548
    5      -16.3806521580      -0.0004411198     0.999996    0.00618118
    6      -16.3808655684      -0.0002134105     0.999997    0.00446272
    7      -16.3809762911      -0.0001107226     0.999998    0.00316149
    8      -16.3810379129      -0.0000616218     0.999998    0.00221000
    9      -16.3810749122      -0.0000369993     0.999998    0.00152756
   10      -16.3810989423      -0.0000240301     0.999999    0.00104331
   11      -16.3811157485      -0.0000168062     0.999999    0.00070163
   12      -16.3811282684      -0.0000125199     0.999999    0.00054245
   13      -16.3811380677      -0.0000097993     0.999999    0.00049071
   14      -16.3811460218      -0.0000079542     0.999999    0.00045115
   15      -16.3811526476      -0.0000066258     0.999999    0.00041624
   16      -16.3811582679      -0.0000056203     0.999999    0.00038534
   17      -16.3811630968      -0.0000048288     0.999999    0.00035783
   18      -16.3811672836      -0.0000041868     0.999999    0.00033319
   19      -16.3811709380      -0.0000036544     0.999999    0.00031099
   20      -16.3811741435      -0.0000032055     0.999999    0.00029085
   21      -16.3811769660      -0.0000028225     0.999999    0.00027249
   22      -16.3811794585      -0.0000024925     0.999999    0.00025567
   23      -16.3811816649      -0.0000022063     0.999999    0.00024019
   24      -16.3811836216      -0.0000019567     0.999999    0.00022588
   25      -16.3811853597      -0.0000017381     0.999999    0.00021262
   26      -16.3811869056      -0.0000015459     0.999999    0.00020029
   27      -16.3811882821      -0.0000013765     0.999999    0.00018881
   28      -16.3811895089      -0.0000012268     0.999999    0.00017808
   29      -16.3811906032      -0.0000010943     0.999999    0.00016805
   30      -16.3811915800      -0.0000009768     0.999999    0.00015865
   31      -16.3811924524      -0.0000008724     0.999999    0.00014983
   32      -16.3811932321      -0.0000007797     0.999999    0.00014155
   33      -16.3811939292      -0.0000006971     0.999999    0.00013376
   34      -16.3811945527      -0.0000006235     0.999999    0.00012644
   35      -16.3811951106      -0.0000005579     0.999999    0.00011954
   36      -16.3811956100      -0.0000004994     0.999999    0.00011305
   37      -16.3811960572      -0.0000004472     0.999999    0.00010693
   38      -16.3811964576      -0.0000004005     0.999999    0.00010115
   39      -16.3811968164      -0.0000003588     0.999999    0.00009571
   40      -16.3811971379      -0.0000003215     0.999999    0.00009056
   41      -16.3811974261      -0.0000002882     0.999999    0.00008571
   42      -16.3811976844      -0.0000002583     0.999999    0.00008112
   43      -16.3811979160      -0.0000002316     0.999999    0.00007679
   44      -16.3811981237      -0.0000002077     0.999999    0.00007270
   45      -16.3811983100      -0.0000001863     0.999999    0.00006883
   46      -16.3811984771      -0.0000001671     0.999999    0.00006517
   47      -16.3811986270      -0.0000001499     0.999999    0.00006172
   48      -16.3811987614      -0.0000001345     0.999999    0.00005845
   49      -16.3811988821      -0.0000001207     0.999999    0.00005535
   50      -16.3811989905      -0.0000001083     0.999999    0.00005243
   51      -16.3811990877      -0.0000000972     0.999999    0.00004966
   52      -16.3811991749      -0.0000000873     0.999999    0.00004704
   53      -16.3811992533      -0.0000000783     0.999999    0.00004456
   54      -16.3811993236      -0.0000000703     0.999999    0.00004221
   55      -16.3811993867      -0.0000000631     0.999999    0.00003999
   56      -16.3811994434      -0.0000000567     0.999999    0.00003789
   57      -16.3811994943      -0.0000000509     0.999999    0.00003590
   58      -16.3811995400      -0.0000000457     0.999999    0.00003402
   59      -16.3811995811      -0.0000000411     0.999999    0.00003223
   60      -16.3811996179      -0.0000000369     0.999999    0.00003054
   61      -16.3811996511      -0.0000000331     0.999999    0.00002894
   62      -16.3811996808      -0.0000000297     0.999999    0.00002743
   63      -16.3811997075      -0.0000000267     0.999999    0.00002599
   64      -16.3811997315      -0.0000000240     0.999999    0.00002463
   65      -16.3811997531      -0.0000000216     0.999999    0.00002334
   66      -16.3811997724      -0.0000000194     0.999999    0.00002212
   67      -16.3811997898      -0.0000000174     0.999999    0.00002097
   68      -16.3811998055      -0.0000000156     0.999999    0.00001987
   69      -16.3811998195      -0.0000000140     0.999999    0.00001883
   70      -16.3811998321      -0.0000000126     0.999999    0.00001785
   71      -16.3811998435      -0.0000000113     0.999999    0.00001692
   72      -16.3811998537      -0.0000000102     0.999999    0.00001604
   73      -16.3811998628      -0.0000000092     0.999999    0.00001520
   74      -16.3811998710      -0.0000000082     0.999999    0.00001441
   75      -16.3811998784      -0.0000000074     0.999999    0.00001366
   76      -16.3811998851      -0.0000000066     0.999999    0.00001295
   77      -16.3811998910      -0.0000000060     0.999999    0.00001227
   78      -16.3811998964      -0.0000000054     0.999999    0.00001163
   79      -16.3811999012      -0.0000000048     0.999999    0.00001103
   80      -16.3811999056      -0.0000000043     0.999999    0.00001045
   81      -16.3811999095      -0.0000000039     0.999999    0.00000991
   82      -16.3811999130      -0.0000000035     0.999999    0.00000939
   83      -16.3811999161      -0.0000000031     0.999999    0.00000891
   84      -16.3811999189      -0.0000000028     0.999999    0.00000844
   85      -16.3811999215      -0.0000000025     0.999999    0.00000800
   86      -16.3811999238      -0.0000000023     0.999999    0.00000759
   87      -16.3811999258      -0.0000000021     0.999999    0.00000719
   88      -16.3811999276      -0.0000000018     0.999999    0.00000682
   89      -16.3811999293      -0.0000000017     0.999999    0.00000646
   90      -16.3811999308      -0.0000000015     0.999999    0.00000613
   91      -16.3811999321      -0.0000000013     0.999999    0.00000581
   92      -16.3811999333      -0.0000000012     0.999999    0.00000551
   93      -16.3811999344      -0.0000000011     0.999999    0.00000522
   94      -16.3811999354      -0.0000000010     0.999999    0.00000495
   95      -16.3811999363      -0.0000000009     0.999999    0.00000469
   96      -16.3811999371      -0.0000000008     0.999999    0.00000445
   97      -16.3811999378      -0.0000000007     0.999999    0.00000422
   98      -16.3811999384      -0.0000000006     0.999999    0.00000400
   99      -16.3811999390      -0.0000000006     0.999999    0.00000379
  100      -16.3811999395      -0.0000000005     0.999999    0.00000360
  101      -16.3811999399      -0.0000000005     0.999999    0.00000341
  102      -16.3811999404      -0.0000000004     0.999999    0.00000323
  103      -16.3811999407      -0.0000000004     0.999999    0.00000306
  104      -16.3811999411      -0.0000000003     0.999999    0.00000290
  105      -16.3811999414      -0.0000000003     0.999999    0.00000275
  106      -16.3811999416      -0.0000000003     0.999999    0.00000261
  107      -16.3811999419      -0.0000000002     0.999999    0.00000248
  108      -16.3811999421      -0.0000000002     0.999999    0.00000235
  109      -16.3811999423      -0.0000000002     0.999999    0.00000223
  110      -16.3811999425      -0.0000000002     0.999999    0.00000211
  111      -16.3811999426      -0.0000000002     0.999999    0.00000200
  112      -16.3811999428      -0.0000000001     0.999999    0.00000190
  113      -16.3811999429      -0.0000000001     0.999999    0.00000180
  114      -16.3811999430      -0.0000000001     0.999999    0.00000170
  115      -16.3811999431      -0.0000000001     0.999999    0.00000162
  116      -16.3811999432      -0.0000000001     0.999999    0.00000153
  117      -16.3811999433      -0.0000000001     0.999999    0.00000145
  118      -16.3811999434      -0.0000000001     0.999999    0.00000138
  119      -16.3811999434      -0.0000000001     0.999999    0.00000131
  120      -16.3811999435      -0.0000000001     0.999999    0.00000124
  121      -16.3811999436      -0.0000000001     0.999999    0.00000117
  122      -16.3811999436      -0.0000000000     0.999999    0.00000111
  123      -16.3811999436      -0.0000000000     0.999999    0.00000106
  124      -16.3811999437      -0.0000000000     0.999999    0.00000100
  125      -16.3811999437      -0.0000000000     0.999999    0.00000095
  
--------------------------------------------------
 Final SA-REKS(2,2) energy:     -16.38119994
  
 State     Energy      FON(1)    FON(2)   Spin
  PPS  -16.45575342   1.999998  0.000002  0.00
  OSS  -16.30664646   1.000000  1.000000  0.00
 Trip  -16.34273368   1.000000  1.000000  1.00
--------------------------------------------------

 Lagrangian Wab:  -0.00171205 -0.00171199

--------------------------------------------------
 SSR: 2SI-2SA-REKS(2,2) Hamiltonian matrix
               PPS           OSS
   PPS   -16.45575342   -0.00241878
   OSS    -0.00241878  -16.30664646
--------------------------------------------------

----------------------------------------------------------------
 SSR: 2SI-2SA-REKS(2,2) states
                    E_n       C_{PPS}    C_{OSS}
 SSR state  1  -16.45579265  -0.999869  -0.016215
 SSR state  2  -16.30660724   0.016215  -0.999869
----------------------------------------------------------------

 unrelaxed SSR FONs for S0:  1.999735  0.000265

Total Energy:                      -16.4557926506 H         -447.7849 eV
Extrapolated to 0:                 -16.4557926506 H         -447.7849 eV

----------------------------------------------------------------------------------
 Solving CP-REKS equation for  1 state vector...
----------------------------------------------------------------------------------
  CG solver: Constructing Y initial guess
  CG solver: Iteration    1    eps =    0.000791885420
  CG solver: Iteration    2    eps =    0.000149919164
  CG solver: Iteration    3    eps =    0.000010673700
  CG solver: Iteration    4    eps =    0.000003433974
  CG solver: Iteration    5    eps =    0.000000799358
  CG solver: Iteration    6    eps =    0.000000776701
  CG solver: Iteration    7    eps =    0.000000224562
  CG solver: Iteration    8    eps =    0.000000118791
  CG solver: Iteration    9    eps =    0.000000025750
  CG solver: Iteration   10    eps =    0.000000000948
  Convergence reached in CG solver after   10 iterations
  CG solver: Calculating converged R, Z, Q2 matrix
----------------------------------------------------------------------------------

----------------------------------------------------------------------------------
 Solving CP-REKS equation for SI between  1 and  2 state vectors...
----------------------------------------------------------------------------------
  CG solver: Constructing Y initial guess
  CG solver: Iteration    1    eps =    0.056525511171
  CG solver: Iteration    2    eps =    0.001304767915
  CG solver: Iteration    3    eps =    0.000152649701
  CG solver: Iteration    4    eps =    0.000106038347
  CG solver: Iteration    5    eps =    0.000012112109
  CG solver: Iteration    6    eps =    0.000004500472
  CG solver: Iteration    7    eps =    0.000002203082
  CG solver: Iteration    8    eps =    0.000001242227
  CG solver: Iteration    9    eps =    0.000000434562
  CG solver: Iteration   10    eps =    0.000000073423
  CG solver: Iteration   11    eps =    0.000000013283
  CG solver: Iteration   12    eps =    0.000000001132
  Convergence reached in CG solver after   12 iterations
  CG solver: Calculating converged R, Z, Q2 matrix
----------------------------------------------------------------------------------

--------------------------------------------------
 Gradient Information
--------------------------------------------------
           1 st state (SSR)
     0.13078399     0.07797210     0.00423824
    -0.16392156    -0.06494271     0.03629146
    -0.03179714    -0.00821827    -0.01323921
     0.00839255    -0.00105566     0.01527570
     0.03041799     0.00129887    -0.02994341
     0.12598886     0.05087467     0.00836058
    -0.11185723    -0.06233374     0.05137348
     0.00834124    -0.01367634    -0.05064950
     0.02923278     0.02479376    -0.02995734
    -0.01471224    -0.02753444     0.01997728
     0.03426087     0.01894398     0.01211968
    -0.03777423     0.02038408    -0.01484326
     0.00546275     0.00031438    -0.00811360
    -0.01281863    -0.01682068    -0.00089011

           2 st state (SSR)
     0.14761079     0.07117684    -0.00729748
    -0.18732279    -0.07886409     0.04611280
    -0.02143879    -0.01255543    -0.00276911
     0.00132311     0.01268458     0.00300584
     0.03249927    -0.00624217    -0.02207778
     0.15538135     0.08228655     0.00089103
    -0.13405754    -0.08201368     0.05297221
     0.00825745    -0.00857104    -0.05245706
     0.03115146     0.02464937    -0.03021002
     0.06686233     0.01328696     0.05800701
     0.03606311     0.01761786     0.00880785
    -0.12907528    -0.02615231    -0.05215268
     0.00687496     0.00750696    -0.00829986
    -0.01412942    -0.01481040     0.00546726
--------------------------------------------------
 Coupling Information
--------------------------------------------------
 between  1 and  2 states
--------------------------------------------------
 g vector - difference gradient
    -0.00846413     0.00366944     0.00590542
     0.01180372     0.00675427    -0.00525937
    -0.00529537     0.00216112    -0.00532638
     0.00357676    -0.00700276     0.00623820
    -0.00111048     0.00381866    -0.00401080
    -0.01347131    -0.01533922     0.00423041
     0.00990131     0.00964075    -0.00095109
     0.00002552    -0.00263206     0.00093476
    -0.00093187    -0.00001169     0.00013015
    -0.04113149    -0.02058249    -0.01931165
    -0.00091313     0.00067679     0.00168687
     0.04608630     0.02346501     0.01883659
    -0.00072783    -0.00362883     0.00010835
     0.00065200    -0.00098897    -0.00321146

 h vector - derivative coupling
     0.00142709    -0.00832271    -0.00414641
    -0.00298828     0.00647526     0.01066838
     0.00349750     0.00026520     0.00273029
    -0.00123850     0.00397683    -0.00308355
     0.00213593    -0.00142256     0.00233998
    -0.03799434    -0.01155798    -0.01521624
     0.03713170     0.00630007     0.00466350
     0.00050556     0.00240645    -0.00094028
    -0.00086211     0.00258685    -0.00011549
     0.00994780     0.00496395     0.00883934
     0.00035570    -0.00041249    -0.00092735
    -0.01269154    -0.00568911    -0.00530345
     0.00065831     0.00094483    -0.00046755
     0.00011517    -0.00051460     0.00095881

 G vector - GDV
    -0.00841340     0.00339763     0.00576786
     0.01170061     0.00696069    -0.00491067
    -0.00517917     0.00216858    -0.00523505
     0.00353472    -0.00687012     0.00613493
    -0.00104064     0.00377052    -0.00393281
    -0.01469625    -0.01570594     0.00373478
     0.01110015     0.00983997    -0.00079936
     0.00004190    -0.00255265     0.00090378
    -0.00095934     0.00007220     0.00012634
    -0.04078729    -0.02041070    -0.01901486
    -0.00090112     0.00066306     0.00165591
     0.04565052     0.02326820     0.01865471
    -0.00070610    -0.00359629     0.00009313
     0.00065540    -0.00100514    -0.00317868

 H vector - DCV - non-adiabatic coupling
     0.01140059    -0.05655593    -0.02906266
    -0.02258573     0.04191322     0.07261646
     0.02458260     0.00130700     0.01944940
    -0.00907480     0.02816507    -0.02201428
     0.01455113    -0.01036052     0.01654858
    -0.25161665    -0.07409908    -0.10286134
     0.24661333     0.04011213     0.03145006
     0.00338146     0.01669418    -0.00650259
    -0.00557321     0.01733326    -0.00080202
     0.07558592     0.03772995     0.06341709
     0.00258151    -0.00291059    -0.00657949
    -0.09504466    -0.04321470    -0.03962494
     0.00456861     0.00711868    -0.00315590
     0.00062989    -0.00323266     0.00712164
--------------------------------------------------


--------------------------------------------------------------------------------
DFTB+ running times                          cpu [s]             wall clock [s]
--------------------------------------------------------------------------------
SCC                                    +     0.18  ( 36.4%)      0.18  ( 36.4%)
      Sparse to dense                        0.01  (  1.8%)      0.01  (  2.0%)
      Dense to sparse                        0.03  (  6.7%)      0.04  (  7.8%)
      Range separated Hamiltonian            0.02  (  3.3%)      0.02  (  3.0%)
  Density matrix creation                    0.02  (  3.9%)      0.02  (  4.4%)
Post-SCC processing                    +     0.31  ( 63.2%)      0.31  ( 62.4%)
  Force calculation                          0.31  ( 63.1%)      0.31  ( 62.2%)
--------------------------------------------------------------------------------
Missing                                +     0.00  (  0.4%)      0.01  (  1.2%)
Total                                  =     0.49  (100.0%)      0.50  (100.0%)
--------------------------------------------------------------------------------
