    14
  Step:   600            Position(A)                                  Velocity(au)
C        -6.00995066    -1.05212214    -0.14300318     0.00059162     0.00006868     0.00020124
C        -4.98133779    -0.32616078     0.25463368     0.00027950    -0.00041804    -0.00023992
H        -5.95130635    -1.37798510    -1.20437609     0.00067414     0.00013441    -0.00042256
H        -6.79456690    -1.37803962     0.57408851     0.00019619     0.00157981     0.00006453
H        -5.07128624     0.09487307     1.27413578     0.00063254     0.00014887    -0.00006707
C        -3.73431466     0.36724534    -0.24506581    -0.00006882     0.00077035     0.00024154
C        -2.46448061     0.33593008     0.23046583    -0.00059620    -0.00018510     0.00004791
H        -4.17545233     1.42142285    -0.56423482     0.00278779    -0.00008027     0.00098563
H        -1.87211970    -0.43516556    -0.13929570    -0.00107316    -0.00010689    -0.00034195
C        -1.81702031     1.60561165     0.17741809     0.00029257     0.00025676    -0.00022610
H        -2.45094661     2.38143445    -0.21044805     0.00163240    -0.00165448    -0.00265438
N        -0.50477748     1.91477278     0.16243951    -0.00059894    -0.00037244     0.00011453
H        -0.46402007     2.90379986    -0.10994169    -0.00157230     0.00038721     0.00138609
H         0.31071959     1.33413365    -0.13353184    -0.00089660    -0.00110366    -0.00083576
