 Fermi distribution function

Calculation with static geometry


********************************************************************************
 iSCC Total electronic   Diff electronic      SCC error    
   14   -0.52654281E+01   -0.33137937E-11    0.69251387E-08
********************************************************************************

 Total charge:     1.00000000

 Atomic gross charges (e)
 Atom           Charge
    1       0.32288893
    2      -0.20837347
    3       0.18384184
    4       0.27216149
    5       0.25662919
    6       0.17285203

Nr. of electrons (up):     12.00000000
Atom populations (up)
 Atom       Population
    1       3.67711107
    2       5.20837347
    3       0.81615816
    4       0.72783851
    5       0.74337081
    6       0.82714797

l-shell populations (up)
 Atom Sh.   l       Population
    1   1   0       1.40280991
    1   2   1       2.27430117
    2   1   0       1.52583543
    2   2   1       3.68253805
    3   1   0       0.81615816
    4   1   0       0.72783851
    5   1   0       0.74337081
    6   1   0       0.82714797

Orbital populations (up)
 Atom Sh.   l   m       Population  Label
    1   1   0   0       1.40280991  s
    1   2   1  -1       0.41166803  p_y
    1   2   1   0       0.87835516  p_z
    1   2   1   1       0.98427797  p_x
    2   1   0   0       1.52583543  s
    2   2   1  -1       1.31357445  p_y
    2   2   1   0       1.10527050  p_z
    2   2   1   1       1.26369309  p_x
    3   1   0   0       0.81615816  s
    4   1   0   0       0.72783851  s
    5   1   0   0       0.74337081  s
    6   1   0   0       0.82714797  s

Fermi level:                        -0.5153588907 H          -14.0236 eV
Band energy:                        -8.6616318803 H         -235.6950 eV
TS:                                  0.0000000000 H            0.0000 eV
Band free energy (E-TS):            -8.6616318803 H         -235.6950 eV
Extrapolated E(0K):                 -8.6616318803 H         -235.6950 eV
Input / Output electrons (q):     12.0000000000     12.0000000000

Energy H0:                          -5.4026318205 H         -147.0131 eV
Energy SCC:                          0.1372037088 H            3.7335 eV
Total Electronic energy:            -5.2654281117 H         -143.2796 eV
Repulsive energy:                    0.1338914762 H            3.6434 eV
Total energy:                       -5.1315366355 H         -139.6362 eV
Extrapolated to 0:                  -5.1315366355 H         -139.6362 eV
Total Mermin free energy:           -5.1315366355 H         -139.6362 eV
Force related energy:               -5.1315366355 H         -139.6362 eV

SCC converged

Excitation Energy:                   0.0882707835 H            2.4020 eV

Total Forces
    1      0.005081675461     -0.005543766948      0.046783823969
    2      0.015306025116     -0.019240157032     -0.053419243749
    3     -0.005432103872      0.014197665047      0.002464205884
    4     -0.016136822612      0.006688810675     -0.001649562071
    5     -0.001123032303      0.012987366324      0.005790917922
    6      0.002304258210     -0.009089918066      0.000029858045

Maximal derivative component:        0.534192E-01 au


