     6
  Step:     0            Position(A)                                  Velocity(au)
C        -0.03884545     0.02198792     0.02516928     0.00011524    -0.00009663     0.00031621
N        -0.04682180    -0.06192476     1.29153550     0.00019158     0.00002590    -0.00025345
H         0.95208725    -0.02632645    -0.53318763    -0.00089964     0.00050723     0.00007753
H         0.81841329    -0.06445139     1.86373710    -0.00138150    -0.00015641    -0.00066025
H        -0.87390099    -0.01336002     1.85271018    -0.00126631     0.00028693     0.00064035
H        -0.99600015     0.03287893    -0.53876853    -0.00048803     0.00015380    -0.00030358
     6
  Step:     1            Position(A)                                  Velocity(au)
C        -0.03752497     0.02099897     0.02790573     0.00012240    -0.00008378     0.00017824
N        -0.04461170    -0.06171505     1.28937563     0.00020156     0.00001255    -0.00013560
H         0.94161401    -0.02079396    -0.53262081    -0.00099276     0.00050385     0.00001418
H         0.80324762    -0.06607439     1.85650623    -0.00132452    -0.00014124    -0.00061585
H        -0.88932916    -0.01003036     1.86082617    -0.00146795     0.00031731     0.00078139
H        -1.00138044     0.03451014    -0.54281392    -0.00047426     0.00014402    -0.00041925
     6
  Step:     2            Position(A)                                  Velocity(au)
C        -0.03616779     0.02015503     0.02906865     0.00012188    -0.00007035     0.00003209
N        -0.04241221    -0.06165015     1.28856889     0.00018999    -0.00000036    -0.00000949
H         0.93036863    -0.01530384    -0.53287744    -0.00103705     0.00049969    -0.00007512
H         0.78943690    -0.06754127     1.85026421    -0.00113201    -0.00012816    -0.00047662
H        -0.90601521    -0.00641834     1.86980458    -0.00150276     0.00033858     0.00080367
H        -1.00637552     0.03602958    -0.54794042    -0.00042064     0.00013330    -0.00050233
     6
  Step:     3            Position(A)                                  Velocity(au)
C        -0.03485866     0.01945986     0.02860768     0.00011379    -0.00005684    -0.00011486
N        -0.04045533    -0.06172303     1.28916791     0.00015877    -0.00001246     0.00011793
H         0.91892659    -0.00986225    -0.53426428    -0.00102634     0.00049526    -0.00019371
H         0.77848264    -0.06887810     1.84607919    -0.00081051    -0.00011760    -0.00024446
H        -0.92220494    -0.00262321     1.87840794    -0.00139111     0.00035125     0.00072394
H        -1.01058279     0.03742633    -0.55380334    -0.00033434     0.00012158    -0.00055589
     6
  Step:     4            Position(A)                                  Velocity(au)
C        -0.03367837     0.01891159     0.02655581     0.00009873    -0.00004374    -0.00025520
N        -0.03893880    -0.06192280     1.29114886     0.00011202    -0.00002344     0.00024031
H         0.90791553    -0.00446912    -0.53711529    -0.00095779     0.00049116    -0.00034282
H         0.77170545    -0.07011401     1.84491626    -0.00038796    -0.00010961     0.00006245
H        -0.93644832     0.00126600     1.88564214    -0.00116342     0.00035649     0.00056630
H        -1.01368989     0.03868935    -0.56010147    -0.00022405     0.00010889    -0.00058438
     6
  Step:     5            Position(A)                                  Velocity(au)
C        -0.03269872     0.01850290     0.02302464     0.00007776    -0.00003154    -0.00038236
N        -0.03800459    -0.06223572     1.29442518     0.00005550    -0.00003308     0.00035286
H         0.89797304     0.00088290    -0.54176416    -0.00083326     0.00048810    -0.00052060
H         0.76999534    -0.07127605     1.84744550     0.00008702    -0.00010376     0.00040992
H        -0.94765695     0.00517572     1.89079677    -0.00085269     0.00035583     0.00035642
H        -1.01548425     0.03980840    -0.56658778    -0.00009890     0.00009531    -0.00059296
     6
  Step:     6            Position(A)                                  Velocity(au)
C        -0.03197712     0.01822165     0.01819088     0.00005245    -0.00002061    -0.00049124
N        -0.03772474    -0.06264643     1.29886837    -0.00000424    -0.00004130     0.00045260
H         0.88968627     0.00620895    -0.54850441    -0.00066051     0.00048675    -0.00072126
H         0.77360915    -0.07238396     1.85388399     0.00055314    -0.00009923     0.00075375
H        -0.95510245     0.00905045     1.89343947    -0.00049078     0.00035102     0.00011865
H        -1.01585355     0.04077443    -0.57307367     0.00003209     0.00008095    -0.00058701
     6
  Step:     7            Position(A)                                  Velocity(au)
C        -0.03155124     0.01805208     0.01227777     0.00002479    -0.00001123    -0.00057852
N        -0.03809742    -0.06313923     1.30432673    -0.00006075    -0.00004812     0.00053794
H         0.88352307     0.01153144    -0.55754321    -0.00045327     0.00048767    -0.00093502
H         0.78209642    -0.07344683     1.86393533     0.00094969    -0.00009505     0.00104986
H        -0.95839367     0.01285494     1.89339238    -0.00010787     0.00034406    -0.00012466
H        -1.01478222     0.04157928    -0.57942975     0.00016037     0.00006589    -0.00057186
     6
  Step:     8            Position(A)                                  Velocity(au)
C        -0.03143488     0.01797600     0.00553464    -0.00000295    -0.00000355    -0.00064272
N        -0.03905385    -0.06369923     1.31063673    -0.00010857    -0.00005368     0.00060793
H         0.87977008     0.01687774    -0.56895973    -0.00023013     0.00049123    -0.00114874
H         0.79438543    -0.07446344     1.87685179     0.00122980    -0.00009041     0.00126428
H        -0.95746225     0.01657750     1.89071222     0.00026620     0.00033741    -0.00035238
H        -1.01234524     0.04221581    -0.58558414     0.00027804     0.00005012    -0.00055260
     6
  Step:     9            Position(A)                                  Velocity(au)
C        -0.03161584     0.01797432    -0.00178287    -0.00002842     0.00000239    -0.00068394
N        -0.04047258    -0.06431361     1.31762644    -0.00014364    -0.00005820     0.00066176
H         0.87848856     0.02227796    -0.58267412    -0.00001212     0.00049748    -0.00134757
H         0.80900069    -0.07542471     1.89159394     0.00136832    -0.00008480     0.00137903
H        -0.95256998     0.02023636     1.88568339     0.00060041     0.00033415    -0.00054375
H        -1.00869957     0.04267571    -0.59151886     0.00037805     0.00003352    -0.00053395
     6
  Step:    10            Position(A)                                  Velocity(au)
C        -0.03205658     0.01802828    -0.00942788    -0.00004947     0.00000668    -0.00070348
N        -0.04219616    -0.06497254     1.32511407    -0.00016332    -0.00006201     0.00069845
H         0.87950484     0.02776114    -0.59844048     0.00018053     0.00050620    -0.00151716
H         0.82431999    -0.07631857     1.90702073     0.00136211    -0.00007815     0.00139230
H        -0.94432713     0.02388769     1.87881663     0.00086200     0.00033821    -0.00067819
H        -1.00407458     0.04294906    -0.59726529     0.00045434     0.00001588    -0.00052015
     6
  Step:    11            Position(A)                                  Velocity(au)
C        -0.03269803     0.01812052    -0.01717295    -0.00006846     0.00001296    -0.00077703
N        -0.04404547    -0.06567026     1.33290642    -0.00016553    -0.00007046     0.00077040
H         0.88243794     0.03335205    -0.61586480     0.00030089     0.00069799    -0.00156092
H         0.83879947    -0.07713446     1.92205316     0.00120103    -0.00024779     0.00130971
H        -0.93371201     0.02763544     1.87084663     0.00105130     0.00055611    -0.00074342
H        -0.99875995     0.04302313    -0.60289804     0.00056277    -0.00018159    -0.00045205
     6
  Step:    12            Position(A)                                  Velocity(au)
C        -0.03355423     0.01831175    -0.02642694    -0.00008356     0.00002294    -0.00094092
N        -0.04581738    -0.06651393     1.34196815    -0.00014993    -0.00008472     0.00090842
H         0.88608744     0.04303100    -0.63258861     0.00033010     0.00097106    -0.00145906
H         0.85059473    -0.08173939     1.93567305     0.00089327    -0.00048947     0.00111594
H        -0.92132789     0.03605366     1.86255291     0.00114893     0.00087734    -0.00075623
H        -0.99176297     0.03897639    -0.60715469     0.00070690    -0.00045502    -0.00031225
     6
  Step:    13            Position(A)                                  Velocity(au)
C        -0.03452602     0.01862240    -0.03775745    -0.00008976     0.00003300    -0.00111838
N        -0.04732553    -0.06752361     1.35277974    -0.00011749    -0.00010013     0.00105522
H         0.88965952     0.05459582    -0.64778444     0.00030407     0.00112775    -0.00130344
H         0.85834148    -0.08784246     1.94646657     0.00049525    -0.00060901     0.00084006
H        -0.90857694     0.04682898     1.85430275     0.00109449     0.00108919    -0.00069942
H        -0.98329506     0.03306860    -0.60972920     0.00080850    -0.00060964    -0.00017437
     6
  Step:    14            Position(A)                                  Velocity(au)
C        -0.03551792     0.01903369    -0.05089355    -0.00008698     0.00004126    -0.00126775
N        -0.04838773    -0.06870455     1.36505319    -0.00006977    -0.00011619     0.00117280
H         0.89273952     0.06770262    -0.66110382     0.00024655     0.00126106    -0.00112287
H         0.86142922    -0.09506269     1.95405105     0.00006143    -0.00070224     0.00054510
H        -0.89738393     0.05988167     1.84725178     0.00086379     0.00130603    -0.00053660
H        -0.97407545     0.02563929    -0.61096926     0.00083432    -0.00074184    -0.00007675
     6
  Step:    15            Position(A)                                  Velocity(au)
C        -0.03642893     0.01952499    -0.06549191    -0.00007487     0.00004771    -0.00138517
N        -0.04885195    -0.07006550     1.37843704    -0.00001091    -0.00013312     0.00125845
H         0.89505321     0.08218401    -0.67234929     0.00016985     0.00138245    -0.00093040
H         0.85968546    -0.10320538     1.95839161    -0.00036839    -0.00078137     0.00026085
H        -0.88967988     0.07540091     1.84256368     0.00047506     0.00154450    -0.00027912
H        -0.96504268     0.01683953    -0.61140833     0.00076729    -0.00086423    -0.00003350
     6
  Step:    16            Position(A)                                  Velocity(au)
C        -0.03715582     0.02007737    -0.08119684    -0.00005356     0.00005258    -0.00147084
N        -0.04862649    -0.07161670     1.39258430     0.00005210    -0.00015074     0.00131418
H         0.89645536     0.09794647    -0.68145801     0.00008549     0.00149722    -0.00073785
H         0.85336994    -0.11215656     1.95975765    -0.00075338    -0.00085249     0.00001484
H        -0.88699101     0.09367054     1.84114539    -0.00001590     0.00180696     0.00003955
H        -0.95728953     0.00673269    -0.61170217     0.00059805    -0.00098351    -0.00005233
     6
  Step:    17            Position(A)                                  Velocity(au)
C        -0.03760069     0.02067531    -0.09766932    -0.00002414     0.00005620    -0.00152708
N        -0.04771219    -0.07336320     1.40718731     0.00010990    -0.00016819     0.00134422
H         0.89692356     0.11493866    -0.68849106     0.00000437     0.00160870    -0.00055591
H         0.84320384    -0.12185532     1.95871620    -0.00104997    -0.00092032    -0.00016588
H        -0.89002780     0.11493152     1.84342881    -0.00052333     0.00208357     0.00037162
H        -0.95195928    -0.00467675    -0.61255305     0.00032939    -0.00110441    -0.00013279
     6
  Step:    18            Position(A)                                  Velocity(au)
C        -0.03768386     0.02130687    -0.11460470     0.00001104     0.00005885    -0.00155749
N        -0.04622231    -0.07529616     1.42199165     0.00015239    -0.00018390     0.00135324
H         0.89655098     0.13313995    -0.69361953    -0.00006339     0.00171952    -0.00039396
H         0.83039993    -0.13229026     1.95612873    -0.00121340    -0.00098976    -0.00025537
H        -0.89843983     0.13925268     1.84927524    -0.00095260     0.00235478     0.00066819
H        -0.95008356    -0.01742842    -0.61460731    -0.00001979    -0.00123014    -0.00026484
     6
  Step:    19            Position(A)                                  Velocity(au)
C        -0.03735916     0.02196270    -0.13174236     0.00004830     0.00006065    -0.00156621
N        -0.04437845    -0.07738643     1.43679196     0.00017111    -0.00019598     0.00134510
H         0.89553681     0.15255635    -0.69710961    -0.00010887     0.00183197    -0.00025971
H         0.81665839    -0.14350830     1.95312943    -0.00120414    -0.00106633    -0.00023251
H        -0.91086776     0.16644679     1.85804681    -0.00122633     0.00259690     0.00089271
H        -0.95239214    -0.03158845    -0.61834687    -0.00041400    -0.00136189    -0.00042950
     6
  Step:    20            Position(A)                                  Velocity(au)
C        -0.03662729     0.02263374    -0.14886851     0.00008310     0.00006151    -0.00155734
N        -0.04247891    -0.07958353     1.45141834     0.00016140    -0.00020270     0.00132252
H         0.89416919     0.17321784    -0.69930113    -0.00012526     0.00194814    -0.00015865
H         0.80405714    -0.15561830     1.95104213    -0.00099982    -0.00115528    -0.00008771
H        -0.92526806     0.19606490     1.86880487    -0.00130213     0.00278917     0.00102802
H        -0.95914057    -0.04722232    -0.62400339    -0.00080593    -0.00149812    -0.00060256
     6
  Step:    21            Position(A)                                  Velocity(au)
C        -0.03554117     0.02330829    -0.16581224     0.00011096     0.00006107    -0.00153441
N        -0.04084747    -0.08182092     1.46572473     0.00012360    -0.00020305     0.00128761
H         0.89279661     0.19517573    -0.70058032    -0.00010898     0.00206970    -0.00009348
H         0.79478547    -0.16878226     1.95121058    -0.00060955    -0.00125983     0.00016942
H        -0.93935440     0.22746517     1.88053668    -0.00117547     0.00291872     0.00107526
H        -0.97002347    -0.06436270    -0.63152893    -0.00114589    -0.00163455    -0.00076015
     6
  Step:    22            Position(A)                                  Velocity(au)
C        -0.03419972     0.02396973    -0.18243675     0.00012844     0.00005887    -0.00150020
N        -0.03977488    -0.08402573     1.47958727     0.00006307    -0.00019699     0.00124282
H         0.89178510     0.21849656    -0.70134618    -0.00006096     0.00219752    -0.00006366
H         0.79072213    -0.18317955     1.95474852    -0.00008322    -0.00137857     0.00050587
H        -0.95098381     0.25991741     1.89232823    -0.00087040     0.00298197     0.00104754
H        -0.98420918    -0.08298115    -0.64063309    -0.00139238    -0.00176492    -0.00088407
     6
  Step:    23            Position(A)                                  Velocity(au)
C        -0.03273129     0.02459625    -0.19863193     0.00013382     0.00005453    -0.00145686
N        -0.03946769    -0.08613055     1.49291389    -0.00001110    -0.00018551     0.00119152
H         0.89146307     0.24325061    -0.70197310     0.00001254     0.00233107    -0.00006526
H         0.79296492    -0.19894104     1.96227749     0.00049268    -0.00150345     0.00086900
H        -0.95839606     0.29270146     1.90345371    -0.00042621     0.00298307     0.00096304
H        -1.00048451    -0.10297373    -0.65086960    -0.00151947    -0.00188246    -0.00096461
     6
  Step:    24            Position(A)                                  Velocity(au)
C        -0.03127207     0.02516262    -0.21430838     0.00012735     0.00004788    -0.00140604
N        -0.04001762    -0.08808418     1.50565415    -0.00008835    -0.00017041     0.00113748
H         0.89205945     0.26949317    -0.70277386     0.00009979     0.00246793    -0.00009124
H         0.80150037    -0.21607039     1.97375960     0.00101567    -0.00162028     0.00119921
H        -0.96030789     0.32517773     1.91339667     0.00011360     0.00293127     0.00084016
H        -1.01745057    -0.12416358    -0.66173585    -0.00151883    -0.00198130    -0.00100047
     6
  Step:    25            Position(A)                                  Velocity(au)
C        -0.02994533     0.02564363    -0.22939182     0.00011086     0.00003909    -0.00134895
N        -0.04140043    -0.08985863     1.51779841    -0.00015923    -0.00015390     0.00108385
H         0.89364610     0.29724125    -0.70396916     0.00018473     0.00260348    -0.00013246
H         0.81518455    -0.23438767     1.98851250     0.00139624    -0.00171208     0.00144622
H        -0.95591095     0.35682853     1.92183389     0.00070763     0.00283876     0.00069532
H        -1.03371174    -0.14631837    -0.67275670    -0.00139690    -0.00205739    -0.00099643
     6
  Step:    26            Position(A)                                  Velocity(au)
C        -0.02884686     0.02601790    -0.24381933     0.00008720     0.00002869    -0.00128651
N        -0.04350101    -0.09145098     1.52936541    -0.00021713    -0.00013816     0.00103239
H         0.89610070     0.32644927    -0.70567167     0.00024936     0.00273108    -0.00017912
H         0.83204575    -0.25352538     2.00539843     0.00158000    -0.00176393     0.00158055
H        -0.94482713     0.38728112     1.92860820     0.00131880     0.00271966     0.00054270
H        -1.04801041    -0.16917300    -0.68353474    -0.00116985    -0.00210875    -0.00096060
     6
  Step:    27            Position(A)                                  Velocity(au)
C        -0.02803772     0.02627132    -0.25753659     0.00005954     0.00001742    -0.00121937
N        -0.04615063    -0.09288115     1.54038401    -0.00025872    -0.00012511     0.00098327
H         0.89910136     0.35698885    -0.70788765     0.00027677     0.00284291    -0.00022236
H         0.84975009    -0.27297710     2.02309003     0.00155384    -0.00176658     0.00159570
H        -0.92705965     0.41632622     1.93370646     0.00191384     0.00259001     0.00039489
H        -1.05930443    -0.19245125    -0.69377157    -0.00085862    -0.00213529    -0.00090201
     6
  Step:    28            Position(A)                                  Velocity(au)
C        -0.02754425     0.02639897    -0.27049540     0.00003086     0.00000614    -0.00114801
N        -0.04916110    -0.09418803     1.55087627    -0.00028326    -0.00011634     0.00093536
H         0.90215552     0.38864342    -0.71053617     0.00025386     0.00293111    -0.00025553
H         0.86603903    -0.29217266     2.04030753     0.00133768    -0.00171747     0.00150275
H        -0.90295831     0.44394250     1.93724721     0.00246242     0.00246837     0.00026367
H        -1.06679438    -0.21588653    -0.70326786    -0.00048534    -0.00213848    -0.00082928
     6
  Step:    29            Position(A)                                  Velocity(au)
C        -0.02736259     0.02640571    -0.28265155     0.00000362    -0.00000427    -0.00107270
N        -0.05234757    -0.09542632     1.56084688    -0.00029159    -0.00011322     0.00088690
H         0.90465502     0.42111250    -0.71347782     0.00017307     0.00298878    -0.00027470
H         0.87901445    -0.31054999     2.05596557     0.00097017    -0.00161967     0.00132212
H        -0.87318957     0.47032645     1.93947464     0.00293717     0.00237606     0.00016024
H        -1.06992214    -0.23923468    -0.71191368    -0.00007150    -0.00212090    -0.00075007
     6
  Step:    30            Position(A)                                  Velocity(au)
C        -0.02746511     0.02630552    -0.29396266    -0.00002032    -0.00001307    -0.00099349
N        -0.05554012    -0.09666494     1.57027894    -0.00028535    -0.00011698     0.00083595
H         0.90594185     0.45402864    -0.71654574     0.00003288     0.00301097    -0.00027866
H         0.88726339    -0.32760607     2.06923139     0.00049641    -0.00147995     0.00107694
H        -0.83870217     0.49592345     1.94075270     0.00331546     0.00233632     0.00009466
H        -1.06835862    -0.26228529    -0.71967715     0.00036262    -0.00208607    -0.00067109
     6
  Step:    31            Position(A)                                  Velocity(au)
C        -0.02780703     0.02611989    -0.30438612    -0.00003961    -0.00001963    -0.00091031
N        -0.05859006    -0.09798542     1.57913488    -0.00026679    -0.00012858     0.00078082
H         0.90537424     0.48698333    -0.71957395    -0.00016288     0.00299520    -0.00026839
H         0.88987446    -0.34292679     2.07952563    -0.00003912    -0.00130720     0.00078934
H        -0.80065755     0.52143785     1.94154548     0.00358345     0.00237112     0.00007407
H        -1.06198919    -0.28487152    -0.72659494     0.00079797    -0.00203843    -0.00059829
     6
  Step:    32            Position(A)                                  Velocity(au)
C        -0.02833167     0.02587615    -0.31387748    -0.00005334    -0.00002349    -0.00082292
N        -0.06137665    -0.09947790     1.58736090    -0.00023900    -0.00014837     0.00072033
H         0.90237857     0.51955446    -0.72241726    -0.00040638     0.00294136    -0.00024632
H         0.88640753    -0.35620346     2.08649974    -0.00059458    -0.00111169     0.00047955
H        -0.76030740     0.54779630     1.94237311     0.00374131     0.00249540     0.00010000
H        -1.05090152    -0.30687978    -0.73276581     0.00121639    -0.00198331    -0.00053723
     6
  Step:    33            Position(A)                                  Velocity(au)
C        -0.02897384     0.02560597    -0.32238917    -0.00006081    -0.00002432    -0.00073101
N        -0.06381857    -0.10123132     1.59489354    -0.00020626    -0.00017548     0.00065394
H         0.89648390     0.55133113    -0.72496262    -0.00068724     0.00285148    -0.00021565
H         0.87686695    -0.36724708     2.09001668    -0.00112941    -0.00090523     0.00016669
H        -0.71880919     0.57602948     1.94373313     0.00380730     0.00270915     0.00016558
H        -1.03537835    -0.32826019    -0.73834797     0.00160029    -0.00192707    -0.00049336
     6
  Step:    34            Position(A)                                  Velocity(au)
C        -0.02966204     0.02534418    -0.32986965    -0.00006153    -0.00002185    -0.00063418
N        -0.06588902    -0.10331688     1.60166719    -0.00017420    -0.00020733     0.00058175
H         0.88734379     0.58193594    -0.72713497    -0.00099371     0.00272938    -0.00017987
H         0.86169953    -0.37600712     2.09014630    -0.00160195    -0.00070168    -0.00012976
H        -0.67701540     0.60706410     1.94599551     0.00381686     0.00299092     0.00025441
H        -1.01589211    -0.34903821    -0.74355899     0.00193279    -0.00187710    -0.00047208
     6
  Step:    35            Position(A)                                  Velocity(au)
C        -0.03031996     0.02512804    -0.33626298    -0.00005514    -0.00001589    -0.00053202
N        -0.06762954    -0.10576714     1.60762037    -0.00014933    -0.00023955     0.00050423
H         0.87474452     0.61104160    -0.72889765    -0.00131357     0.00258027    -0.00014243
H         0.84182122    -0.38259757     2.08717790    -0.00196741    -0.00051742    -0.00038867
H        -0.63530813     0.64146154     1.94929882     0.00381487     0.00329694     0.00034250
H        -0.99309497    -0.36932528    -0.74867570     0.00219826    -0.00184163    -0.00047875
     6
  Step:    36            Position(A)                                  Velocity(au)
C        -0.03086823     0.02499658    -0.34150870    -0.00004152    -0.00000634    -0.00042418
N        -0.06915591    -0.10855739     1.61269819    -0.00013810    -0.00026651     0.00042191
H         0.85860686     0.63838433    -0.73025082    -0.00163455     0.00241047    -0.00010660
H         0.81865875    -0.38732656     2.08164336    -0.00217845    -0.00037109    -0.00058735
H        -0.59355780     0.67919100     1.95348844     0.00384292     0.00356882     0.00040356
H        -0.96780100    -0.38932741    -0.75403260     0.00238394    -0.00182920    -0.00051812
     6
  Step:    37            Position(A)                                  Velocity(au)
C        -0.03122829     0.02498938    -0.34554279    -0.00002104     0.00000675    -0.00031041
N        -0.07065075    -0.11159746     1.61685057    -0.00014564    -0.00028256     0.00033508
H         0.83898552     0.66377533    -0.73122966    -0.00194450     0.00222730    -0.00007551
H         0.79416341    -0.39071577     2.07432853    -0.00219052    -0.00028164    -0.00070407
H        -0.55123688     0.71953632     1.95812749     0.00392727     0.00374783     0.00041550
H        -0.94094173    -0.40934245    -0.76001067     0.00248234    -0.00184736    -0.00059341
     6
  Step:    38            Position(A)                                  Velocity(au)
C        -0.03132854     0.02514423    -0.34829957     0.00000524     0.00002301    -0.00019074
N        -0.07234205    -0.11473887     1.62002866    -0.00017453    -0.00028335     0.00024383
H         0.81606718     0.68711068    -0.73190272    -0.00223146     0.00203888    -0.00005217
H         0.77073704    -0.39348804     2.06624042    -0.00197302    -0.00026422    -0.00072392
H        -0.50764123     0.76118203     1.96257835     0.00407327     0.00378954     0.00036540
H        -0.91349509    -0.42974199    -0.76701449     0.00249417    -0.00190080    -0.00070479
     6
  Step:    39            Position(A)                                  Velocity(au)
C        -0.03111364     0.02549282    -0.34971563     0.00003536     0.00004162    -0.00006563
N        -0.07446903    -0.11779638     1.62218484    -0.00022387    -0.00026690     0.00014864
H         0.79016812     0.70837973    -0.73237096    -0.00248372     0.00185398    -0.00003949
H         0.75099988    -0.39649615     2.05849132    -0.00152505    -0.00032414    -0.00064708
H        -0.46212636     0.80243978     1.96612128     0.00426767     0.00367215     0.00025084
H        -0.88637706    -0.45092603    -0.77542939     0.00243066    -0.00198895    -0.00084789
     6
  Step:    40            Position(A)                                  Velocity(au)
C        -0.03055490     0.02605480    -0.34973527     0.00006645     0.00006116     0.00006392
N        -0.07723957    -0.12057789     1.62328055    -0.00028877    -0.00023396     0.00005102
H         0.76173099     0.72767012    -0.73276660    -0.00268991     0.00168156    -0.00004023
H         0.73737359    -0.40057929     2.05208425    -0.00088864    -0.00045142    -0.00049584
H        -0.41427770     0.84151733     1.96806586     0.00448579     0.00339647     0.00007806
H        -0.86031970    -0.47325413    -0.78556377     0.00231374    -0.00210419    -0.00101261
     6
  Step:    41            Position(A)                                  Velocity(au)
C        -0.02965988     0.02683079    -0.34831736     0.00009498     0.00007965     0.00019619
N        -0.08078636    -0.12291466     1.62330099    -0.00036087    -0.00018766    -0.00004621
H         0.73132115     0.74516710    -0.73325117    -0.00283921     0.00152988    -0.00005668
H         0.73155911    -0.40637189     2.04764390    -0.00014951    -0.00061965    -0.00031461
H        -0.36399114     0.87674408     1.96782907     0.00469864     0.00297985    -0.00014125
H        -0.83575951    -0.49695927    -0.79758212     0.00217303    -0.00223137    -0.00118313
     6
  Step:    42            Position(A)                                  Velocity(au)
C        -0.02847706     0.02779722    -0.34544317     0.00011727     0.00009481     0.00032872
N        -0.08513419    -0.12468327     1.62226956    -0.00042983    -0.00013246    -0.00013932
H         0.69961791     0.76113910    -0.73400657    -0.00292173     0.00140494    -0.00008950
H         0.73410275    -0.41413534     2.04520155     0.00058064    -0.00079239    -0.00015936
H        -0.31148601     0.90670735     1.96497569     0.00487701     0.00244815    -0.00039267
H        -0.81278048    -0.52206971    -0.81144710     0.00203974    -0.00234977    -0.00133942
     6
  Step:    43            Position(A)                                  Velocity(au)
C        -0.02709433     0.02890493    -0.34112608     0.00013001     0.00010440     0.00045783
N        -0.09018970    -0.12581241     1.62025307    -0.00048537    -0.00007257    -0.00022469
H         0.66740278     0.77590282    -0.73520920    -0.00292893     0.00130903    -0.00013536
H         0.74426165    -0.42370691     2.04415769     0.00119378    -0.00093682    -0.00007891
H        -0.25729726     0.93030210     1.95923875     0.00499116     0.00182918    -0.00065953
H        -0.79113619    -0.54836488    -0.82688459     0.00193970    -0.00243703    -0.00145933
     6
  Step:    44            Position(A)                                  Velocity(au)
C        -0.02563293     0.03008124    -0.33542728     0.00013059     0.00010637     0.00057827
N        -0.09575254    -0.12627081     1.61735399    -0.00051869    -0.00001042    -0.00029994
H         0.63554189     0.78977663    -0.73696777    -0.00285641     0.00124177    -0.00018317
H         0.76021902    -0.43463003     2.04347535     0.00160970    -0.00103995    -0.00009685
H        -0.20229487     0.94672411     1.95054721     0.00500969     0.00115007    -0.00092184
H        -0.77034575    -0.57538438    -0.84337274     0.00188881    -0.00247469    -0.00152080
     6