|===============================================================================
|
|  DFTB+ release 20.1
|
|  Copyright (C) 2006 - 2020  DFTB+ developers group
|
|===============================================================================
|
|  When publishing results obtained with DFTB+, please cite the following
|  reference:
|
|  * DFTB+, a software package for efficient approximate density functional
|    theory based atomistic simulations, J. Chem. Phys. 152, 124101 (2020).
|    [doi: 10.1063/1.5143190]
|
|  You should also cite additional publications crediting the parametrization
|  data you use. Please consult the documentation of the SK-files for the
|  references.
|
|===============================================================================

Reading input file 'dftb_in.hsd'
Parser version: 8

--------------------------------------------------------------------------------
Reading SK-files:
Done.


Processed input in HSD format written to 'dftb_pin.hsd'

Starting initialization...
--------------------------------------------------------------------------------
OpenMP threads:              1
Chosen random seed:          507937085
Mode:                        Static calculation
Self consistent charges:     Yes
SCC-tolerance:                 0.100000E-05
Max. scc iterations:                   1000
Shell resolved Hubbard:      No
Spin polarisation:           No
Nr. of up electrons:             6.000000
Nr. of down electrons:           6.000000
Periodic boundaries:         No
Electronic solver:           Relatively robust
Maximal SCC-cycles:                    1000
Initial charges:             Set automatically (system chrg:   0.100E+01)
Included shells:             C:  s, p
                             N:  s, p
                             H:  s
Spin coupling constants:     C   1(s)-1(s):  -0.455900E-01
                             C   1(s)-2(p):  -0.293000E-01
                             C   2(p)-1(s):  -0.293000E-01
                             C   2(p)-2(p):  -0.275500E-01
                             N   1(s)-1(s):  -0.468700E-01
                             N   1(s)-2(p):  -0.317000E-01
                             N   2(p)-1(s):  -0.317000E-01
                             N   2(p)-2(p):  -0.307200E-01
                             H   1(s)-1(s):  -0.792500E-01
Range separated hybrid:      Yes
  Screening parameter omega:   0.300000E+00
  Range separated algorithm:   MatrixBased
Extra options:
                             Mulliken analysis
                             Force calculation
Force type                   original
                             Eigenvector printing


REKS Calcuation:             Yes
SSR(2,2) Calcuation:         Yes
Energy Functional:           (PPS+OSS)/2
Number of Core Orbitals:                  5
Number of Active Orbitals:                2
Number of Basis:                         12
Number of States:                         2
State-Averaging Weight:          0.500000
                                 0.500000
State of Interest:                        1
Initial Guess:               Diagonalize H0 matrix
Newton-Raphson for FON opt:  Yes
NR max. Iterations:                      50
Level Shifting:              Yes
Shift Value:                     0.300000
W Scale Factor:              C  =    3.000000
                             N  =    3.000000
                             H  =    3.000000
Transition Dipole:           No
Gradient of Microstate:      No
CP-REKS Solver:              Preconditioned Conjugate-Gradient
CG max. Iterations:                     100
CG Tolerance:                  0.100000E-07
Memory for A and Hxc:        Direct Updating Without Saving
Non-Adiabatic Coupling:      Yes

--------------------------------------------------------------------------------

***  Geometry step: 0

  iSCC       reks energy        Diff energy         x_a       SCC error   
    1       -6.2592662308       0.0000000000     0.999423    1.18174081
    2       -6.2728078066      -0.0135415758     0.999770    0.10352655
    3       -6.2773529684      -0.0045451618     0.999876    0.04666034
    4       -6.2798052511      -0.0024522827     0.999921    0.02320375
    5       -6.2813128872      -0.0015076360     0.999943    0.01189772
    6       -6.2822774157      -0.0009645285     0.999955    0.00859708
    7       -6.2828947311      -0.0006173154     0.999961    0.00764145
    8       -6.2832842750      -0.0003895439     0.999965    0.00647660
    9       -6.2835261446      -0.0002418696     0.999968    0.00531541
   10       -6.2836743591      -0.0001482145     0.999969    0.00426450
   11       -6.2837643915      -0.0000900325     0.999970    0.00336626
   12       -6.2838188358      -0.0000544443     0.999971    0.00262656
   13       -6.2838517269      -0.0000328911     0.999971    0.00203271
   14       -6.2838716305      -0.0000199035     0.999972    0.00156434
   15       -6.2838837170      -0.0000120865     0.999972    0.00119953
   16       -6.2838910905      -0.0000073735     0.999972    0.00096246
   17       -6.2838956121      -0.0000045215     0.999972    0.00078758
   18       -6.2838983994      -0.0000027873     0.999972    0.00064288
   19       -6.2839001264      -0.0000017270     0.999972    0.00052358
   20       -6.2839012014      -0.0000010750     0.999972    0.00042691
   21       -6.2839018734      -0.0000006720     0.999972    0.00035125
   22       -6.2839022951      -0.0000004216     0.999972    0.00028782
   23       -6.2839025604      -0.0000002654     0.999972    0.00023504
   24       -6.2839027279      -0.0000001675     0.999972    0.00019139
   25       -6.2839028338      -0.0000001059     0.999972    0.00015546
   26       -6.2839029009      -0.0000000671     0.999972    0.00012601
   27       -6.2839029435      -0.0000000426     0.999972    0.00010195
   28       -6.2839029705      -0.0000000271     0.999972    0.00008236
   29       -6.2839029877      -0.0000000172     0.999972    0.00006645
   30       -6.2839029987      -0.0000000109     0.999972    0.00005354
   31       -6.2839030057      -0.0000000070     0.999972    0.00004310
   32       -6.2839030101      -0.0000000044     0.999972    0.00003466
   33       -6.2839030129      -0.0000000028     0.999972    0.00002786
   34       -6.2839030147      -0.0000000018     0.999972    0.00002237
   35       -6.2839030159      -0.0000000012     0.999972    0.00001796
   36       -6.2839030166      -0.0000000007     0.999972    0.00001440
   37       -6.2839030171      -0.0000000005     0.999972    0.00001155
   38       -6.2839030174      -0.0000000003     0.999972    0.00000926
   39       -6.2839030176      -0.0000000002     0.999972    0.00000742
   40       -6.2839030177      -0.0000000001     0.999972    0.00000594
   41       -6.2839030178      -0.0000000001     0.999972    0.00000476
   42       -6.2839030178      -0.0000000000     0.999972    0.00000381
   43       -6.2839030179      -0.0000000000     0.999972    0.00000305
   44       -6.2839030179      -0.0000000000     0.999972    0.00000244
   45       -6.2839030179      -0.0000000000     0.999972    0.00000195
   46       -6.2839030179      -0.0000000000     0.999972    0.00000156
   47       -6.2839030179      -0.0000000000     0.999972    0.00000125
   48       -6.2839030179      -0.0000000000     0.999972    0.00000100
  
--------------------------------------------------
 Final SA-REKS(2,2) energy:      -6.28390302
  
 State     Energy      FON(1)    FON(2)   Spin
  PPS   -6.41470894   1.999944  0.000056  0.00
  OSS   -6.15309710   1.000000  1.000000  0.00
 Trip   -6.23160487   1.000000  1.000000  1.00
--------------------------------------------------

 Lagrangian Wab:   0.00335777  0.00335763

--------------------------------------------------
 SSR: 2SI-2SA-REKS(2,2) Hamiltonian matrix
               PPS           OSS
   PPS    -6.41470894    0.00472339
   OSS     0.00472339   -6.15309710
--------------------------------------------------

----------------------------------------------------------------
 SSR: 2SI-2SA-REKS(2,2) states
                    E_n       C_{PPS}    C_{OSS}
 SSR state  1   -6.41479419  -0.999837   0.018046
 SSR state  2   -6.15301185  -0.018046  -0.999837
----------------------------------------------------------------

 unrelaxed SSR FONs for S0:  1.999618  0.000382

Total Energy:                       -6.4147941892 H         -174.5554 eV
Extrapolated to 0:                  -6.4147941892 H         -174.5554 eV

----------------------------------------------------------------------------------
 Solving CP-REKS equation for  1 state vector...
----------------------------------------------------------------------------------
  CG solver: Constructing Y initial guess
  CG solver: Iteration    1    eps =    0.000058023309
  CG solver: Iteration    2    eps =    0.000012959629
  CG solver: Iteration    3    eps =    0.000000426646
  CG solver: Iteration    4    eps =    0.000000126531
  CG solver: Iteration    5    eps =    0.000000006786
  Convergence reached in CG solver after    5 iterations
  CG solver: Calculating converged R, Z, Q2 matrix
----------------------------------------------------------------------------------

----------------------------------------------------------------------------------
 Solving CP-REKS equation for SI between  1 and  2 state vectors...
----------------------------------------------------------------------------------
  CG solver: Constructing Y initial guess
  CG solver: Iteration    1    eps =    0.000890777878
  CG solver: Iteration    2    eps =    0.000661679942
  CG solver: Iteration    3    eps =    0.000198922085
  CG solver: Iteration    4    eps =    0.000002306050
  CG solver: Iteration    5    eps =    0.000000309747
  CG solver: Iteration    6    eps =    0.000000005121
  Convergence reached in CG solver after    6 iterations
  CG solver: Calculating converged R, Z, Q2 matrix
----------------------------------------------------------------------------------

--------------------------------------------------
 Gradient Information
--------------------------------------------------
           1 st state (SSR)
    -0.00130147    -0.01119349     0.01742506
    -0.00019990    -0.00306520    -0.02105173
     0.01013263     0.00789949     0.00753500
     0.00856431    -0.00107741    -0.00484372
    -0.00764357     0.01273328     0.00292774
    -0.00955200    -0.00529667    -0.00199234

           2 st state (SSR)
     0.00110389    -0.00641170     0.12950756
    -0.00103540     0.00048564    -0.14894903
    -0.00707640    -0.00815745     0.02165320
    -0.00607120     0.00814010    -0.01240037
     0.00615213     0.00403208    -0.00555777
     0.00692698     0.00191134     0.01574641
--------------------------------------------------
 Coupling Information
--------------------------------------------------
 between  1 and  2 states
--------------------------------------------------
 g vector - difference gradient
    -0.00125760    -0.00235064    -0.05620367
     0.00041052    -0.00179846     0.06408604
     0.00890721     0.00798647    -0.00707449
     0.00762453    -0.00460897     0.00379149
    -0.00719752     0.00435324     0.00426657
    -0.00848715    -0.00358165    -0.00886594

 h vector - derivative coupling
    -0.00149929     0.00115801    -0.00348648
    -0.00020767    -0.00060596     0.00265064
     0.00822736    -0.00130799    -0.00029862
     0.00836365     0.00007733     0.00029640
    -0.00817425    -0.00000556     0.00058294
    -0.00670981     0.00068416     0.00025512

 G vector - GDV
    -0.00120268    -0.00239089    -0.05604125
     0.00041775    -0.00177542     0.06394865
     0.00860451     0.00802847    -0.00705910
     0.00731775    -0.00460876     0.00377833
    -0.00689785     0.00435060     0.00424275
    -0.00823949    -0.00360400    -0.00886937

 H vector - DCV - non-adiabatic coupling
    -0.00589687     0.00409665    -0.02105718
    -0.00073618    -0.00256114     0.01895295
     0.03263563    -0.00389229    -0.00211520
     0.03297910    -0.00034015     0.00165416
    -0.03219719     0.00057887     0.00281350
    -0.02678450     0.00211806    -0.00024823
--------------------------------------------------


--------------------------------------------------------------------------------
DFTB+ running times                          cpu [s]             wall clock [s]
--------------------------------------------------------------------------------
SCC                                    +     0.02  ( 67.8%)      0.02  ( 61.5%)
Post-SCC processing                    +     0.01  ( 27.7%)      0.01  ( 25.6%)
--------------------------------------------------------------------------------
Missing                                +     0.00  (  4.5%)      0.01  ( 12.8%)
Total                                  =     0.03  (100.0%)      0.04  (100.0%)
--------------------------------------------------------------------------------
