|===============================================================================
|
|  DFTB+ release 20.1
|
|  Copyright (C) 2006 - 2020  DFTB+ developers group
|
|===============================================================================
|
|  When publishing results obtained with DFTB+, please cite the following
|  reference:
|
|  * DFTB+, a software package for efficient approximate density functional
|    theory based atomistic simulations, J. Chem. Phys. 152, 124101 (2020).
|    [doi: 10.1063/1.5143190]
|
|  You should also cite additional publications crediting the parametrization
|  data you use. Please consult the documentation of the SK-files for the
|  references.
|
|===============================================================================

Reading input file 'dftb_in.hsd'
Parser version: 8

--------------------------------------------------------------------------------
Reading SK-files:
Done.


Processed input in HSD format written to 'dftb_pin.hsd'

Starting initialization...
--------------------------------------------------------------------------------
OpenMP threads:              1
Chosen random seed:          511923706
Mode:                        Static calculation
Self consistent charges:     Yes
SCC-tolerance:                 0.100000E-05
Max. scc iterations:                   1000
Shell resolved Hubbard:      No
Spin polarisation:           No
Nr. of up electrons:             6.000000
Nr. of down electrons:           6.000000
Periodic boundaries:         No
Electronic solver:           Relatively robust
Maximal SCC-cycles:                    1000
Initial charges:             Set automatically (system chrg:   0.100E+01)
Included shells:             C:  s, p
                             N:  s, p
                             H:  s
Spin coupling constants:     C   1(s)-1(s):  -0.455900E-01
                             C   1(s)-2(p):  -0.293000E-01
                             C   2(p)-1(s):  -0.293000E-01
                             C   2(p)-2(p):  -0.275500E-01
                             N   1(s)-1(s):  -0.468700E-01
                             N   1(s)-2(p):  -0.317000E-01
                             N   2(p)-1(s):  -0.317000E-01
                             N   2(p)-2(p):  -0.307200E-01
                             H   1(s)-1(s):  -0.792500E-01
Range separated hybrid:      Yes
  Screening parameter omega:   0.300000E+00
  Range separated algorithm:   MatrixBased
Extra options:
                             Mulliken analysis
                             Force calculation
Force type                   original
                             Eigenvector printing


REKS Calcuation:             Yes
SSR(2,2) Calcuation:         Yes
Energy Functional:           (PPS+OSS)/2
Number of Core Orbitals:                  5
Number of Active Orbitals:                2
Number of Basis:                         12
Number of States:                         2
State-Averaging Weight:          0.500000
                                 0.500000
State of Interest:                        1
Initial Guess:               Diagonalize H0 matrix
Newton-Raphson for FON opt:  Yes
NR max. Iterations:                      50
Level Shifting:              Yes
Shift Value:                     0.300000
W Scale Factor:              C  =    3.000000
                             N  =    3.000000
                             H  =    3.000000
Transition Dipole:           No
Gradient of Microstate:      No
CP-REKS Solver:              Preconditioned Conjugate-Gradient
CG max. Iterations:                     100
CG Tolerance:                  0.100000E-07
Memory for A and Hxc:        Direct Updating Without Saving
Non-Adiabatic Coupling:      Yes

--------------------------------------------------------------------------------

***  Geometry step: 0

  iSCC       reks energy        Diff energy         x_a       SCC error   
    1       -6.2437600202       0.0000000000     0.998783    1.18819497
    2       -6.2606937860      -0.0169337659     0.999590    0.12444189
    3       -6.2666067120      -0.0059129260     0.999795    0.07306642
    4       -6.2702806091      -0.0036738971     0.999873    0.04243400
    5       -6.2733988930      -0.0031182838     0.999912    0.02594516
    6       -6.2763790104      -0.0029801175     0.999934    0.02064711
    7       -6.2792329575      -0.0028539471     0.999949    0.02078492
    8       -6.2818175804      -0.0025846229     0.999959    0.01941979
    9       -6.2839743452      -0.0021567648     0.999966    0.01848900
   10       -6.2856219583      -0.0016476131     0.999970    0.01654183
   11       -6.2867821597      -0.0011602015     0.999973    0.01407728
   12       -6.2875462737      -0.0007641140     0.999974    0.01153896
   13       -6.2880249644      -0.0004786907     0.999974    0.00921987
   14       -6.2883146466      -0.0002896822     0.999974    0.00725274
   15       -6.2884860916      -0.0001714450     0.999974    0.00565791
   16       -6.2885862442      -0.0001001526     0.999974    0.00439822
   17       -6.2886443756      -0.0000581313     0.999974    0.00341693
   18       -6.2886780588      -0.0000336833     0.999973    0.00268362
   19       -6.2886976076      -0.0000195487     0.999973    0.00213243
   20       -6.2887089978      -0.0000113902     0.999973    0.00169003
   21       -6.2887156708      -0.0000066731     0.999973    0.00133792
   22       -6.2887196057      -0.0000039348     0.999972    0.00105888
   23       -6.2887219421      -0.0000023364     0.999972    0.00083822
   24       -6.2887233392      -0.0000013972     0.999972    0.00066382
   25       -6.2887241806      -0.0000008413     0.999972    0.00052598
   26       -6.2887246905      -0.0000005100     0.999972    0.00041698
   27       -6.2887250015      -0.0000003110     0.999972    0.00033073
   28       -6.2887251922      -0.0000001907     0.999972    0.00026244
   29       -6.2887253098      -0.0000001175     0.999972    0.00020833
   30       -6.2887253825      -0.0000000727     0.999972    0.00016544
   31       -6.2887254277      -0.0000000452     0.999972    0.00013141
   32       -6.2887254559      -0.0000000282     0.999972    0.00010441
   33       -6.2887254735      -0.0000000176     0.999972    0.00008298
   34       -6.2887254845      -0.0000000110     0.999972    0.00006595
   35       -6.2887254915      -0.0000000069     0.999972    0.00005243
   36       -6.2887254958      -0.0000000044     0.999972    0.00004169
   37       -6.2887254986      -0.0000000027     0.999972    0.00003315
   38       -6.2887255003      -0.0000000017     0.999972    0.00002636
   39       -6.2887255014      -0.0000000011     0.999972    0.00002097
   40       -6.2887255021      -0.0000000007     0.999972    0.00001668
   41       -6.2887255025      -0.0000000004     0.999972    0.00001327
   42       -6.2887255028      -0.0000000003     0.999972    0.00001055
   43       -6.2887255029      -0.0000000002     0.999972    0.00000840
   44       -6.2887255030      -0.0000000001     0.999972    0.00000668
   45       -6.2887255031      -0.0000000001     0.999972    0.00000532
   46       -6.2887255032      -0.0000000000     0.999972    0.00000423
   47       -6.2887255032      -0.0000000000     0.999972    0.00000337
   48       -6.2887255032      -0.0000000000     0.999972    0.00000268
   49       -6.2887255032      -0.0000000000     0.999972    0.00000213
   50       -6.2887255032      -0.0000000000     0.999972    0.00000170
   51       -6.2887255032      -0.0000000000     0.999972    0.00000135
   52       -6.2887255032      -0.0000000000     0.999972    0.00000107
   53       -6.2887255032      -0.0000000000     0.999972    0.00000085
  
--------------------------------------------------
 Final SA-REKS(2,2) energy:      -6.28872550
  
 State     Energy      FON(1)    FON(2)   Spin
  PPS   -6.41902684   1.999944  0.000056  0.00
  OSS   -6.15842417   1.000000  1.000000  0.00
 Trip   -6.23689945   1.000000  1.000000  1.00
--------------------------------------------------

 Lagrangian Wab:   0.00031957  0.00031956

--------------------------------------------------
 SSR: 2SI-2SA-REKS(2,2) Hamiltonian matrix
               PPS           OSS
   PPS    -6.41902684    0.00044954
   OSS     0.00044954   -6.15842417
--------------------------------------------------

----------------------------------------------------------------
 SSR: 2SI-2SA-REKS(2,2) states
                    E_n       C_{PPS}    C_{OSS}
 SSR state  1   -6.41902761  -0.999999   0.001725
 SSR state  2   -6.15842339  -0.001725  -0.999999
----------------------------------------------------------------

 unrelaxed SSR FONs for S0:  1.999941  0.000059

Total Energy:                       -6.4190276130 H         -174.6706 eV
Extrapolated to 0:                  -6.4190276130 H         -174.6706 eV

----------------------------------------------------------------------------------
 Solving CP-REKS equation for  1 state vector...
----------------------------------------------------------------------------------
  CG solver: Constructing Y initial guess
  CG solver: Iteration    1    eps =    0.000029175315
  CG solver: Iteration    2    eps =    0.000001376557
  CG solver: Iteration    3    eps =    0.000000325028
  CG solver: Iteration    4    eps =    0.000000002786
  Convergence reached in CG solver after    4 iterations
  CG solver: Calculating converged R, Z, Q2 matrix
----------------------------------------------------------------------------------

----------------------------------------------------------------------------------
 Solving CP-REKS equation for SI between  1 and  2 state vectors...
----------------------------------------------------------------------------------
  CG solver: Constructing Y initial guess
  CG solver: Iteration    1    eps =    0.000299575892
  CG solver: Iteration    2    eps =    0.000105685792
  CG solver: Iteration    3    eps =    0.000014707185
  CG solver: Iteration    4    eps =    0.000000965151
  CG solver: Iteration    5    eps =    0.000000008468
  Convergence reached in CG solver after    5 iterations
  CG solver: Calculating converged R, Z, Q2 matrix
----------------------------------------------------------------------------------

--------------------------------------------------
 Gradient Information
--------------------------------------------------
           1 st state (SSR)
    -0.00036439     0.00272879    -0.01604909
    -0.00193188    -0.00165126     0.01397019
    -0.00083785    -0.00366627    -0.00290042
    -0.00022596    -0.00021066     0.00261329
     0.00162380    -0.00009146     0.00362328
     0.00173628     0.00289087    -0.00125725

           2 st state (SSR)
    -0.00114872    -0.00499477     0.07972980
     0.00221346     0.00492871    -0.10326734
    -0.00206400    -0.01829243     0.01638909
     0.00152224     0.00768977    -0.00601733
    -0.00200092    -0.00615233    -0.00607147
     0.00147794     0.01682105     0.01923725
--------------------------------------------------
 Coupling Information
--------------------------------------------------
 between  1 and  2 states
--------------------------------------------------
 g vector - difference gradient
     0.00039147     0.00386333    -0.04789035
    -0.00207261    -0.00328895     0.05861917
     0.00059544     0.00731532    -0.00964470
    -0.00089369    -0.00394763     0.00431580
     0.00183182     0.00302660     0.00484742
     0.00014757    -0.00696867    -0.01024734

 h vector - derivative coupling
    -0.00020244     0.00044191    -0.00018006
     0.00001949     0.00030541     0.00001762
    -0.00511181     0.00063718     0.00003253
    -0.00567540     0.00075723     0.00013504
     0.00563887    -0.00111652     0.00000356
     0.00533128    -0.00102521    -0.00000870

 G vector - GDV
     0.00039216     0.00386178    -0.04788944
    -0.00207267    -0.00328998     0.05861876
     0.00061307     0.00731308    -0.00964476
    -0.00087410    -0.00395022     0.00431531
     0.00181236     0.00303043     0.00484738
     0.00012917    -0.00696509    -0.01024725

 H vector - DCV - non-adiabatic coupling
    -0.00077161     0.00174684    -0.00132492
     0.00004737     0.00112839     0.00084364
    -0.01960722     0.00254183    -0.00000284
    -0.02178956     0.00285338     0.00057532
     0.02166181    -0.00424424     0.00007784
     0.02045922    -0.00402619    -0.00016905
--------------------------------------------------


--------------------------------------------------------------------------------
DFTB+ running times                          cpu [s]             wall clock [s]
--------------------------------------------------------------------------------
SCC                                    +     0.02  ( 69.8%)      0.02  ( 63.2%)
Post-SCC processing                    +     0.01  ( 26.6%)      0.01  ( 26.3%)
--------------------------------------------------------------------------------
Missing                                +     0.00  (  3.6%)      0.00  ( 10.5%)
Total                                  =     0.03  (100.0%)      0.04  (100.0%)
--------------------------------------------------------------------------------
