 Fermi distribution function

Calculation with static geometry


********************************************************************************
 iSCC Total electronic   Diff electronic      SCC error    
   13   -0.53593257E+01   -0.38369308E-12    0.59408944E-08
********************************************************************************

 Total charge:     1.00000000

 Atomic gross charges (e)
 Atom           Charge
    1       0.34144931
    2      -0.24438289
    3       0.15892724
    4       0.30122598
    5       0.28820959
    6       0.15457077

Nr. of electrons (up):     12.00000000
Atom populations (up)
 Atom       Population
    1       3.65855069
    2       5.24438289
    3       0.84107276
    4       0.69877402
    5       0.71179041
    6       0.84542923

l-shell populations (up)
 Atom Sh.   l       Population
    1   1   0       1.32633977
    1   2   1       2.33221091
    2   1   0       1.42747007
    2   2   1       3.81691282
    3   1   0       0.84107276
    4   1   0       0.69877402
    5   1   0       0.71179041
    6   1   0       0.84542923

Orbital populations (up)
 Atom Sh.   l   m       Population  Label
    1   1   0   0       1.32633977  s
    1   2   1  -1       0.51000293  p_y
    1   2   1   0       0.88362815  p_z
    1   2   1   1       0.93857983  p_x
    2   1   0   0       1.42747007  s
    2   2   1  -1       1.34704153  p_y
    2   2   1   0       1.05916393  p_z
    2   2   1   1       1.41070736  p_x
    3   1   0   0       0.84107276  s
    4   1   0   0       0.69877402  s
    5   1   0   0       0.71179041  s
    6   1   0   0       0.84542923  s

Fermi level:                        -0.4860208546 H          -13.2253 eV
Band energy:                        -8.7568250713 H         -238.2853 eV
TS:                                  0.0000000000 H            0.0000 eV
Band free energy (E-TS):            -8.7568250713 H         -238.2853 eV
Extrapolated E(0K):                 -8.7568250713 H         -238.2853 eV
Input / Output electrons (q):     12.0000000000     12.0000000000

Energy H0:                          -5.4911680419 H         -149.4223 eV
Energy SCC:                          0.1318422961 H            3.5876 eV
Total Electronic energy:            -5.3593257458 H         -145.8347 eV
Repulsive energy:                    0.1709115542 H            4.6507 eV
Total energy:                       -5.1884141916 H         -141.1839 eV
Extrapolated to 0:                  -5.1884141916 H         -141.1839 eV
Total Mermin free energy:           -5.1884141916 H         -141.1839 eV
Force related energy:               -5.1884141916 H         -141.1839 eV

SCC converged

Excitation Energy:                   0.0855660446 H            2.3284 eV

Total Forces
    1     -0.000541171783      0.000294807685      0.065661004113
    2      0.008734938136     -0.006155488962     -0.062174697260
    3     -0.009455037313      0.015607136943      0.004071283253
    4     -0.022238107227     -0.005696383119     -0.006094914478
    5      0.014937812627      0.013354452473     -0.002428398348
    6      0.008561565561     -0.017404525019      0.000965722720

Maximal derivative component:        0.656610E-01 au


