|===============================================================================
|
|  DFTB+ release 20.1
|
|  Copyright (C) 2006 - 2020  DFTB+ developers group
|
|===============================================================================
|
|  When publishing results obtained with DFTB+, please cite the following
|  reference:
|
|  * DFTB+, a software package for efficient approximate density functional
|    theory based atomistic simulations, J. Chem. Phys. 152, 124101 (2020).
|    [doi: 10.1063/1.5143190]
|
|  You should also cite additional publications crediting the parametrization
|  data you use. Please consult the documentation of the SK-files for the
|  references.
|
|===============================================================================

Reading input file 'dftb_in.hsd'
Parser version: 8

--------------------------------------------------------------------------------
Reading SK-files:
Done.


Processed input in HSD format written to 'dftb_pin.hsd'

Starting initialization...
--------------------------------------------------------------------------------
WARNING!
-> Excited state forces are not implemented yet for fractional occupations, kT=  0.3158E-02K
OpenMP threads:              1
Chosen random seed:          506120012
Mode:                        Static calculation
Self consistent charges:     Yes
SCC-tolerance:                 0.100000E-05
Max. scc iterations:                    100
Shell resolved Hubbard:      No
Spin polarisation:           No
Nr. of up electrons:             6.000000
Nr. of down electrons:           6.000000
Periodic boundaries:         No
Electronic solver:           Relatively robust
Mixer:                       Broyden mixer
Mixing parameter:                  0.200000
Maximal SCC-cycles:                     100
Nr. of chrg. vec. in memory:              0
Electronic temperature:        0.100000E-07 H      0.272114E-06 eV
Initial charges:             Set automatically (system chrg:   0.100E+01)
Included shells:             C:  s, p
                             N:  s, p
                             H:  s
Extra options:
                             Mulliken analysis
                             Force calculation
Force type                   original
                             Eigenvector printing

--------------------------------------------------------------------------------

***  Geometry step: 0

 iSCC Total electronic   Diff electronic      SCC error    
    1   -0.54139146E+01    0.00000000E+00    0.64063847E+00
    2   -0.54176473E+01   -0.37326866E-02    0.43660997E+00
    3   -0.54201759E+01   -0.25285864E-02    0.69414483E-01
    4   -0.54204501E+01   -0.27423283E-03    0.17558839E-01
    5   -0.54204521E+01   -0.19561546E-05    0.49491210E-02
    6   -0.54204542E+01   -0.21677761E-05    0.32140648E-03
    7   -0.54204542E+01   -0.18789086E-08    0.54151934E-04
    8   -0.54204542E+01   -0.11613821E-09    0.56732904E-05
    9   -0.54204542E+01   -0.12434498E-11    0.14969247E-05
   10   -0.54204542E+01   -0.71942452E-13    0.45365378E-07
>> Charges saved for restart in charges.bin

Total Energy:                       -5.0706293255 H         -137.9788 eV
Extrapolated to 0:                  -5.2405665760 H         -142.6031 eV
Total Mermin free energy:           -5.0706293255 H         -137.9788 eV
Force related energy:               -5.2405665760 H         -142.6031 eV

--------------------------------------------------------------------------------
DFTB+ running times                          cpu [s]             wall clock [s]
--------------------------------------------------------------------------------
SCC                                    +     0.01  ( 46.2%)      0.03  ( 60.4%)
Post-SCC processing                    +     0.01  ( 48.6%)      0.01  ( 31.2%)
--------------------------------------------------------------------------------
Missing                                +     0.00  (  5.3%)      0.00  (  8.3%)
Total                                  =     0.02  (100.0%)      0.05  (100.0%)
--------------------------------------------------------------------------------
