    14
  Step:     0            Position(A)                                  Velocity(au)
C        -6.03329523    -0.71836370    -0.10343543    -0.00004957     0.00030807     0.00000221
C        -4.67275766    -0.76103090     0.09556529    -0.00008847     0.00001914     0.00002257
H        -6.51449677     0.13206326    -0.61839117    -0.00016588    -0.00017910    -0.00032565
H        -6.59442999    -1.61728651     0.00601134     0.00060403    -0.00030109     0.00030306
H        -4.21192206    -1.69738317     0.54196393     0.00012153    -0.00027532    -0.00017462
C        -3.88805857     0.41369354    -0.07395285     0.00002629    -0.00027861    -0.00005573
C        -2.53990851     0.48795438     0.21105932     0.00006270     0.00006428     0.00001804
H        -4.41381885     1.35875433    -0.37903099     0.00033884    -0.00010058     0.00037199
H        -1.90921308    -0.33525782     0.57664700     0.00028434    -0.00151806     0.00005124
C        -1.83200405     1.70201886     0.08511734    -0.00000757    -0.00025617    -0.00010111
H        -2.32833024     2.68067985     0.00343245     0.00032744    -0.00016956     0.00031354
N        -0.57233205     1.81137283     0.14470016    -0.00006842     0.00025048     0.00012484
H         0.00861965     2.68290189     0.10069234    -0.00033436     0.00032522    -0.00079981
H        -0.05622285     0.86804426     0.21739571     0.00044951     0.00044532    -0.00011598
    14
  Step:     1            Position(A)                                  Velocity(au)
C        -6.03393434    -0.71496695    -0.10354421    -0.00006779     0.00031072    -0.00002150
C        -4.67355098    -0.76081293     0.09592294    -0.00005584     0.00002079     0.00004261
H        -6.51610041     0.12976708    -0.62137972    -0.00013049    -0.00023397    -0.00022391
H        -6.58874627    -1.62123611     0.00973363     0.00043778    -0.00040709     0.00037488
H        -4.21101542    -1.69913095     0.53916989     0.00004070    -0.00004179    -0.00033612
C        -3.88830726     0.41058788    -0.07463829    -0.00007138    -0.00028902    -0.00006926
C        -2.53867153     0.48876740     0.21135114     0.00016487     0.00007975     0.00003648
H        -4.40959615     1.35661430    -0.37473429     0.00042650    -0.00028518     0.00041009
H        -1.90682802    -0.35215276     0.57686775     0.00013123    -0.00153036    -0.00002505
C        -1.83277531     1.69932882     0.08399081    -0.00013087    -0.00023509    -0.00010459
H        -2.32535397     2.67822512     0.00652111     0.00020933    -0.00027509     0.00024843
N        -0.57229152     1.81395757     0.14611915     0.00007409     0.00022197     0.00013445
H         0.00369526     2.68510760     0.09200564    -0.00055997     0.00008716    -0.00078713
H        -0.05194996     0.87570530     0.21596575     0.00033395     0.00094664    -0.00014434
    14
  Step:     2            Position(A)                                  Velocity(au)
C        -6.03477824    -0.71156616    -0.10390576    -0.00008701     0.00030805    -0.00004368
C        -4.67397935    -0.76057604     0.09649756    -0.00002229     0.00002322     0.00006186
H        -6.51735150     0.12694467    -0.62328961    -0.00010345    -0.00027202    -0.00013063
H        -6.58485263    -1.62619234     0.01421247     0.00028097    -0.00047898     0.00044013
H        -4.21103159    -1.69829744     0.53461073    -0.00004333     0.00018923    -0.00049340
C        -3.88962024     0.40737066    -0.07546808    -0.00016732    -0.00029954    -0.00008177
C        -2.53630161     0.48969913     0.21185739     0.00026838     0.00008634     0.00005679
H        -4.40448829     1.35251552    -0.37005945     0.00049664    -0.00045219     0.00043891
H        -1.90634225    -0.36873742     0.57609897    -0.00005578    -0.00146759    -0.00012635
C        -1.83486712     1.69687581     0.08282920    -0.00024612    -0.00021300    -0.00010733
H        -2.32375065     2.67466165     0.00886735     0.00007605    -0.00036895     0.00017750
N        -0.57071114     1.81622878     0.14764157     0.00020938     0.00019357     0.00014361
H        -0.00363075     2.68480867     0.08347227    -0.00076342    -0.00011868    -0.00077300
H        -0.04891703     0.88875379     0.21423793     0.00023363     0.00141060    -0.00016902
    14
  Step:     3            Position(A)                                  Velocity(au)
C        -6.03583789    -0.70822769    -0.10449970    -0.00010718     0.00029883    -0.00006372
C        -4.67403853    -0.76030504     0.09727624     0.00001113     0.00002760     0.00007957
H        -6.51836359     0.12381604    -0.62423748    -0.00008846    -0.00028731    -0.00004988
H        -6.58259960    -1.63171471     0.01936242     0.00014055    -0.00050685     0.00049659
H        -4.21196324    -1.69499118     0.52837580    -0.00012276     0.00040280    -0.00063867
C        -3.89196778     0.40403498    -0.07642723    -0.00025950    -0.00031112    -0.00009258
C        -2.53280017     0.49065618     0.21259363     0.00037023     0.00008477     0.00007806
H        -4.39873125     1.34672170    -0.36513225     0.00054155    -0.00058894     0.00045421
H        -1.90804832    -0.38425916     0.57410368    -0.00026222    -0.00134307    -0.00024584
C        -1.83815956     1.69466905     0.08164281    -0.00034799    -0.00019020    -0.00010895
H        -2.32369023     2.67015357     0.01040418    -0.00007266    -0.00044504     0.00010024
N        -0.56771100     1.81819230     0.14926089     0.00033034     0.00016628     0.00015206
H        -0.01300598     2.68251118     0.07509480    -0.00092570    -0.00026520    -0.00076025
H        -0.04683883     0.90656482     0.21226821     0.00017098     0.00179686    -0.00018723
    14
  Step:     4            Position(A)                                  Velocity(au)
C        -6.03712304    -0.70502872    -0.10529973    -0.00012811     0.00028235    -0.00008116
C        -4.67373592    -0.75997214     0.09823834     0.00004325     0.00003499     0.00009510
H        -6.51928680     0.12065913    -0.62438089    -0.00008831    -0.00027549     0.00001514
H        -6.58177777    -1.63728067     0.02507626     0.00002050    -0.00048586     0.00054253
H        -4.21371712    -1.68948537     0.52063852    -0.00018971     0.00058379    -0.00076449
C        -3.89529736     0.40056434    -0.07749352    -0.00034563    -0.00032444    -0.00010106
C        -2.52820211     0.49155367     0.21356512     0.00046721     0.00007580     0.00009933
H        -4.39264075     1.33963122    -0.36012275     0.00055458    -0.00068381     0.00045222
H        -1.91207876    -0.39811956     0.57072082    -0.00047367    -0.00117125    -0.00037661
C        -1.84248005     1.69271478     0.08044577    -0.00043237    -0.00016690    -0.00010914
H        -2.32534016     2.66492553     0.01106031    -0.00023599    -0.00049868     0.00001652
N        -0.56348440     1.81986654     0.15096827     0.00043095     0.00014148     0.00015966
H        -0.02388222     2.67900695     0.06684042    -0.00103096    -0.00032853    -0.00075239
H        -0.04517649     0.92806355     0.21014191     0.00016968     0.00206408    -0.00019646
    14
  Step:     5            Position(A)                                  Velocity(au)
C        -6.03864064    -0.70205078    -0.10627514    -0.00014945     0.00025851    -0.00009566
C        -4.67309243    -0.75953951     0.09935668     0.00007267     0.00004608     0.00010790
H        -6.52029558     0.11778926    -0.62390631    -0.00010448    -0.00023433     0.00006253
H        -6.58215104    -1.64234386     0.03123126    -0.00007804    -0.00041620     0.00057688
H        -4.21611348    -1.68221968     0.51165116    -0.00023643     0.00071725    -0.00086402
C        -3.89952911     0.39693717    -0.07863819    -0.00042294    -0.00033964    -0.00010667
C        -2.52257914     0.49231442     0.21476655     0.00055573     0.00006002     0.00011961
H        -4.38659882     1.33176199    -0.35523909     0.00053063    -0.00072724     0.00042999
H        -1.91841070    -0.40988251     0.56586456    -0.00067635    -0.00096718    -0.00051182
C        -1.84761850     1.69101788     0.07925505    -0.00049655    -0.00014307    -0.00010773
H        -2.32885298     2.65924400     0.01076563    -0.00041198    -0.00052715    -0.00007324
N        -0.55828324     1.82128741     0.15275366     0.00050677     0.00012092     0.00016632
H        -0.03556014     2.67532396     0.05863489    -0.00106877    -0.00029152    -0.00075317
H        -0.04312673     0.95172061     0.20797018     0.00025279     0.00217345    -0.00019474
    14
  Step:     6            Position(A)                                  Velocity(au)
C        -6.04039262    -0.69937333    -0.10739259    -0.00017064     0.00022778    -0.00010710
C        -4.67214622    -0.75896408     0.10059883     0.00009765     0.00006110     0.00011756
H        -6.52157250     0.11553271    -0.62301282    -0.00013685    -0.00016424     0.00009205
H        -6.58348496    -1.64638591     0.03769672    -0.00015626    -0.00030239     0.00059930
H        -4.21888941    -1.67379418     0.50173651    -0.00025573     0.00078931    -0.00093140
C        -3.90455005     0.39313400    -0.07982706    -0.00048835    -0.00035617    -0.00010900
C        -2.51604441     0.49286670     0.21618179     0.00063199     0.00003790     0.00013793
H        -4.38103217     1.32372154    -0.35071587     0.00046705    -0.00071320     0.00038594
H        -1.92687517    -0.41927837     0.55952374    -0.00085736    -0.00074633    -0.00064459
C        -1.85334310     1.68958483     0.07808897    -0.00053919    -0.00011845    -0.00010465
H        -2.33435310     2.65339316     0.00945807    -0.00059746    -0.00053008    -0.00016800
N        -0.55239788     1.82251200     0.15460679     0.00055542     0.00010652     0.00017206
H        -0.04726353     2.67262945     0.05036340    -0.00103670    -0.00014821    -0.00076576
H        -0.03964629     0.97561198     0.20588162     0.00043810     0.00209684    -0.00018117
    14
  Step:     7            Position(A)                                  Velocity(au)
C        -6.04237367    -0.69706763    -0.10861808    -0.00019099     0.00019116    -0.00011550
C        -4.67095624    -0.75820291     0.10192854     0.00011631     0.00007979     0.00012382
H        -6.52328947     0.11419611    -0.62189262    -0.00018351    -0.00006856     0.00010528
H        -6.58556945    -1.64895916     0.04434205    -0.00021711    -0.00015228     0.00061015
H        -4.22170805    -1.66495203     0.49127497    -0.00024185     0.00078884    -0.00096242
C        -3.91021270     0.38914532    -0.08102269    -0.00053905    -0.00037282    -0.00010789
C        -2.50875318     0.49314349     0.21778411     0.00069246     0.00000997     0.00015339
H        -4.37638128     1.31615940    -0.34679593     0.00036428    -0.00064072     0.00032034
H        -1.93716712    -0.42620996     0.55176291    -0.00100476    -0.00052487    -0.00076802
C        -1.85941427     1.68842648     0.07696562    -0.00056015    -0.00009261    -0.00009998
H        -2.34192352     2.64764745     0.00709023    -0.00078801    -0.00050973    -0.00026625
N        -0.54613234     1.82361768     0.15651790     0.00057702     0.00009971     0.00017696
H        -0.05823983     2.67208148     0.04188248    -0.00094201     0.00009204    -0.00079164
H        -0.03354239     0.99759293     0.20400682     0.00073109     0.00182844    -0.00015656
    14
  Step:     8            Position(A)                                  Velocity(au)
C        -6.04457099    -0.69519124    -0.10991942    -0.00020993     0.00015011    -0.00012116
C        -4.66960182    -0.75721853     0.10330766     0.00012701     0.00010141     0.00012663
H        -6.52558713     0.11403276    -0.62070968    -0.00024071     0.00004640     0.00010572
H        -6.58823472    -1.64971732     0.05104497    -0.00026473     0.00002398     0.00061053
H        -4.22418026    -1.65653671     0.48068169    -0.00019161     0.00070988    -0.00095540
C        -3.91634275     0.38497778    -0.08218743    -0.00057320    -0.00038791    -0.00010350
C        -2.50089543     0.49308474     0.21953757     0.00073457    -0.00002289     0.00016523
H        -4.37306277     1.30970448    -0.34370788     0.00022652    -0.00051529     0.00023563
H        -1.94885619    -0.43076081     0.54272183    -0.00110762    -0.00031977    -0.00087540
C        -1.86559737     1.68755890     0.07590177    -0.00056039    -0.00006511    -0.00009387
H        -2.35159235     2.64224182     0.00363334    -0.00097808    -0.00047098    -0.00036621
N        -0.53977451     1.82469334     0.15847807     0.00057448     0.00010082     0.00018106
H        -0.06787178     2.67464303     0.03304478    -0.00080149     0.00040294    -0.00082960
H        -0.02365225     1.01561269     0.20245648     0.00111743     0.00139563    -0.00012379
    14
  Step:     9            Position(A)                                  Velocity(au)
C        -6.04696629    -0.69378363    -0.11126863    -0.00022707     0.00010642    -0.00012455
C        -4.66817772    -0.75598429     0.10469883     0.00012869     0.00012466     0.00012623
H        -6.52855547     0.11521114    -0.61957979    -0.00030316     0.00017182     0.00009844
H        -6.59136096    -1.64843446     0.05769849    -0.00030392     0.00021495     0.00060207
H        -4.22589996    -1.64942194     0.47037387    -0.00010573     0.00055415    -0.00091205
C        -3.92275258     0.38065909    -0.08328690    -0.00059023    -0.00039932    -0.00009626
C        -2.49268316     0.49264278     0.22139888     0.00075690    -0.00005927     0.00017287
H        -4.37142578     1.30488640    -0.34164105     0.00006177    -0.00034952     0.00013642
H        -1.96139844    -0.43320562     0.53261181    -0.00115634    -0.00014873    -0.00096056
C        -1.87167384     1.68700216     0.07491214    -0.00054178    -0.00003569    -0.00008651
H        -2.36332079     2.63734380    -0.00092123    -0.00116113    -0.00042098    -0.00046600
N        -0.53356452     1.82582331     0.16047893     0.00055337     0.00010860     0.00018438
H        -0.07577389     2.68089664     0.02373345    -0.00063863     0.00074385    -0.00087525
H        -0.00909645     1.02812493     0.20129874     0.00155940     0.00086172    -0.00008742
    14
  Step:    10            Position(A)                                  Velocity(au)
C        -6.04953861    -0.69286308    -0.11264410    -0.00024227     0.00006208    -0.00012631
C        -4.66678649    -0.75449134     0.10606911     0.00012101     0.00014753     0.00012319
H        -6.53221939     0.11779160    -0.61855602    -0.00036463     0.00029734     0.00008947
H        -6.59488352    -1.64501483     0.06421646    -0.00033982     0.00040858     0.00058689
H        -4.22649324    -1.64441358     0.46072877     0.00001027     0.00033305    -0.00083807
C        -3.92925518     0.37624193    -0.08429333    -0.00059067    -0.00040466    -0.00008689
C        -2.48433681     0.49178812     0.22331952     0.00075922    -0.00009731     0.00017593
H        -4.37171141     1.30205797    -0.34072335    -0.00011880    -0.00016220     0.00002901
H        -1.97415333    -0.43401463     0.52170766    -0.00114319    -0.00002926    -0.00101829
C        -1.87744985     1.68677817     0.07400916    -0.00050683    -0.00000429    -0.00007813
H        -2.37699431     2.63303202    -0.00656131    -0.00133006    -0.00036834    -0.00056370
N        -0.52766841     1.82706913     0.16251171     0.00052104     0.00012046     0.00018682
H        -0.08184310     2.69091617     0.01389692    -0.00047880     0.00106695    -0.00092155
H         0.01046259     1.03446444     0.20054400     0.00200043     0.00031510    -0.00005272
    14
  Step:    11            Position(A)                                  Velocity(au)
C        -6.05226650    -0.69242544    -0.11403182    -0.00025554     0.00001913    -0.00012714
C        -4.66553048    -0.75275681     0.10739385     0.00010430     0.00016735     0.00011842
H        -6.53653237     0.12171601    -0.61762238    -0.00041869     0.00041234     0.00008492
H        -6.59879526    -1.63949609     0.07053780    -0.00037771     0.00059276     0.00056742
H        -4.22567530    -1.64213577     0.45203940     0.00014596     0.00006777    -0.00074274
C        -3.93567457     0.37180631    -0.08518784    -0.00057581    -0.00040148    -0.00007625
C        -2.47607383     0.49051396     0.22524767     0.00074223    -0.00013486     0.00017419
H        -4.37402467     1.30133792    -0.34100642    -0.00030235     0.00002431    -0.00007941
H        -1.98640793    -0.43384582     0.51033481    -0.00106324     0.00002299    -0.00104486
C        -1.88276169     1.68690823     0.07320286    -0.00045837     0.00002889    -0.00006894
H        -2.39241838     2.62928559    -0.01325322    -0.00147763    -0.00032204    -0.00065731
N        -0.52216579     1.82845850     0.16456591     0.00048506     0.00013339     0.00018815
H        -0.08624862     2.70423810     0.00357271    -0.00034397     0.00132676    -0.00096013
H         0.03466676     1.03501826     0.20014538     0.00237817    -0.00015362    -0.00002420
    14
  Step:    12            Position(A)                                  Velocity(au)
C        -6.05512911    -0.69244456    -0.11542561    -0.00026692    -0.00002053    -0.00012774
C        -4.66450470    -0.75083034     0.10865966     0.00007948     0.00018103     0.00011298
H        -6.54137905     0.12681241    -0.61669827    -0.00045961     0.00050731     0.00009009
H        -6.60314666    -1.63204697     0.07662997    -0.00042276     0.00075590     0.00054638
H        -4.22330010    -1.64293089     0.44448001     0.00028725    -0.00021311    -0.00063759
C        -3.94185219     0.36745870    -0.08596147    -0.00054742    -0.00038760    -0.00006522
C        -2.46809913     0.48883781     0.22713037     0.00070746    -0.00016981     0.00016768
H        -4.37832593     1.30258978    -0.34246069    -0.00047618     0.00018766    -0.00018175
H        -1.99741381    -0.43351157     0.49884930    -0.00091557    -0.00000287    -0.00103883
C        -1.88747768     1.68741022     0.07250095    -0.00039933     0.00006342    -0.00005914
H        -2.40932028     2.62598669    -0.02094126    -0.00159705    -0.00029024    -0.00074484
N        -0.51705669     1.82998730     0.16662791     0.00045170     0.00014508     0.00018808
H        -0.08936815     2.71994155    -0.00710769    -0.00024886     0.00148885    -0.00098310
H         0.06248969     1.03110360     0.20001464     0.00264064    -0.00047560    -0.00000452
    14
  Step:    13            Position(A)                                  Velocity(au)
C        -6.05810599    -0.69287457    -0.11682633    -0.00027642    -0.00005527    -0.00012867
C        -4.66379163    -0.74879649     0.10986549     0.00004782     0.00018554     0.00010796
H        -6.54658717     0.13281435    -0.61565139    -0.00048301     0.00057496     0.00010883
H        -6.60804393    -1.62295937     0.08249097    -0.00047982     0.00088743     0.00052657
H        -4.21939111    -1.64679804     0.43809092     0.00041863    -0.00047824    -0.00053443
C        -3.94765038     0.36332689    -0.08661464    -0.00050742    -0.00036145    -0.00005458
C        -2.46059680     0.48679903     0.22891610     0.00065713    -0.00020048     0.00015667
H        -4.38444202     1.30544340    -0.34498256    -0.00062933     0.00030915    -0.00027198
H        -2.00643778    -0.43390863     0.48760836    -0.00070447    -0.00010952    -0.00100177
C        -1.89149780     1.68829565     0.07190910    -0.00033246     0.00009857    -0.00004889
H        -2.42735682     2.62293598    -0.02954797    -0.00168248    -0.00027922    -0.00082435
N        -0.51228390     1.83163249     0.16868053     0.00042486     0.00015452     0.00018630
H        -0.09169296     2.73680944    -0.01793439    -0.00019948     0.00153483    -0.00098465
H         0.09243576     1.02461368     0.20004644     0.00275756    -0.00061731     0.00000575
    14
  Step:    14            Position(A)                                  Velocity(au)
C        -6.06117626    -0.69365369    -0.11824043    -0.00028394    -0.00008387    -0.00013035
C        -4.66345849    -0.74677128     0.11102141     0.00001073     0.00017846     0.00010422
H        -6.55194571     0.13939070    -0.61431730    -0.00048630     0.00061097     0.00014307
H        -6.61364354    -1.61263277     0.08814961    -0.00055297     0.00097869     0.00051067
H        -4.21414174    -1.65339333     0.43278837     0.00052591    -0.00069908    -0.00044316
C        -3.95295303     0.35955134    -0.08715545    -0.00045778    -0.00032240    -0.00004491
C        -2.45372313     0.48445183     0.23055776     0.00059405    -0.00022600     0.00014168
H        -4.39209368     1.30935304    -0.34841086    -0.00075375     0.00037634    -0.00034585
H        -2.01282544    -0.43590756     0.47693364    -0.00044022    -0.00028825    -0.00093865
C        -1.89475091     1.68956661     0.07143134    -0.00026025     0.00013336    -0.00003834
H        -2.44612776     2.61987817    -0.03897553    -0.00172953    -0.00029269    -0.00089412
N        -0.50776210     1.83336766     0.17070347     0.00040593     0.00016190     0.00018258
H        -0.09373211     2.75351882    -0.02864873    -0.00019403     0.00146279    -0.00096187
H         0.12281655     1.01759867     0.20014033     0.00272283    -0.00057987     0.00000769
    14
  Step:    15            Position(A)                                  Velocity(au)
C        -6.06431780    -0.69470944    -0.11967788    -0.00028938    -0.00010563    -0.00013300
C        -4.66355685    -0.74489235     0.11214541    -0.00003039     0.00015843     0.00010228
H        -6.55722589     0.14618051    -0.61252143    -0.00046877     0.00061416     0.00019281
H        -6.62014131    -1.60154866     0.09366288    -0.00064502     0.00102387     0.00050099
H        -4.20788586    -1.66209175     0.42839584     0.00059843    -0.00085453    -0.00037039
C        -3.95766522     0.35627382    -0.08759716    -0.00040039    -0.00027088    -0.00003656
C        -2.44760072     0.48185475     0.23201570     0.00052147    -0.00024650     0.00012352
H        -4.40093171     1.31367663    -0.35254860    -0.00084472     0.00038417    -0.00040108
H        -2.01606851    -0.44021458     0.46707353    -0.00013880    -0.00051790    -0.00085751
C        -1.89719130     1.69121316     0.07107039    -0.00018484     0.00016662    -0.00002757
H        -2.46519350     2.61653281    -0.04910846    -0.00173546    -0.00033155    -0.00095268
N        -0.50340340     1.83517434     0.17267479     0.00039436     0.00016815     0.00017686
H        -0.09593766     2.76881076    -0.03897712    -0.00022512     0.00128438    -0.00091481
H         0.15200284     1.01192782     0.20021460     0.00254950    -0.00038863     0.00000325
    14
  Step:    16            Position(A)                                  Velocity(au)
C        -6.06750702    -0.69596462    -0.12115001    -0.00029262    -0.00012042    -0.00013664
C        -4.66412333    -0.74330533     0.11325906    -0.00007424     0.00012540     0.00010229
H        -6.56220094     0.15282666    -0.61009927    -0.00043140     0.00058625     0.00025634
H        -6.62775452    -1.59023357     0.09910968    -0.00075677     0.00102099     0.00049906
H        -4.20104984    -1.67208783     0.42468532     0.00063024    -0.00093330    -0.00031893
C        -3.96171235     0.35362540    -0.08795531    -0.00033709    -0.00020835    -0.00002962
C        -2.44231499     0.47905924     0.23325997     0.00044283    -0.00026301     0.00010310
H        -4.41057360     1.31775746    -0.35718534    -0.00090057     0.00033432    -0.00043731
H        -2.01586188    -0.44723750     0.45817405     0.00017972    -0.00076697    -0.00076824
C        -1.89879473     1.69321172     0.07082813    -0.00010801     0.00019706    -0.00001666
H        -2.48409431     2.61262483    -0.05981732    -0.00169936    -0.00039405    -0.00099899
N        -0.49913473     1.83704624     0.17457263     0.00038838     0.00017433     0.00016922
H        -0.09865702     2.78161710    -0.04866204    -0.00028223     0.00102045    -0.00084602
H         0.17859182     1.00909658     0.20021152     0.00226188    -0.00008075    -0.00000538
    14
  Step:    17            Position(A)                                  Velocity(au)
C        -6.07071949    -0.69734393    -0.12266718    -0.00029366    -0.00012872    -0.00014109
C        -4.66518094    -0.74214889     0.11438318    -0.00011960     0.00008063     0.00010400
H        -6.56666362     0.15900590    -0.60691343    -0.00037660     0.00053145     0.00033064
H        -6.63669711    -1.57921264     0.10458073    -0.00088649     0.00097259     0.00050532
H        -4.19409817    -1.68250949     0.42141863     0.00062000    -0.00093382    -0.00028825
C        -3.96503981     0.35171575    -0.08824506    -0.00026972    -0.00013718    -0.00002394
C        -2.43791304     0.47610083     0.23427128     0.00036153    -0.00027715     0.00008137
H        -4.42063334     1.32099041    -0.36211557    -0.00092202     0.00023374    -0.00045563
H        -2.01213675    -0.45699348     0.45026677     0.00049378    -0.00099902    -0.00068090
C        -1.89955415     1.69552419     0.07070592    -0.00003113     0.00022336    -0.00000563
H        -2.50237025     2.60791219    -0.07096336    -0.00162205    -0.00047615    -0.00103243
N        -0.49490681     1.83898807     0.17637685     0.00038569     0.00018126     0.00015988
H        -0.10211191     2.79113500    -0.05748534    -0.00035365     0.00069704    -0.00075984
H         0.20148590     1.01016130     0.20009699     0.00188872     0.00030412    -0.00001617
    14
  Step:    18            Position(A)                                  Velocity(au)
C        -6.07393142    -0.69878058    -0.12423666    -0.00029266    -0.00013157    -0.00014597
C        -4.66673983    -0.74154147     0.11553434    -0.00016531     0.00002639     0.00010694
H        -6.57043983     0.16445308    -0.60286582    -0.00030784     0.00045584     0.00041173
H        -6.64714820    -1.56895631     0.11016448    -0.00102944     0.00088612     0.00051881
H        -4.18748617    -1.69251694     0.41837932     0.00057009    -0.00086226    -0.00027547
C        -3.96761295     0.35062438    -0.08847901    -0.00020008    -0.00006039    -0.00001922
C        -2.43440581     0.47299600     0.23504018     0.00028068    -0.00029049     0.00005913
H        -4.43074455     1.32287102    -0.36715319    -0.00091161     0.00009308    -0.00045826
H        -2.00505958    -0.46909297     0.44327807     0.00078338    -0.00117983    -0.00060384
C        -1.89947579     1.69809810     0.07070498     0.00004470     0.00024424     0.00000552
H        -2.51957981     2.60220807    -0.08240362    -0.00150595    -0.00057212    -0.00105284
N        -0.49069707     1.84101171     0.17807037     0.00038383     0.00018944     0.00014917
H        -0.10639380     2.79686610    -0.06528494    -0.00042767     0.00034266    -0.00066195
H         0.21991110     1.01574984     0.19985774     0.00145931     0.00072843    -0.00002736
    14
  Step:    19            Position(A)                                  Velocity(au)
C        -6.07712200    -0.70022236    -0.12586055    -0.00028999    -0.00013053    -0.00015074
C        -4.66879744    -0.74157158     0.11672261    -0.00021022    -0.00003429     0.00011044
H        -6.57339816     0.16897828    -0.59790602    -0.00022927     0.00036681     0.00049511
H        -6.65921801    -1.55982697     0.11593072    -0.00117790     0.00077338     0.00053710
H        -4.18162641    -1.70137317     0.41539210     0.00048542    -0.00073008    -0.00027638
C        -3.96941704     0.35039453    -0.08866551    -0.00013001     0.00001855    -0.00001503
C        -2.43177271     0.46974571     0.23556486     0.00020285    -0.00030411     0.00003694
H        -4.44057659     1.32302670    -0.37214086    -0.00087306    -0.00007499    -0.00044808
H        -1.99499882    -0.48280442     0.43705668     0.00103260    -0.00128369    -0.00054256
C        -1.89857620     1.70086732     0.07082668     0.00011868     0.00025851     0.00001681
H        -2.53531574     2.59539599    -0.09399622    -0.00135477    -0.00067513    -0.00106055
N        -0.48650971     1.84313236     0.17964015     0.00038039     0.00019903     0.00013748
H        -0.11146808     2.79863130    -0.07196668    -0.00049316    -0.00001329    -0.00055896
H         0.23341120     1.02609707     0.19949834     0.00100249     0.00115756    -0.00003743
    14
  Step:    20            Position(A)                                  Velocity(au)
C        -6.08027554    -0.70163610    -0.12753429    -0.00028619    -0.00012742    -0.00015473
C        -4.67133875    -0.74229162     0.11795034    -0.00025321    -0.00009802     0.00011379
H        -6.57545565     0.17247767    -0.59203434    -0.00014547     0.00027245     0.00057615
H        -6.67291699    -1.55203706     0.12191464    -0.00132186     0.00064902     0.00055648
H        -4.17686658    -1.70848883     0.41233292     0.00037241    -0.00055166    -0.00028621
C        -3.97045725     0.35103011    -0.08880773    -0.00006128     0.00009603    -0.00001086
C        -2.42996807     0.46634306     0.23584832     0.00013005    -0.00031829     0.00001513
H        -4.44984448     1.32123051    -0.37695588    -0.00081088    -0.00025692    -0.00042844
H        -1.98246955    -0.49717616     0.43140858     0.00123081    -0.00129679    -0.00049946
C        -1.89687941     1.70375355     0.07107272     0.00019022     0.00026517     0.00002827
H        -2.54921809     2.58743836    -0.10560527    -0.00117331    -0.00077784    -0.00105633
N        -0.48237534     1.84536597     0.18107798     0.00037292     0.00021010     0.00012529