     6
  Step:   120            Position(A)                                  Velocity(au)
C        -0.03719807     0.06660264    -0.15210687     0.00002991    -0.00004165     0.00037355
N        -0.04741847     0.00168331     1.46476279    -0.00005936     0.00007661    -0.00028467
H         0.80199012    -0.55312444    -0.57384980    -0.00071834    -0.00132276     0.00075703
H         0.82951831    -0.25588017     1.94918472     0.00009989     0.00094612    -0.00018509
H        -0.75407659    -0.76485747     1.68595438     0.00111656    -0.00146867    -0.00120628
H        -0.98817076     0.08703841    -0.71159585    -0.00002961     0.00127704     0.00013887
