     6
  Step:     0            Position(A)                                  Velocity(au)
C        -0.03142760     0.01782016     0.04202413     0.00008121     0.00012322    -0.00012801
N        -0.04754479    -0.05325053     1.27524966     0.00012241    -0.00008811     0.00002644
H         0.91154745    -0.00625335    -0.53915814    -0.00037464    -0.00026722     0.00057036
H         0.81065715    -0.12115123     1.86801365    -0.00094874     0.00017285    -0.00072370
H        -0.88399621    -0.07888981     1.85216285    -0.00104773     0.00035516     0.00166557
H        -1.01595398     0.06415833    -0.51105643    -0.00029765    -0.00050473    -0.00035427
     6
  Step:     1            Position(A)                                  Velocity(au)
C        -0.03100595     0.01853467     0.04087358     0.00007219     0.00013830    -0.00029153
N        -0.04684918    -0.05374613     1.27578172     0.00012953    -0.00009296     0.00016770
H         0.90979584    -0.00781547    -0.53598180    -0.00026123    -0.00030558     0.00058738
H         0.80552763    -0.12025815     1.86387909    -0.00091318     0.00015166    -0.00077897
H        -0.89011397    -0.07701528     1.86127275    -0.00116856     0.00032990     0.00165042
H        -1.01764589     0.06132548    -0.51289178    -0.00031723    -0.00053222    -0.00031531
     6
  Step:     2            Position(A)                                  Velocity(au)
C        -0.03063782     0.01933322     0.03883469     0.00006167     0.00015384    -0.00045151
N        -0.04612769    -0.05426754     1.27708432     0.00013173    -0.00009727     0.00030701
H         0.90868944    -0.00959656    -0.53273196    -0.00013988    -0.00034766     0.00059664
H         0.80066667    -0.11949202     1.85949143    -0.00084870     0.00012550    -0.00081423
H        -0.89678068    -0.07528058     1.87021902    -0.00124809     0.00030275     0.00160518
H        -1.01942457     0.05833568    -0.51450606    -0.00032881    -0.00056214    -0.00027364
     6
  Step:     3            Position(A)                                  Velocity(au)
C        -0.03033088     0.02021862     0.03593134     0.00004986     0.00016982    -0.00060577
N        -0.04540726    -0.05481084     1.27914222     0.00012895    -0.00010057     0.00044228
H         0.90826470    -0.01162095    -0.52945097    -0.00001412    -0.00039469     0.00059769
H         0.79623777    -0.11888439     1.85496647    -0.00075338     0.00009259    -0.00082657
H        -0.90377563    -0.07370140     1.87884313    -0.00128735     0.00027137     0.00153149
H        -1.02124500     0.05517224    -0.51588701    -0.00033120    -0.00059535    -0.00023024
     6
  Step:     4            Position(A)                                  Velocity(au)
C        -0.03009154     0.02119380     0.03219788     0.00003704     0.00018620    -0.00075240
N        -0.04471497    -0.05536942     1.28192989     0.00012118    -0.00010238     0.00057162
H         0.90853480    -0.01392077    -0.52618372     0.00011028    -0.00044779     0.00058981
H         0.79241272    -0.11847763     1.85043560    -0.00062666     0.00005100    -0.00081304
H        -0.91088482    -0.07230744     1.88699793    -0.00128727     0.00023321     0.00143190
H        -1.02305318     0.05181306    -0.51702857    -0.00032178    -0.00063257    -0.00018654
     6
  Step:     5            Position(A)                                  Velocity(au)
C        -0.02992446     0.02226148     0.02767645     0.00002360     0.00020268    -0.00089004
N        -0.04407770    -0.05593404     1.28541375     0.00010855    -0.00010236     0.00069363
H         0.90947458    -0.01653388    -0.52297990     0.00022464    -0.00050638     0.00057180
H         0.78936246    -0.11832483     1.84604624    -0.00047012    -0.00000004    -0.00077074
H        -0.91789881    -0.07114274     1.89455309    -0.00124841     0.00018691     0.00131029
H        -1.02477536     0.04823200    -0.51793358    -0.00029579    -0.00067331    -0.00014448
     6
  Step:     6            Position(A)                                  Velocity(au)
C        -0.02983208     0.02342196     0.02241329     0.00000994     0.00021831    -0.00101720
N        -0.04352163    -0.05649468     1.28955524     0.00009131    -0.00010080     0.00080678
H         0.91100436    -0.01948765    -0.51989773     0.00032033    -0.00056526     0.00054222
H         0.78724446    -0.11847808     1.84196252    -0.00028762    -0.00005749    -0.00069769
H        -0.92460910    -0.07025262     1.90140245    -0.00117143     0.00013546     0.00117144
H        -1.02630496     0.04441105    -0.51861688    -0.00024859    -0.00071344    -0.00010622
     6
  Step:     7            Position(A)                                  Velocity(au)
C        -0.02981493     0.02466785     0.01646401    -0.00000365     0.00023149    -0.00113033
N        -0.04307118    -0.05704510     1.29430674     0.00007005    -0.00009845     0.00090797
H         0.91300551    -0.02276461    -0.51700311     0.00039523    -0.00061579     0.00050081
H         0.78619202    -0.11895853     1.83835572    -0.00008447    -0.00011465    -0.00059542
H        -0.93081125    -0.06964963     1.90746563    -0.00105920     0.00008583     0.00101952
H        -1.02751548     0.04036792    -0.51910443    -0.00018152    -0.00074586    -0.00007325
     6
  Step:     8            Position(A)                                  Velocity(au)
C        -0.02987247     0.02598228     0.00991178    -0.00001692     0.00024097    -0.00122395
N        -0.04274684    -0.05758352     1.29959738     0.00004575    -0.00009576     0.00099263
H         0.91537557    -0.02629827    -0.51435880     0.00045404    -0.00065227     0.00044907
H         0.78631017    -0.11974606     1.83537718     0.00013277    -0.00016616    -0.00046987
H        -0.93632389    -0.06930333     1.91267838    -0.00091798     0.00004320     0.00085776
H        -1.02831259     0.03616183    -0.51942700    -0.00010297    -0.00076554    -0.00004624
     6
  Step:     9            Position(A)                                  Velocity(au)
C        -0.03000278     0.02734373     0.00287262    -0.00002953     0.00024632    -0.00129346
N        -0.04256319    -0.05810846     1.30532942     0.00001964    -0.00009264     0.00105702
H         0.91804744    -0.03000777    -0.51201640     0.00050183    -0.00067416     0.00038942
H         0.78766638    -0.12080371     1.83313804     0.00035561    -0.00021044    -0.00032938
H        -0.94100496    -0.06916993     1.91699068    -0.00075606     0.00000829     0.00069002
H        -1.02865886     0.03186695    -0.51961796    -0.00002244    -0.00077165    -0.00002580
     6
  Step:    10            Position(A)                                  Velocity(au)
C        -0.03020184     0.02872986    -0.00451595    -0.00004109     0.00024773    -0.00133714
N        -0.04252777    -0.05861680     1.31138773    -0.00000691    -0.00008888     0.00109977
H         0.92097313    -0.03381813    -0.51001504     0.00054110    -0.00068338     0.00032443
H         0.79027676    -0.12209341     1.83170317     0.00057402    -0.00024767    -0.00018277
H        -0.94475728    -0.06921088     1.92037513    -0.00058243    -0.00002013     0.00052154
H        -1.02856288     0.02755460    -0.51971475     0.00005297    -0.00076571    -0.00001259
     6
  Step:    11            Position(A)                                  Velocity(au)
C        -0.03046326     0.03011964    -0.01211050    -0.00005128     0.00024578    -0.00135646
N        -0.04264057    -0.05910441     1.31765274    -0.00003259    -0.00008448     0.00112218
H         0.92411066    -0.03766524    -0.50838099     0.00057303    -0.00068260     0.00025667
H         0.79409847    -0.12357889     1.83109004     0.00077827    -0.00027844    -0.00003836
H        -0.94753133    -0.06939554     1.92283476    -0.00040599    -0.00004345     0.00035821
H        -1.02806529     0.02328689    -0.51975904     0.00011866    -0.00075032    -0.00000713
     6
  Step:    12            Position(A)                                  Velocity(au)
C        -0.03077879     0.03149515    -0.01977775    -0.00005989     0.00024136    -0.00135571
N        -0.04289447    -0.05956727     1.32401363    -0.00005637    -0.00007959     0.00112788
H         0.92742042    -0.04149825    -0.50712719     0.00059869    -0.00067497     0.00018847
H         0.79903332    -0.12522618     1.83127160     0.00096092    -0.00030360     0.00009700
H        -0.94932520    -0.06969976     1.92440544    -0.00023468    -0.00006286     0.00020535
H        -1.02722785     0.01911257    -0.51979497     0.00017204    -0.00072873    -0.00000956
     6
  Step:    13            Position(A)                                  Velocity(au)
C        -0.03113911     0.03284335    -0.02740935    -0.00006691     0.00023555    -0.00134091
N        -0.04327667    -0.06000254     1.33038060    -0.00007755    -0.00007448     0.00112194
H         0.93086674    -0.04528207    -0.50625410     0.00061945    -0.00066371     0.00012166
H         0.80494228    -0.12700493     1.83218462     0.00111783    -0.00032423     0.00021865
H        -0.95017964    -0.07010487     1.92515208    -0.00007458    -0.00007942     0.00006678
H        -1.02612391     0.01506338    -0.51986690     0.00021218    -0.00070439    -0.00001968
     6
  Step:    14            Position(A)                                  Velocity(au)
C        -0.03153486     0.03415692    -0.03493064    -0.00007242     0.00022929    -0.00131802
N        -0.04377079    -0.06040898     1.33669211    -0.00009578    -0.00006942     0.00110940
H         0.93442054    -0.04899850    -0.50575235     0.00063667    -0.00065164     0.00005733
H         0.81166529    -0.12889017     1.83374248     0.00124763    -0.00034148     0.00032427
H        -0.95016799    -0.07059723     1.92516008     0.00007044    -0.00009410    -0.00005549
H        -1.02483013     0.01115267    -0.52001735     0.00023924    -0.00068027    -0.00003716
     6
  Step:    15            Position(A)                                  Velocity(au)
C        -0.03195727     0.03543373    -0.04229976    -0.00011678     0.00034058    -0.00197025
N        -0.04435877    -0.06078686     1.34291413    -0.00016921    -0.00009851     0.00166900
H         0.93805962    -0.05264403    -0.50560646     0.00099339    -0.00097732    -0.00000615
H         0.81903742    -0.13086281     1.83584804     0.00205989    -0.00054345     0.00063026
H        -0.94938382    -0.07116799     1.92452523     0.00030243    -0.00016434    -0.00024529
H        -1.02342107     0.00737794    -0.52028674     0.00038720    -0.00100434    -0.00009416
     6
  Step:    16            Position(A)                                  Velocity(au)
C        -0.03261537     0.03730396    -0.05295142    -0.00007292     0.00020374    -0.00113975
N        -0.04534254    -0.06132170     1.35198954    -0.00011170    -0.00005751     0.00097705
H         0.94389978    -0.05806216    -0.50612151     0.00067646    -0.00059653    -0.00010719
H         0.83082157    -0.13387580     1.83965439     0.00132228    -0.00033061     0.00044524
H        -0.94738489    -0.07204984     1.92294615     0.00024783    -0.00009386    -0.00019110
H        -1.02153146     0.00183726    -0.52118832     0.00017455    -0.00060757    -0.00014311
     6
  Step:    17            Position(A)                                  Velocity(au)
C        -0.03303015     0.03843582    -0.05928927    -0.00007350     0.00019778    -0.00110719
N        -0.04599667    -0.06163258     1.35744414    -0.00011859    -0.00005284     0.00095672
H         0.94771783    -0.06139608    -0.50687366     0.00067470    -0.00058617    -0.00015736
H         0.83840273    -0.13576953     1.84232331     0.00135231    -0.00033972     0.00049334
H        -0.94572168    -0.07261876     1.92165621     0.00033191    -0.00010778    -0.00025798
H        -1.02056129    -0.00153356    -0.52209218     0.00016486    -0.00058887    -0.00017964
     6
  Step:    18            Position(A)                                  Velocity(au)
C        -0.03344385     0.03953347    -0.06543215    -0.00007306     0.00019289    -0.00107805
N        -0.04667936    -0.06191735     1.36277414    -0.00012263    -0.00004858     0.00093928
H         0.95150529    -0.06466974    -0.50789536     0.00066996    -0.00057896    -0.00020414
H         0.84606550    -0.13770530     1.84521554     0.00136075    -0.00034787     0.00052840
H        -0.94364341    -0.07326480     1.92003807     0.00039706    -0.00012212    -0.00030944
H        -1.01967309    -0.00480071    -0.52321330     0.00014693    -0.00057458    -0.00022129
     6
  Step:    19            Position(A)                                  Velocity(au)
C        -0.03385096     0.04060289    -0.07140064    -0.00007148     0.00018851    -0.00104966
N        -0.04737434    -0.06217831     1.36799651    -0.00012348    -0.00004455     0.00092232
H         0.95524452    -0.06790047    -0.50916709     0.00066019    -0.00057320    -0.00024735
H         0.85369012    -0.13967768     1.84825964     0.00134496    -0.00035423     0.00055019
H        -0.94126092    -0.07399070     1.91817974     0.00044148    -0.00013685    -0.00034482
H        -1.01891059    -0.00798873    -0.52457825     0.00012116    -0.00056296    -0.00026714
     6
  Step:    20            Position(A)                                  Velocity(au)
C        -0.03424531     0.04164695    -0.07720051    -0.00006871     0.00018423    -0.00102022
N        -0.04806381    -0.06241681     1.37311484    -0.00012097    -0.00004065     0.00090416
H         0.95890710    -0.07109621    -0.51066856     0.00064398    -0.00056763    -0.00028668
H         0.86114468    -0.14167683     1.85138403     0.00130379    -0.00035822     0.00055886
H        -0.93869366    -0.07479909     1.91617213     0.00046361    -0.00015192    -0.00036349
H        -1.01831468    -0.01111237    -0.52620837     0.00008831    -0.00055271    -0.00031611
     6
  Step:    21            Position(A)                                  Velocity(au)
C        -0.03462050     0.04266638    -0.08282754    -0.00006476     0.00017984    -0.00098884
N        -0.04872920    -0.06263361     1.37812339    -0.00011506    -0.00003682     0.00088384
H         0.96245737    -0.07425813    -0.51237800     0.00062065    -0.00056150    -0.00032186
H         0.86829312    -0.14368982     1.85451905     0.00123782    -0.00035950     0.00055515
H        -0.93606828    -0.07569227     1.91410847     0.00046255    -0.00016730    -0.00036532
H        -1.01792145    -0.01417926    -0.52811880     0.00004954    -0.00054301    -0.00036705
     6
  Step:    22            Position(A)                                  Velocity(au)
C        -0.03497043     0.04366061    -0.08827250    -0.00005976     0.00017522    -0.00095528
N        -0.04935209    -0.06282911     1.38301115    -0.00010591    -0.00003304     0.00086103
H         0.96585644    -0.07738330    -0.51427246     0.00059012    -0.00055445    -0.00035279
H         0.87500448    -0.14570214     1.85760000     0.00114908    -0.00035803     0.00054033
H        -0.93351454    -0.07667236     1.91208171     0.00043830    -0.00018299    -0.00035070
H        -1.01776003    -0.01719245    -0.53031819     0.00000629    -0.00053340    -0.00041882
     6
  Step:    23            Position(A)                                  Velocity(au)
C        -0.03528968     0.04462850    -0.09352478    -0.00005387     0.00017035    -0.00091976
N        -0.04991513    -0.06300355     1.38776518    -0.00009381    -0.00002928     0.00083579
H         0.96906557    -0.08046686    -0.51632850     0.00055284    -0.00054640    -0.00037948
H         0.88116051    -0.14769910     1.86056973     0.00104065    -0.00035396     0.00051607
H        -0.93116018    -0.07774145     1.91018128     0.00039185    -0.00019904    -0.00032070
H        -1.01785103    -0.02015229    -0.53280880    -0.00003978    -0.00052363    -0.00047038
     6
  Step:    24            Position(A)                                  Velocity(au)
C        -0.03557386     0.04556877    -0.09857488    -0.00004731     0.00016528    -0.00088278
N        -0.05040285    -0.06315712     1.39237293    -0.00007918    -0.00002557     0.00080848
H         0.97204882    -0.08350359    -0.51852312     0.00050955    -0.00053748    -0.00040216
H         0.88666099    -0.14966691     1.86338057     0.00091630    -0.00034757     0.00048424
H        -0.92912536    -0.07890186     1.90848956     0.00032514    -0.00021552    -0.00027691
H        -1.01820563    -0.02305773    -0.53558700    -0.00008696    -0.00051362    -0.00052079
     6
  Step:    25            Position(A)                                  Velocity(au)
C        -0.03581979     0.04648036    -0.10341594    -0.00004030     0.00016005    -0.00084496
N        -0.05080225    -0.06329002     1.39682380    -0.00006249    -0.00002189     0.00077960
H         0.97477478    -0.08648901    -0.52083455     0.00046121    -0.00052793    -0.00042115
H         0.89142716    -0.15159345     1.86599545     0.00078004    -0.00033923     0.00044684
H        -0.92751710    -0.08015626     1.90707859     0.00024098    -0.00023253    -0.00022147
H        -1.01882532    -0.02590711    -0.53864403    -0.00013354    -0.00050334    -0.00056927
     6
  Step:    26            Position(A)                                  Velocity(au)
C        -0.03602555     0.04736251    -0.10804431    -0.00003307     0.00015476    -0.00080690
N        -0.05110321    -0.06340246     1.40110991    -0.00004430    -0.00001826     0.00074970
H         0.97721761    -0.08942006    -0.52324295     0.00040887    -0.00051806    -0.00043685
H         0.89540291    -0.15346870     1.86838829     0.00063592    -0.00032936     0.00040580
H        -0.92642467    -0.08150784     1.90600752     0.00014283    -0.00025018    -0.00015682
H        -1.01970225    -0.02869864    -0.54196683    -0.00017797    -0.00049280    -0.00061518
     6
  Step:    27            Position(A)                                  Velocity(au)
C        -0.03619046     0.04821487    -0.11245963    -0.00002583     0.00014945    -0.00076915
N        -0.05129873    -0.06349465     1.40522641    -0.00002514    -0.00001466     0.00071930
H         0.97935738    -0.09229541    -0.52573076     0.00035355    -0.00050819    -0.00044971
H         0.89855458    -0.15528495     1.87054361     0.00048777    -0.00031837     0.00036294
H        -0.92591622    -0.08296029     1.90532092     0.00003464    -0.00026857    -0.00008563
H        -1.02082002    -0.03143046    -0.54553898    -0.00021883    -0.00048201    -0.00065802
     6
  Step:    28            Position(A)                                  Velocity(au)
C        -0.03631502     0.04903747    -0.11666443    -0.00001877     0.00014420    -0.00073217
N        -0.05138495    -0.06356680     1.40917133    -0.00000557    -0.00001111     0.00068887
H         0.98117998    -0.09511555    -0.52828294     0.00029624    -0.00049865    -0.00046017
H         0.90086953    -0.15703672     1.87245582     0.00033911    -0.00030662     0.00031991
H        -0.92603649    -0.08451780     1.90504786    -0.00007938    -0.00028779    -0.00001064
H        -1.02215478    -0.03410066    -0.54934144    -0.00025493    -0.00047092    -0.00069739
     6
  Step:    29            Position(A)                                  Velocity(au)
C        -0.03640075     0.04983062    -0.12066358    -0.00001206     0.00013904    -0.00069628
N        -0.05136115    -0.06361909     1.41294525     0.00001388    -0.00000758     0.00065880
H         0.98267680    -0.09788276    -0.53088694     0.00023786    -0.00048971    -0.00046866
H         0.90235434    -0.15872058     1.87412821     0.00019312    -0.00029444     0.00027819
H        -0.92680567    -0.08618501     1.90520171    -0.00019488    -0.00030791     0.00006542
H        -1.02367648    -0.03670707    -0.55335326    -0.00028527    -0.00045944    -0.00073301
     6
  Step:    30            Position(A)                                  Velocity(au)
C        -0.03645006     0.05059489    -0.12446370    -0.00000584     0.00013400    -0.00066171
N        -0.05122952    -0.06365169     1.41655081     0.00003270    -0.00000407     0.00062938
H         0.98384429    -0.10060093    -0.53353253     0.00017922    -0.00048165    -0.00047556
H         0.90303272    -0.16033486     1.87557195     0.00005263    -0.00028211     0.00023908
H        -0.92821939    -0.08796685     1.90578063    -0.00030761    -0.00032898     0.00013994
H        -1.02535014    -0.03924704    -0.55755216    -0.00030908    -0.00044747    -0.00076467
     6
  Step:    31            Position(A)                                  Velocity(au)
C        -0.03646611     0.05133098    -0.12807250    -0.00000023     0.00012910    -0.00062856
N        -0.05099503    -0.06366468     1.41999224     0.00005044    -0.00000057     0.00060081
H         0.98468346    -0.10327557    -0.53621157     0.00012109    -0.00047472    -0.00048120
H         0.90294361    -0.16187927     1.87680513    -0.00007982    -0.00026982     0.00020372
H        -0.93024984    -0.08986853     1.90676860    -0.00041358    -0.00035104     0.00021055
H        -1.02713710    -0.04171720    -0.56191497    -0.00032580    -0.00043481    -0.00079222
     6
  Step:    32            Position(A)                                  Velocity(au)
C        -0.03645267     0.05203968    -0.13149811     0.00000466     0.00012434    -0.00059684
N        -0.05066508    -0.06365811     1.42327468     0.00006668     0.00000293     0.00057318
H         0.98519947    -0.10591370    -0.53891777     0.00006417    -0.00046923    -0.00048588
H         0.90213942    -0.16335450     1.87785186    -0.00020196    -0.00025769     0.00017312
H        -0.93284784    -0.09189549     1.90813694    -0.00050921    -0.00037415     0.00027513
H        -1.02899622    -0.04411311    -0.56641811    -0.00033507    -0.00042124    -0.00081561
     6
  Step:    33            Position(A)                                  Velocity(au)
C        -0.03641401     0.05272180    -0.13474846     0.00000875     0.00011972    -0.00056646
N        -0.05024921    -0.06363196     1.42640362     0.00008107     0.00000644     0.00054652
H         0.98540125    -0.10852413    -0.54164639     0.00000911    -0.00046551    -0.00048984
H         0.90068453    -0.16476168     1.87874163    -0.00031178    -0.00024571     0.00014820
H        -0.93594561    -0.09405360     1.90984613    -0.00059147    -0.00039841     0.00033194
H        -1.03088509    -0.04642900    -0.57103805    -0.00033676    -0.00040645    -0.00083489
     6
  Step:    34            Position(A)                                  Velocity(au)
C        -0.03635483     0.05337813    -0.13783099     0.00001197     0.00011524    -0.00053734
N        -0.04975871    -0.06358613     1.42938457     0.00009335     0.00000997     0.00052080
H         0.98530133    -0.11111794    -0.54439406    -0.00004344    -0.00046408    -0.00049331
H         0.89865378    -0.16610150     1.87950873    -0.00040753    -0.00023368     0.00012978
H        -0.93946034    -0.09634965     1.91184788    -0.00065802    -0.00042410     0.00037956
H        -1.03276109    -0.04865716    -0.57575194    -0.00033091    -0.00039001    -0.00085024
     6
  Step:    35            Position(A)                                  Velocity(au)
C        -0.03628022     0.05400950    -0.14075260     0.00001425     0.00011091    -0.00050934
N        -0.04920615    -0.06352050     1.43222292     0.00010332     0.00001354     0.00049598
H         0.98491585    -0.11370971    -0.54715858    -0.00009277    -0.00046585    -0.00049651
H         0.89613089    -0.16737278     1.88019180    -0.00048774    -0.00022095     0.00011865
H        -0.94329819    -0.09879240     1.91408723    -0.00070724    -0.00045179     0.00041695
H        -1.03458260    -0.05078693    -0.58053851    -0.00031781    -0.00037117    -0.00086209
     6
  Step:    36            Position(A)                                  Velocity(au)
C        -0.03619571     0.05461682    -0.14351932     0.00001544     0.00010675    -0.00048208
N        -0.04860482    -0.06343496     1.43492370     0.00011094     0.00001712     0.00047183
H         0.98426529    -0.11632059    -0.54993905    -0.00013778    -0.00047283    -0.00049976
H         0.89320663    -0.16856913     1.88083381    -0.00055132    -0.00020575     0.00011571
H        -0.94735879    -0.10139531     1.91650437    -0.00073842    -0.00048303     0.00044333
H        -1.03631036    -0.05280236    -0.58537986    -0.00029812    -0.00034834    -0.00087152
     6
  Step:    37            Position(A)                                  Velocity(au)
C        -0.03610785     0.05520112    -0.14613376     0.00001515     0.00010284    -0.00045345
N        -0.04796783    -0.06332945     1.43748967     0.00011646     0.00002069     0.00044688
H         0.98337795    -0.11898759    -0.55273701    -0.00017484    -0.00049176    -0.00050469
H         0.88997686    -0.16966942     1.88148337    -0.00059750    -0.00018161     0.00012287
H        -0.95154065    -0.10418410     1.91903580    -0.00075230    -0.00052275     0.00045790
H        -1.03791026    -0.05467520    -0.59026675    -0.00027428    -0.00031683    -0.00088275
     6
  Step:    38            Position(A)                                  Velocity(au)
C        -0.03602674     0.05576415    -0.14857831     0.00001298     0.00010313    -0.00041175
N        -0.04730547    -0.06320414     1.43990939     0.00012398     0.00002465     0.00041671
H         0.98231471    -0.12180694    -0.55556972    -0.00017565    -0.00055730    -0.00055679
H         0.88654059    -0.17059533     1.88220459    -0.00064098    -0.00013888     0.00015114
H        -0.95575197    -0.10722746     1.92161297    -0.00077597    -0.00058605     0.00047937
H        -1.03937037    -0.05633711    -0.59522843    -0.00028499    -0.00028926    -0.00095802
     6
  Step:    39            Position(A)                                  Velocity(au)
C        -0.03594093     0.05632999    -0.15076049     0.00001595     0.00009959    -0.00038197
N        -0.04662682    -0.06305744     1.44213948     0.00011968     0.00002816     0.00039107
H         0.98128077    -0.12472862    -0.55878584    -0.00020615    -0.00051030    -0.00057967
H         0.88294647    -0.17157057     1.88305425    -0.00064357    -0.00019037     0.00016018
H        -0.95999847    -0.11031941     1.92434067    -0.00074115    -0.00055124     0.00048727
H        -1.04094913    -0.05812959    -0.60057683    -0.00026239    -0.00032615    -0.00095059
     6
  Step:    40            Position(A)                                  Velocity(au)
C        -0.03584894     0.05687412    -0.15283552     0.00001634     0.00009580    -0.00036396
N        -0.04597156    -0.06289029     1.44426796     0.00011468     0.00003187     0.00037378
H         0.98001710    -0.12749438    -0.56203030    -0.00024612    -0.00048870    -0.00058335
H         0.87936777    -0.17271701     1.88398989    -0.00063309    -0.00021634     0.00018040
H        -0.96401235    -0.11337119     1.92704382    -0.00069242    -0.00055014     0.00047732
H        -1.04229484    -0.05997213    -0.60582305    -0.00021672    -0.00032924    -0.00093165
     6
  Step:    41            Position(A)                                  Velocity(au)
C        -0.03575896     0.05739710    -0.15481475     0.00001552     0.00009212    -0.00034755
N        -0.04534932    -0.06270241     1.44630319     0.00010784     0.00003564     0.00035769
H         0.97853916    -0.13017244    -0.56528403    -0.00028298    -0.00047593    -0.00058489
H         0.87589429    -0.17398044     1.88506378    -0.00060669    -0.00023626     0.00020909
H        -0.96771157    -0.11644762     1.92965774    -0.00062943    -0.00055683     0.00045710
H        -1.04336322    -0.06179714    -0.61095483    -0.00016446    -0.00032395    -0.00091045
     6
  Step:    42            Position(A)                                  Velocity(au)
C        -0.03567616     0.05789974    -0.15670490     0.00001388     0.00008859    -0.00033226
N        -0.04477091    -0.06249355     1.44825022     0.00009913     0.00003945     0.00034243
H         0.97686656    -0.13279299    -0.56854204    -0.00031632    -0.00046751    -0.00058585
H         0.87261329    -0.17534737     1.88631777    -0.00056532    -0.00025487     0.00024474
H        -0.97101992    -0.11957051     1.93213282    -0.00055365    -0.00056635     0.00042876
H        -1.04412585    -0.06357872    -0.61595938    -0.00010772    -0.00031511    -0.00088699
     6
  Step:    43            Position(A)                                  Velocity(au)
C        -0.03560450     0.05838285    -0.15851182     0.00001160     0.00008520    -0.00031797
N        -0.04424627    -0.06226348     1.45011345     0.00008876     0.00004331     0.00032793
H         0.97501950    -0.13537439    -0.57180286    -0.00034603    -0.00046194    -0.00058670
H         0.86960392    -0.17681635     1.88778706    -0.00051068    -0.00027364     0.00028620
H        -0.97387203    -0.12274937     1.93442854    -0.00046717    -0.00057717     0.00039382
H        -1.04456179    -0.06530340    -0.62082439    -0.00004770    -0.00030434    -0.00086143
     6
  Step:    44            Position(A)                                  Velocity(au)
C        -0.03554720     0.05884725    -0.16024089     0.00000878     0.00008196    -0.00030458
N        -0.04378388    -0.06201197     1.45189700     0.00007701     0.00004721     0.00031413
H         0.97301844    -0.13793001    -0.57506656    -0.00037210    -0.00045854    -0.00058765
H         0.86693424    -0.17839038     1.88950048    -0.00044491    -0.00029310     0.00033228
H        -0.97621510    -0.12598897     1.93651233    -0.00037228    -0.00058868     0.00035366
H        -1.04465628    -0.06696314    -0.62553903     0.00001454    -0.00029238    -0.00083408
     6