|===============================================================================
|
|  DFTB+ release 20.1
|
|  Copyright (C) 2006 - 2020  DFTB+ developers group
|
|===============================================================================
|
|  When publishing results obtained with DFTB+, please cite the following
|  reference:
|
|  * DFTB+, a software package for efficient approximate density functional
|    theory based atomistic simulations, J. Chem. Phys. 152, 124101 (2020).
|    [doi: 10.1063/1.5143190]
|
|  You should also cite additional publications crediting the parametrization
|  data you use. Please consult the documentation of the SK-files for the
|  references.
|
|===============================================================================

Reading input file 'dftb_in.hsd'
Parser version: 8

--------------------------------------------------------------------------------
Reading SK-files:
Done.


Processed input in HSD format written to 'dftb_pin.hsd'

Starting initialization...
--------------------------------------------------------------------------------
WARNING!
-> Excited state forces are not implemented yet for fractional occupations, kT=  0.3158E-02K
OpenMP threads:              1
Chosen random seed:          508344719
Mode:                        Static calculation
Self consistent charges:     Yes
SCC-tolerance:                 0.100000E-05
Max. scc iterations:                    100
Shell resolved Hubbard:      No
Spin polarisation:           No
Nr. of up electrons:             6.000000
Nr. of down electrons:           6.000000
Periodic boundaries:         No
Electronic solver:           Relatively robust
Mixer:                       Broyden mixer
Mixing parameter:                  0.200000
Maximal SCC-cycles:                     100
Nr. of chrg. vec. in memory:              0
Electronic temperature:        0.100000E-07 H      0.272114E-06 eV
Initial charges:             Set automatically (system chrg:   0.100E+01)
Included shells:             C:  s, p
                             N:  s, p
                             H:  s
Extra options:
                             Mulliken analysis
                             Force calculation
Force type                   original
                             Eigenvector printing

--------------------------------------------------------------------------------

***  Geometry step: 0

 iSCC Total electronic   Diff electronic      SCC error    
    1   -0.53290926E+01    0.00000000E+00    0.10049117E+01
    2   -0.53412483E+01   -0.12155731E-01    0.66629897E+00
    3   -0.53476703E+01   -0.64219803E-02    0.19521101E+00
    4   -0.52926929E+01    0.54977377E-01    0.85846869E+00
    5   -0.53495659E+01   -0.56872984E-01    0.38159010E-02
    6   -0.53495192E+01    0.46685542E-04    0.30197784E-01
    7   -0.53495499E+01   -0.30634963E-04    0.18081687E-01
    8   -0.53495665E+01   -0.16586219E-04    0.64722349E-02
    9   -0.53495676E+01   -0.11253585E-05    0.47755921E-02
   10   -0.53495689E+01   -0.13386543E-05    0.26362090E-03
   11   -0.53495689E+01   -0.37857362E-08    0.73175478E-04
   12   -0.53495689E+01   -0.32114222E-09    0.67516470E-05
   13   -0.53495689E+01   -0.27187141E-11    0.53327398E-07
>> Charges saved for restart in charges.bin

Total Energy:                       -5.0928665320 H         -138.5839 eV
Extrapolated to 0:                  -5.1867360078 H         -141.1383 eV
Total Mermin free energy:           -5.0928665320 H         -138.5839 eV
Force related energy:               -5.1867360078 H         -141.1383 eV

--------------------------------------------------------------------------------
DFTB+ running times                          cpu [s]             wall clock [s]
--------------------------------------------------------------------------------
SCC                                    +     0.02  ( 59.7%)      0.13  ( 85.2%)
Post-SCC processing                    +     0.01  ( 34.8%)      0.02  ( 11.6%)
--------------------------------------------------------------------------------
Missing                                +     0.00  (  5.5%)      0.01  (  3.2%)
Total                                  =     0.03  (100.0%)      0.16  (100.0%)
--------------------------------------------------------------------------------
