     6
  Step:   300            Position(A)                                  Velocity(au)
C        -0.03758830    -0.01319259     0.02152057     0.00012446     0.00008156    -0.00001381
N        -0.04979193    -0.01133448     1.30058140    -0.00002116    -0.00020460    -0.00003212
H         0.90607926    -0.18007381    -0.47636324    -0.00016212    -0.00056758    -0.00037175
H         0.83830529    -0.05858984     1.81799337    -0.00004562     0.00155665     0.00006648
H        -0.89447360    -0.35200523     1.76368877    -0.00055384     0.00060861    -0.00011015
H        -0.92302408     0.23559137    -0.54306365    -0.00042737     0.00027355     0.00102628
