|===============================================================================
|
|  DFTB+ release 20.1
|
|  Copyright (C) 2006 - 2020  DFTB+ developers group
|
|===============================================================================
|
|  When publishing results obtained with DFTB+, please cite the following
|  reference:
|
|  * DFTB+, a software package for efficient approximate density functional
|    theory based atomistic simulations, J. Chem. Phys. 152, 124101 (2020).
|    [doi: 10.1063/1.5143190]
|
|  You should also cite additional publications crediting the parametrization
|  data you use. Please consult the documentation of the SK-files for the
|  references.
|
|===============================================================================

Reading input file 'dftb_in.hsd'
Parser version: 8

--------------------------------------------------------------------------------
Reading SK-files:
Done.


Processed input in HSD format written to 'dftb_pin.hsd'

Starting initialization...
--------------------------------------------------------------------------------
OpenMP threads:              1
Chosen random seed:          509430263
Mode:                        Static calculation
Self consistent charges:     Yes
SCC-tolerance:                 0.100000E-05
Max. scc iterations:                   1000
Shell resolved Hubbard:      No
Spin polarisation:           No
Nr. of up electrons:             6.000000
Nr. of down electrons:           6.000000
Periodic boundaries:         No
Electronic solver:           Relatively robust
Maximal SCC-cycles:                    1000
Initial charges:             Set automatically (system chrg:   0.100E+01)
Included shells:             C:  s, p
                             N:  s, p
                             H:  s
Spin coupling constants:     C   1(s)-1(s):  -0.455900E-01
                             C   1(s)-2(p):  -0.293000E-01
                             C   2(p)-1(s):  -0.293000E-01
                             C   2(p)-2(p):  -0.275500E-01
                             N   1(s)-1(s):  -0.468700E-01
                             N   1(s)-2(p):  -0.317000E-01
                             N   2(p)-1(s):  -0.317000E-01
                             N   2(p)-2(p):  -0.307200E-01
                             H   1(s)-1(s):  -0.792500E-01
Range separated hybrid:      Yes
  Screening parameter omega:   0.300000E+00
  Range separated algorithm:   MatrixBased
Extra options:
                             Mulliken analysis
                             Force calculation
Force type                   original
                             Eigenvector printing


REKS Calcuation:             Yes
SSR(2,2) Calcuation:         Yes
Energy Functional:           (PPS+OSS)/2
Number of Core Orbitals:                  5
Number of Active Orbitals:                2
Number of Basis:                         12
Number of States:                         2
State-Averaging Weight:          0.500000
                                 0.500000
State of Interest:                        1
Initial Guess:               Diagonalize H0 matrix
Newton-Raphson for FON opt:  Yes
NR max. Iterations:                      50
Level Shifting:              Yes
Shift Value:                     0.300000
W Scale Factor:              C  =    3.000000
                             N  =    3.000000
                             H  =    3.000000
Transition Dipole:           No
Gradient of Microstate:      No
CP-REKS Solver:              Preconditioned Conjugate-Gradient
CG max. Iterations:                     100
CG Tolerance:                  0.100000E-07
Memory for A and Hxc:        Direct Updating Without Saving
Non-Adiabatic Coupling:      Yes

--------------------------------------------------------------------------------

***  Geometry step: 0

  iSCC       reks energy        Diff energy         x_a       SCC error   
    1       -6.2675694379       0.0000000000     0.999855    1.19590950
    2       -6.2764403297      -0.0088708919     0.999925    0.06207804
    3       -6.2795165563      -0.0030762266     0.999952    0.02346246
    4       -6.2810042891      -0.0014877328     0.999964    0.01092701
    5       -6.2817581189      -0.0007538297     0.999970    0.00800958
    6       -6.2821425632      -0.0003844443     0.999973    0.00645217
    7       -6.2823382283      -0.0001956652     0.999975    0.00496704
    8       -6.2824375025      -0.0000992741     0.999976    0.00371741
    9       -6.2824877562      -0.0000502537     0.999976    0.00273262
   10       -6.2825131689      -0.0000254127     0.999976    0.00198559
   11       -6.2825260225      -0.0000128536     0.999977    0.00143201
   12       -6.2825325326      -0.0000065101     0.999977    0.00102782
   13       -6.2825358379      -0.0000033053     0.999977    0.00073550
   14       -6.2825375219      -0.0000016840     0.999977    0.00052538
   15       -6.2825383837      -0.0000008619     0.999977    0.00037495
   16       -6.2825388273      -0.0000004435     0.999977    0.00026751
   17       -6.2825390570      -0.0000002298     0.999977    0.00019090
   18       -6.2825391770      -0.0000001199     0.999977    0.00013630
   19       -6.2825392401      -0.0000000631     0.999977    0.00009741
   20       -6.2825392736      -0.0000000335     0.999977    0.00006969
   21       -6.2825392916      -0.0000000180     0.999977    0.00004993
   22       -6.2825393014      -0.0000000098     0.999977    0.00003582
   23       -6.2825393067      -0.0000000054     0.999977    0.00002575
   24       -6.2825393097      -0.0000000030     0.999977    0.00001854
   25       -6.2825393114      -0.0000000017     0.999977    0.00001467
   26       -6.2825393123      -0.0000000009     0.999977    0.00001183
   27       -6.2825393129      -0.0000000005     0.999977    0.00000950
   28       -6.2825393132      -0.0000000003     0.999977    0.00000761
   29       -6.2825393134      -0.0000000002     0.999977    0.00000608
   30       -6.2825393135      -0.0000000001     0.999977    0.00000485
   31       -6.2825393135      -0.0000000001     0.999977    0.00000386
   32       -6.2825393136      -0.0000000000     0.999977    0.00000307
   33       -6.2825393136      -0.0000000000     0.999977    0.00000243
   34       -6.2825393136      -0.0000000000     0.999977    0.00000193
   35       -6.2825393136      -0.0000000000     0.999977    0.00000153
   36       -6.2825393136      -0.0000000000     0.999977    0.00000121
   37       -6.2825393136      -0.0000000000     0.999977    0.00000095
  
--------------------------------------------------
 Final SA-REKS(2,2) energy:      -6.28253931
  
 State     Energy      FON(1)    FON(2)   Spin
  PPS   -6.41374695   1.999954  0.000046  0.00
  OSS   -6.15133168   1.000000  1.000000  0.00
 Trip   -6.22843441   1.000000  1.000000  1.00
--------------------------------------------------

 Lagrangian Wab:   0.00141723  0.00141715

--------------------------------------------------
 SSR: 2SI-2SA-REKS(2,2) Hamiltonian matrix
               PPS           OSS
   PPS    -6.41374695    0.00199461
   OSS     0.00199461   -6.15133168
--------------------------------------------------

----------------------------------------------------------------
 SSR: 2SI-2SA-REKS(2,2) states
                    E_n       C_{PPS}    C_{OSS}
 SSR state  1   -6.41376211  -0.999971   0.007600
 SSR state  2   -6.15131652  -0.007600  -0.999971
----------------------------------------------------------------

 unrelaxed SSR FONs for S0:  1.999896  0.000104

Total Energy:                       -6.4137621079 H         -174.5273 eV
Extrapolated to 0:                  -6.4137621079 H         -174.5273 eV

----------------------------------------------------------------------------------
 Solving CP-REKS equation for  1 state vector...
----------------------------------------------------------------------------------
  CG solver: Constructing Y initial guess
  CG solver: Iteration    1    eps =    0.000030092344
  CG solver: Iteration    2    eps =    0.000002395252
  CG solver: Iteration    3    eps =    0.000000249075
  CG solver: Iteration    4    eps =    0.000000006601
  Convergence reached in CG solver after    4 iterations
  CG solver: Calculating converged R, Z, Q2 matrix
----------------------------------------------------------------------------------

----------------------------------------------------------------------------------
 Solving CP-REKS equation for SI between  1 and  2 state vectors...
----------------------------------------------------------------------------------
  CG solver: Constructing Y initial guess
  CG solver: Iteration    1    eps =    0.000433869885
  CG solver: Iteration    2    eps =    0.000150503123
  CG solver: Iteration    3    eps =    0.000051177406
  CG solver: Iteration    4    eps =    0.000001070251
  CG solver: Iteration    5    eps =    0.000000118142
  CG solver: Iteration    6    eps =    0.000000007764
  Convergence reached in CG solver after    6 iterations
  CG solver: Calculating converged R, Z, Q2 matrix
----------------------------------------------------------------------------------

--------------------------------------------------
 Gradient Information
--------------------------------------------------
           1 st state (SSR)
     0.00565085    -0.01432719     0.03438966
    -0.02577135    -0.00217338    -0.04337110
     0.00347030     0.00136563     0.00712953
     0.01265899     0.00560018     0.00366369
     0.00711791     0.00592250     0.00484665
    -0.00312670     0.00361227    -0.00665842

           2 st state (SSR)
    -0.00784398    -0.00057495     0.14496078
     0.01374503     0.00177277    -0.17202378
    -0.00393131    -0.01907277     0.02242803
    -0.00726062     0.01144561    -0.00523422
    -0.00140579    -0.00273817    -0.00391435
     0.00669667     0.00916751     0.01378354
--------------------------------------------------
 Coupling Information
--------------------------------------------------
 between  1 and  2 states
--------------------------------------------------
 g vector - difference gradient
     0.00673123    -0.00681268    -0.05529351
    -0.01980719    -0.00207768     0.06433539
     0.00380924     0.01019064    -0.00765671
     0.01007099    -0.00289510     0.00443460
     0.00418314     0.00437795     0.00440084
    -0.00498741    -0.00278313    -0.01022061

 h vector - derivative coupling
    -0.00111570     0.00422545    -0.00010235
    -0.00307345    -0.00686592     0.00010625
     0.00710493    -0.00195650    -0.00043231
     0.00723832     0.00183874    -0.00097817
    -0.00521001     0.00309928     0.00130452
    -0.00494409    -0.00034105     0.00010207

 G vector - GDV
     0.00674742    -0.00687612    -0.05528556
    -0.01975819    -0.00197307     0.06432634
     0.00370081     0.01021920    -0.00764925
     0.00995980    -0.00292272     0.00444896
     0.00426185     0.00433033     0.00438050
    -0.00491168    -0.00277762    -0.01022098

 H vector - DCV - non-adiabatic coupling
    -0.00386083     0.01570384    -0.00359238
    -0.01285665    -0.02627862     0.00413092
     0.02728952    -0.00686379    -0.00209052
     0.02816037     0.00683768    -0.00346988
    -0.01960719     0.01206143     0.00522494
    -0.01912521    -0.00146055    -0.00020308
--------------------------------------------------


--------------------------------------------------------------------------------
DFTB+ running times                          cpu [s]             wall clock [s]
--------------------------------------------------------------------------------
SCC                                    +     0.02  ( 63.0%)      0.02  ( 59.4%)
Post-SCC processing                    +     0.01  ( 32.1%)      0.01  ( 31.2%)
--------------------------------------------------------------------------------
Missing                                +     0.00  (  4.9%)      0.00  (  9.4%)
Total                                  =     0.03  (100.0%)      0.03  (100.0%)
--------------------------------------------------------------------------------
