    14
  Step:   600            Position(A)                                  Velocity(au)
C        -4.84208764    -0.50999303    -0.84918208    -0.00032627    -0.00032386    -0.00008919
C        -4.42172409    -0.51428861     0.39187954    -0.00002674     0.00016441    -0.00039343
H        -5.23202078     0.40196464    -1.21519720    -0.00123816     0.00033082    -0.00112737
H        -4.70632002    -1.34287745    -1.47607093     0.00020341     0.00021468     0.00028342
H        -4.07545810    -1.48377066     0.92487445     0.00083372     0.00187238    -0.00012990
C        -4.26496894     0.91829080     0.87204688     0.00072305    -0.00048442     0.00031328
C        -3.11941430     1.38379698     0.29384461     0.00021189     0.00041729    -0.00022917
H        -4.88927892     1.65362735     1.39346302     0.00079368     0.00035520    -0.00011298
H        -2.99974065     2.45530063    -0.01435728    -0.00102552     0.00044044    -0.00062350
C        -2.01162747     0.93116246    -0.50936124    -0.00001469     0.00022125     0.00007124
H        -1.95754895     0.50326122    -1.50623415    -0.00334366    -0.00190720     0.00209091
N        -0.93362585     0.86631279     0.26169177    -0.00032603    -0.00024754     0.00014325
H        -0.07206698     0.78101023    -0.26092445     0.00154177     0.00001621     0.00129777
H        -0.71543188     1.31164474     1.15743509     0.00000627     0.00218095     0.00023056
