    14
  Step:     0            Position(A)                                  Velocity(au)
C        -5.98128623    -0.70648975    -0.15474488     0.00017085     0.00015958    -0.00006998
C        -4.70330750    -0.78368621     0.15512358     0.00007172     0.00005047    -0.00000812
H        -6.36290442     0.29419004    -0.47987798    -0.00071702     0.00020614     0.00039951
H        -6.70031693    -1.52932044    -0.25013338    -0.00074381    -0.00088024     0.00017833
H        -4.14627304    -1.65995243     0.57833333     0.00038646    -0.00058350    -0.00009959
C        -3.88558483     0.41113234    -0.00973767    -0.00010766    -0.00014395     0.00014174
C        -2.52348860     0.49628543     0.23411617     0.00010584     0.00018919     0.00010735
H        -4.43379473     1.35178960    -0.34736920     0.00007275    -0.00071431    -0.00029657
H        -2.09054741    -0.47279834     0.58887001    -0.00033142     0.00138472    -0.00111013
C        -1.88837302     1.70076316    -0.00237367     0.00006523    -0.00010392    -0.00021005
H        -2.46036561     2.54500881    -0.41068030    -0.00017154     0.00032625    -0.00054123
N        -0.53563806     1.80449444     0.15650255    -0.00018480    -0.00001128     0.00023059
H        -0.09622359     2.71240633    -0.00031553     0.00031773    -0.00029457    -0.00030796
H        -0.04845317     1.00145801     0.51019849     0.00010882    -0.00109147    -0.00096132
    14
  Step:     1            Position(A)                                  Velocity(au)
C        -5.97994179    -0.70467164    -0.15569775     0.00007189     0.00016968    -0.00010413
C        -4.70190864    -0.78307841     0.15520286     0.00018414     0.00005924     0.00002286
H        -6.37069010     0.29550400    -0.47513275    -0.00070026     0.00003136     0.00046759
H        -6.70805810    -1.53892994    -0.24781282    -0.00063959    -0.00084050     0.00024807
H        -4.14306508    -1.66592942     0.57662054     0.00019198    -0.00049575    -0.00021872
C        -3.88731796     0.40955232    -0.00827932    -0.00020810    -0.00014533     0.00012509
C        -2.52211375     0.49820720     0.23537267     0.00014345     0.00016575     0.00012059
H        -4.43222428     1.34261399    -0.35029049     0.00020602    -0.00094772    -0.00024084
H        -2.09357658    -0.45626899     0.57645900    -0.00019749     0.00158630    -0.00113710
C        -1.88757126     1.69964801    -0.00468383     0.00007964    -0.00009828    -0.00021309
H        -2.46176089     2.54841058    -0.41627137    -0.00007355     0.00028087    -0.00047266
N        -0.53768633     1.80447352     0.15899483    -0.00018751     0.00000522     0.00022614
H        -0.09245580     2.70861865    -0.00350127     0.00036969    -0.00039753    -0.00027550
H        -0.04655823     0.98936200     0.49990784     0.00021943    -0.00108950    -0.00093350
    14
  Step:     2            Position(A)                                  Velocity(au)
C        -5.97971352    -0.70277773    -0.15702302    -0.00003078     0.00017349    -0.00013735
C        -4.69927911    -0.78239031     0.15562377     0.00029448     0.00006570     0.00005360
H        -6.37822401     0.29487601    -0.46964856    -0.00067387    -0.00014271     0.00053211
H        -6.71430924    -1.54770799    -0.24470632    -0.00047908    -0.00073610     0.00032067
H        -4.14207319    -1.67079787     0.57354845    -0.00001301    -0.00038693    -0.00034470
C        -3.89013750     0.40795298    -0.00700098    -0.00030526    -0.00014819     0.00010925
C        -2.52035025     0.49991155     0.23675436     0.00017640     0.00015067     0.00012989
H        -4.42928767     1.33105636    -0.35263804     0.00031716    -0.00114177    -0.00019487
H        -2.09486783    -0.43809496     0.56399377    -0.00001012     0.00167473    -0.00111734
C        -1.88663068     1.69861301    -0.00703540     0.00009078    -0.00008985    -0.00021741
H        -2.46197465     2.55115341    -0.42102054     0.00004141     0.00020988    -0.00038933
N        -0.53974025     1.80460863     0.16144990    -0.00018587     0.00001683     0.00022380
H        -0.08813583     2.70370965    -0.00634264     0.00041987    -0.00049525    -0.00024597
H        -0.04365269     0.97762320     0.48977650     0.00029200    -0.00102478    -0.00093154
    14
  Step:     3            Position(A)                                  Velocity(au)
C        -5.98061518    -0.70087618    -0.15870263    -0.00013240     0.00017117    -0.00016827
C        -4.69546640    -0.78164102     0.15637547     0.00039841     0.00007100     0.00008265
H        -6.38543229     0.29238200    -0.46349189    -0.00064377    -0.00030363     0.00058834
H        -6.71853894    -1.55503365    -0.24079764    -0.00027803    -0.00058318     0.00039334
H        -4.14334961    -1.67439425     0.56907959    -0.00021710    -0.00026932    -0.00047061
C        -3.89399601     0.40631036    -0.00588920    -0.00039705    -0.00015398     0.00009506
C        -2.51825464     0.50150331     0.23821416     0.00020378     0.00014594     0.00013469
H        -4.42528572     1.31763560    -0.35455370     0.00039557    -0.00128054    -0.00016524
H        -2.09379792    -0.41963104     0.55201512     0.00023587     0.00163307    -0.00104732
C        -1.88558520     1.69768241    -0.00944010     0.00009911    -0.00007972    -0.00022256
H        -2.46085491     2.55300204    -0.42478860     0.00016684     0.00012202    -0.00029559
N        -0.54175263     1.80484163     0.16389094    -0.00018015     0.00002304     0.00022346
H        -0.08327034     2.69778406    -0.00888230     0.00047040    -0.00057978    -0.00022119
H        -0.04017010     0.96694288     0.47952863     0.00032577    -0.00089871    -0.00095246
    14
  Step:     4            Position(A)                                  Velocity(au)
C        -5.98261001    -0.69903311    -0.16070424    -0.00022868     0.00016292    -0.00019569
C        -4.69056308    -0.78083705     0.15743197     0.00049215     0.00007627     0.00010872
H        -6.39230767     0.28823351    -0.45677747    -0.00061605    -0.00043925     0.00063227
H        -6.72039157    -1.56046614    -0.23610131    -0.00005240    -0.00039820     0.00046334
H        -4.14682270    -1.67668984     0.56325292    -0.00040914    -0.00015529    -0.00058946
C        -3.89882373     0.40458447    -0.00492134    -0.00048143    -0.00016409     0.00008335
C        -2.51589211     0.50310419     0.23970089     0.00022500     0.00015229     0.00013489
H        -4.42063378     1.30304220    -0.35625301     0.00043127    -0.00134909    -0.00015859
H        -2.08970763    -0.40236841     0.54108153     0.00054019     0.00145710    -0.00092841
C        -1.88446239     1.69686890    -0.01190433     0.00010532    -0.00006885    -0.00022805
H        -2.45832472     2.55382288    -0.42748709     0.00029574     0.00002687    -0.00019623
N        -0.54368140     1.80511269     0.16633849    -0.00017096     0.00002401     0.00022477
H        -0.07784485     2.69102579    -0.01118164     0.00052287    -0.00064495    -0.00020267
H        -0.03652579     0.95796214     0.46893958     0.00032435    -0.00072003    -0.00099052
    14
  Step:     5            Position(A)                                  Velocity(au)
C        -5.98561793    -0.69731191    -0.16298372    -0.00031608     0.00014906    -0.00021868
C        -4.68469959    -0.77997252     0.15875396     0.00057265     0.00008260     0.00013071
H        -6.39890949     0.28277262    -0.44965978    -0.00059668    -0.00053812     0.00066076
H        -6.71968520    -1.56374503    -0.23066116     0.00018221    -0.00019753     0.00052809
H        -4.15230032    -1.67779150     0.55618408    -0.00057843    -0.00005721    -0.00069425
C        -3.90452821     0.40272051    -0.00406578    -0.00055632    -0.00017970     0.00007488
C        -2.51333240     0.50483498     0.24116511     0.00023986     0.00016855     0.00013096
H        -4.41585092     1.28812177    -0.35802320     0.00041607    -0.00133525    -0.00018090
H        -2.08198032    -0.38775409     0.53170448     0.00089387     0.00116177    -0.00076844
C        -1.88328113     1.69617620    -0.01442924     0.00011030    -0.00005787    -0.00023343
H        -2.45438511     2.55358997    -0.42908151     0.00042097    -0.00006569    -0.00009625
N        -0.54549275     1.80536688     0.16880829    -0.00015912     0.00002042     0.00022725
H        -0.07183165     2.68367460    -0.01331620     0.00057789    -0.00068697    -0.00019143
H        -0.03307424     0.95119078     0.45785904     0.00029459    -0.00050289    -0.00103849
    14
  Step:     6            Position(A)                                  Velocity(au)
C        -5.98952485    -0.69577208    -0.16548829    -0.00039195     0.00013005    -0.00023662
C        -4.67803537    -0.77903003     0.16029147     0.00063767     0.00009093     0.00014778
H        -6.40536129     0.27646102    -0.44232212    -0.00059117    -0.00059042     0.00067172
H        -6.71640542    -1.56478751    -0.22454839     0.00041065     0.00000259     0.00058529
H        -4.15947701    -1.67794132     0.54806492    -0.00071525     0.00001283    -0.00077829
C        -3.91099419     0.40065328    -0.00328324    -0.00061967    -0.00020134     0.00007023
C        -2.51064461     0.50679153     0.24256588     0.00024870     0.00019134     0.00012396
H        -4.41153156     1.27383111    -0.36021059     0.00034532    -0.00123242    -0.00023618
H        -2.07015245    -0.37695247     0.52427047     0.00127747     0.00078377    -0.00058196
C        -1.88204944     1.69560281    -0.01701099     0.00011511    -0.00004710    -0.00023826
H        -2.44911525     2.55238578    -0.42959279     0.00053548    -0.00014589    -0.00000069
N        -0.54716244     1.80555952     0.17130995    -0.00014550     0.00001341     0.00023030
H        -0.06520237     2.67599705    -0.01536950     0.00063485    -0.00070484    -0.00018783
H        -0.03008108     0.94696046     0.44622066     0.00024536    -0.00026479    -0.00108871
    14
  Step:     7            Position(A)                                  Velocity(au)
C        -5.99419261    -0.69446671    -0.16816020    -0.00045450     0.00010668    -0.00024922
C        -4.67074933    -0.77798329     0.16198696     0.00068580     0.00010187     0.00015940
H        -6.41184242     0.26985612    -0.43496465    -0.00060381    -0.00058922     0.00066432
H        -6.71070137    -1.56368840    -0.21785687     0.00061812     0.00018573     0.00063313
H        -4.16794771    -1.67751087     0.53915755    -0.00081137     0.00004362    -0.00083567
C        -3.91808461     0.39831581    -0.00252936    -0.00066966    -0.00022858     0.00006967
C        -2.50789155     0.50902100     0.24387690     0.00025231     0.00021556     0.00011536
H        -4.40829643     1.26116016    -0.36319009     0.00021992    -0.00104300    -0.00032479
H        -2.05403312    -0.37060761     0.51897303     0.00166214     0.00037711    -0.00038808
C        -1.88076296     1.69514571    -0.01964155     0.00012087    -0.00003656    -0.00024220
H        -2.44267048     2.55039831    -0.42909653     0.00063260    -0.00020444     0.00008560
N        -0.54867581     1.80566022     0.17384655    -0.00013092     0.00000441     0.00023334
H        -0.05794320     2.66825491    -0.01742544     0.00069170    -0.00070034    -0.00019158
H        -0.02770654     0.94539792     0.43404145     0.00018671    -0.00002501    -0.00113388
    14
  Step:     8            Position(A)                                  Velocity(au)
C        -5.99946790    -0.69343831    -0.17094036    -0.00050269     0.00008015    -0.00025651
C        -4.66303217    -0.77680140     0.16377856     0.00071628     0.00011555     0.00016533
H        -6.41857077     0.26357060    -0.42778880    -0.00063703    -0.00053200     0.00063921
H        -6.70288279    -1.56072433    -0.21069740     0.00079015     0.00033511     0.00067041
H        -4.17722721    -1.67698697     0.52978309    -0.00086091     0.00002623    -0.00086196
C        -3.92564426     0.39565264    -0.00175911    -0.00070493    -0.00025967     0.00007298
C        -2.50512492     0.51150732     0.24508955     0.00025179     0.00023548     0.00010672
H        -4.40672035     1.25101359    -0.36731606     0.00004778    -0.00078101    -0.00044200
H        -2.03378989    -0.36870248     0.51578055     0.00201440     0.00000143    -0.00020646
C        -1.87940528     1.69480299    -0.02230968     0.00012852    -0.00002613    -0.00024502
H        -2.43527595     2.54791321    -0.42772011     0.00070645    -0.00023311     0.00015820
N        -0.55002649     1.80565598     0.17641466    -0.00011601    -0.00000491     0.00023580
H        -0.05007003     2.66067586    -0.01956059     0.00074519    -0.00067760    -0.00020168
H        -0.02599642     0.94641324     0.42141491     0.00012920     0.00019672    -0.00116759
    14
  Step:     9            Position(A)                                  Velocity(au)
C        -6.00518994    -0.69271337    -0.17377187    -0.00053614     0.00005218    -0.00025884
C        -4.65507943    -0.77545531     0.16560394     0.00072891     0.00013141     0.00016573
H        -6.42577862     0.25821756    -0.42098068    -0.00069074    -0.00042184     0.00059852
H        -6.69341543    -1.55635712    -0.20319039     0.00091298     0.00043404     0.00069669
H        -4.18678172    -1.67693705     0.52030056    -0.00086138    -0.00004409    -0.00085508
C        -3.93350637     0.39263501    -0.00093280    -0.00072482    -0.00029151     0.00007938
C        -2.50238310     0.51417260     0.24621149     0.00024832     0.00024618     0.00009929
H        -4.40725115     1.24407400    -0.37285974    -0.00015619    -0.00047250    -0.00057734
H        -2.00996429    -0.37057623     0.51445641     0.00230307    -0.00029203    -0.00005300
C        -1.87795124     1.69457416    -0.02500185     0.00013872    -0.00001570    -0.00024654
H        -2.42721547     2.54529867    -0.42563565     0.00075244    -0.00022542     0.00021354
N        -0.55121384     1.80555289     0.17900509    -0.00010121    -0.00001279     0.00023720
H        -0.04164078     2.65343102    -0.02183749     0.00079109    -0.00064240    -0.00021662
H        -0.02488015     0.94970153     0.40849825     0.00008315     0.00038151    -0.00118473
    14
  Step:    10            Position(A)                                  Velocity(au)
C        -6.01119697    -0.69229677    -0.17660305    -0.00055501     0.00002497    -0.00025680
C        -4.64708593    -0.77392650     0.16740411     0.00072397     0.00014804     0.00016105
H        -6.43368196     0.25434215    -0.41469506    -0.00076192    -0.00026823     0.00054577
H        -6.68290960    -1.55122884    -0.19545599     0.00097447     0.00046687     0.00071245
H        -4.19607160    -1.67795158     0.51107647    -0.00081448    -0.00016590    -0.00081601
C        -3.94150109     0.38927523    -0.00002244    -0.00072937    -0.00031994     0.00008760
C        -2.49969252     0.51689300     0.24726177     0.00024277     0.00024456     0.00009383
H        -4.41013721     1.24067684    -0.37994655    -0.00037196    -0.00015239    -0.00071557
H        -1.98340584    -0.37509120     0.51462114     0.00250555    -0.00047101     0.00006292
C        -1.87637048     1.69445962    -0.02770318     0.00015172    -0.00000523    -0.00024668
H        -2.41881491     2.54298180    -0.42304855     0.00076776    -0.00017752     0.00024934
N        -0.55224060     1.80537615     0.18160390    -0.00008670    -0.00001759     0.00023718
H        -0.03276343     2.64662202    -0.02429950     0.00082478    -0.00060113    -0.00023454
H        -0.02417744     0.95475956     0.39549661     0.00005786     0.00051277    -0.00118181
    14
  Step:    11            Position(A)                                  Velocity(au)
C        -6.01733190    -0.69216708    -0.17938987    -0.00055998     0.00000095    -0.00025114
C        -4.63924124    -0.77221665     0.16912728     0.00070207     0.00016314     0.00015213
H        -6.44244700     0.25234946    -0.40904082    -0.00084470    -0.00008671     0.00048561
H        -6.67209713    -1.54614346    -0.18760426     0.00096573     0.00042120     0.00071902
H        -4.20460010    -1.68056639     0.50244882    -0.00072636    -0.00033004    -0.00074902
C        -3.94946281     0.38563569     0.00098352    -0.00071916    -0.00034032     0.00009603
C        -2.49707203     0.51952279     0.24826424     0.00023565     0.00022967     0.00009051
H        -4.41538856     1.24074007    -0.38851423    -0.00057813     0.00014169    -0.00083929
H        -1.95515068    -0.38088056     0.51583280     0.00261069    -0.00052515     0.00013874
C        -1.87463209     1.69445977    -0.03039854     0.00016736     0.00000526    -0.00024548
H        -2.41041919     2.54141500    -0.42018081     0.00075194    -0.00008902     0.00026501
N        -0.55311060     1.80516800     0.18419388    -0.00007249    -0.00001796     0.00023552
H        -0.02359706     2.64028008    -0.02696845     0.00084189    -0.00055975    -0.00025350
H        -0.02361444     0.96091938     0.38264390     0.00006053     0.00057798    -0.00115718
    14
  Step:    12            Position(A)                                  Velocity(au)
C        -6.02344771    -0.69227602    -0.18209725    -0.00055225    -0.00001765    -0.00024269
C        -4.63172686    -0.77035761     0.17073218     0.00066406     0.00017363     0.00014001
H        -6.45216148     0.25244517    -0.40407151    -0.00093114     0.00010303     0.00042311
H        -6.66178243    -1.54201432    -0.17972610     0.00088346     0.00029105     0.00071843
H        -4.21196211    -1.68517180     0.49469014    -0.00060705    -0.00051959    -0.00066142
C        -3.95723413     0.38183011     0.00207838    -0.00069500    -0.00034831     0.00010310
C        -2.49453731     0.52191738     0.24924186     0.00022710     0.00020240     0.00008907
H        -4.42278501     1.24377655    -0.39830770    -0.00075597     0.00037693    -0.00093242
H        -1.92629205    -0.38657997     0.51765645     0.00261809    -0.00046216     0.00017724
C        -1.87270918     1.69457471    -0.03307357     0.00018505     0.00001577    -0.00024306
H        -2.40236484     2.54103440    -0.41725089     0.00070719     0.00003639     0.00026192
N        -0.55382638     1.80498326     0.18675626    -0.00005832    -0.00001306     0.00023216
H        -0.01434546     2.63437634    -0.02984535     0.00083896    -0.00052288    -0.00027176
H        -0.02285330     0.96740402     0.37018102     0.00009496     0.00057085    -0.00111128
    14
  Step:    13            Position(A)                                  Velocity(au)
C        -6.02941336    -0.69255328    -0.18469923    -0.00053355    -0.00002934    -0.00023223
C        -4.62471358    -0.76841810     0.17219019     0.00061099     0.00017609     0.00012586
H        -6.46281744     0.25460354    -0.39978438    -0.00101234     0.00027999     0.00036314
H        -6.65276986    -1.53977620    -0.17188725     0.00073216     0.00008038     0.00071299
H        -4.21788056    -1.69193344     0.48797893    -0.00046894    -0.00071193    -0.00056236
C        -3.96466719     0.37801572     0.00323909    -0.00065773    -0.00034058     0.00010753
C        -2.49210386     0.52395070     0.25021282     0.00021710     0.00016491     0.00008899
H        -4.43192686     1.24898622    -0.40891270    -0.00089238     0.00053101    -0.00098313
H        -1.89787490    -0.39099119     0.51971035     0.00253515    -0.00030101     0.00018423
C        -1.87058368     1.69480471    -0.03571604     0.00020385     0.00002638    -0.00023968
H        -2.39494814     2.54221115    -0.41445086     0.00063855     0.00019054     0.00024346
N        -0.55438655     1.80488228     0.18927283    -0.00004374    -0.00000278     0.00022725
H        -0.00524311     2.62884102    -0.03291378     0.00081402    -0.00049318    -0.00028799
H        -0.02153701     0.97340776     0.35833244     0.00016027     0.00049317    -0.00104660
    14
  Step:    14            Position(A)                                  Velocity(au)
C        -6.03512011    -0.69291787    -0.18717780    -0.00050621    -0.00003383    -0.00022040
C        -4.61836022    -0.76650531     0.17348567     0.00054404     0.00016726     0.00011081
H        -6.47430830     0.25857058    -0.39612705    -0.00107985     0.00042500     0.00030963
H        -6.64576496    -1.54025587    -0.16412800     0.00052546    -0.00019445     0.00070471
H        -4.22222097    -1.70074660     0.48238737    -0.00032468    -0.00088245    -0.00046130
C        -3.97162326     0.37437925     0.00443080    -0.00060822    -0.00031524     0.00010849
C        -2.48978774     0.52552501     0.25118873     0.00020567     0.00011994     0.00008966
H        -4.44230764     1.25539352    -0.41981560    -0.00098094     0.00059437    -0.00098540
H        -1.87083089    -0.39316514     0.52168687     0.00237355    -0.00006541     0.00016663
C        -1.86824959     1.69515184    -0.03831698     0.00022253     0.00003733    -0.00023565
H        -2.38839541     2.54520293    -0.41192479     0.00055347     0.00036134     0.00021473
N        -0.55478331     1.80492237     0.19172785    -0.00002804     0.00001219     0.00022109
H         0.00346274     2.62358717    -0.03614563     0.00076684    -0.00047109    -0.00030142
H        -0.01934700     0.97819312     0.34728469     0.00025021     0.00035570    -0.00096731
    14
  Step:    15            Position(A)                                  Velocity(au)
C        -6.04048767    -0.69329340    -0.18952084    -0.00047301    -0.00003226    -0.00020760
C        -4.61281162    -0.76475891     0.17461446     0.00046460     0.00014475     0.00009577
H        -6.48644116     0.26390130    -0.39301060    -0.00112683     0.00052340     0.00026519
H        -6.64127445    -1.54403022    -0.15647046     0.00028510    -0.00050502     0.00069460
H        -4.22498357    -1.71123868     0.47788717    -0.00018540    -0.00100895    -0.00036644
C        -3.97797322     0.37111922     0.00561258    -0.00054743    -0.00027204     0.00010569
C        -2.48760450     0.52657469     0.25217426     0.00019289     0.00007046     0.00009045
H        -4.45338689     1.26198911    -0.43047018    -0.00102111     0.00056908    -0.00093885
H        -1.84594891    -0.39242218     0.52335577     0.00214673     0.00022053     0.00013129
C        -1.86571544     1.69562134    -0.04087141     0.00023974     0.00004894    -0.00023136
H        -2.38284001     2.55011614    -0.40975317     0.00046094     0.00053406     0.00018185
N        -0.55499995     1.80514894     0.19410965    -0.00001034     0.00003043     0.00021409
H         0.01153288     2.61853509    -0.03950801     0.00069907    -0.00045499    -0.00031194
H        -0.01606320     0.98118940     0.33717063     0.00035341     0.00017741    -0.00087865
    14
  Step:    16            Position(A)                                  Velocity(au)
C        -6.04546808    -0.69362359    -0.19171935    -0.00043692    -0.00002696    -0.00019400
C        -4.60819626    -0.76333858     0.17558086     0.00037430     0.00010752     0.00008134
H        -6.49895987     0.27002099    -0.39032548    -0.00114880     0.00056656     0.00023100
H        -6.63952781    -1.55130410    -0.14893219     0.00003769    -0.00081471     0.00068237
H        -4.22627702    -1.72281929     0.47437087    -0.00005941    -0.00107530    -0.00028368
C        -3.98359940     0.36842792     0.00674306    -0.00047657    -0.00021228     0.00009930
C        -2.48556798     0.52706641     0.25316750     0.00017896     0.00001933     0.00009079
H        -4.46464628     1.26784323    -0.44035474    -0.00101651     0.00046578    -0.00084754
H        -1.82386696    -0.38834063     0.52455907     0.00186846     0.00053423     0.00008451
C        -1.86300482     1.69622248    -0.04337850     0.00025415     0.00006156    -0.00022715
H        -2.37831142     2.55688645    -0.40794653     0.00037034     0.00069328     0.00015100
N        -0.55500946     1.80558811     0.19641149     0.00001030     0.00004999     0.00020670
H         0.01875628     2.61363332    -0.04296995     0.00061410    -0.00044161    -0.00031999
H        -0.01161545     0.98207423     0.32806263     0.00045496    -0.00001710    -0.00078596
    14
  Step:    17            Position(A)                                  Velocity(au)
C        -6.05004604    -0.69388316    -0.19376492    -0.00040071    -0.00002089    -0.00017957
C        -4.60462300    -0.76240674     0.17639390     0.00027512     0.00005616     0.00006777
H        -6.51157331     0.27629584    -0.38795700    -0.00114378     0.00055204     0.00020698
H        -6.64044982    -1.56185359    -0.14154221    -0.00019040    -0.00108571     0.00066642
H        -4.22628334    -1.73476300     0.47168122     0.00004820    -0.00107346    -0.00021620
C        -3.98839906     0.36647508     0.00778495    -0.00039722    -0.00013868     0.00008984
C        -2.48368946     0.52699756     0.25416050     0.00016412    -0.00003073     0.00009015
H        -4.47562490     1.27217888    -0.44901172    -0.00097312     0.00030004    -0.00071831
H        -1.80507269    -0.38073479     0.52520458     0.00155242     0.00085504     0.00003208
C        -1.86015534     1.69696812    -0.04584086     0.00026464     0.00007546    -0.00022328
H        -2.37473815     2.56528293    -0.40644979     0.00029012     0.00082496     0.00012757
N        -0.55477469     1.80624249     0.19863157     0.00003466     0.00006870     0.00019933
H         0.02496738     2.60887393    -0.04650840     0.00051663    -0.00042662    -0.00032648
H        -0.00611014     0.98081525     0.31997615     0.00053895    -0.00020167    -0.00069390
    14
  Step:    18            Position(A)                                  Velocity(au)
C        -6.05423431    -0.69408068    -0.19564774    -0.00036659    -0.00001695    -0.00016415
C        -4.60217749    -0.76210994     0.17706346     0.00016934    -0.00000710     0.00005500
H        -6.52398219     0.28209787    -0.38579750    -0.00111203     0.00048267     0.00019211
H        -6.64369321    -1.57505618    -0.13435303    -0.00037800    -0.00128643     0.00064444
H        -4.22522260    -1.74630322     0.46964116     0.00013520    -0.00100340    -0.00016469
C        -3.99228938     0.36539396     0.00870840    -0.00031141    -0.00005506     0.00007809
C        -2.48197755     0.52639414     0.25513964     0.00014857    -0.00007721     0.00008802
H        -4.48593512     1.27440716    -0.45606917    -0.00089790     0.00008961    -0.00055948
H        -1.78990483    -0.36963492     0.52526098     0.00121229     0.00116385    -0.00002060
C        -1.85721534     1.69787335    -0.04826316     0.00027040     0.00009074    -0.00021985
H        -2.37196450     2.57493403    -0.40515580     0.00022683     0.00091821     0.00011539
N        -0.55425116     1.80709102     0.20077214     0.00006322     0.00008458     0.00019228
H         0.03005860     2.60430017    -0.05011226     0.00041228    -0.00040530    -0.00033258
H         0.00017511     0.97766241     0.31288226     0.00059148    -0.00035301    -0.00060572
    14
  Step:    19            Position(A)                                  Velocity(au)
C        -6.05806588    -0.69425395    -0.19735598    -0.00033600    -0.00001739    -0.00014755
C        -4.60091845    -0.76256197     0.17759702     0.00005954    -0.00007869     0.00004270
H        -6.53590108     0.28685514    -0.38375422    -0.00105560     0.00036526     0.00018480
H        -6.64871939    -1.58999680    -0.12744379    -0.00051204    -0.00139659     0.00061418
H        -4.22332552    -1.75671440     0.46807834     0.00020149    -0.00087168    -0.00012799
C        -3.99521174     0.36527052     0.00949341    -0.00022149     0.00003393     0.00006503
C        -2.48043919     0.52530835     0.25608618     0.00013237    -0.00011783     0.00008395
H        -4.49526810     1.27413929    -0.46125146    -0.00079812    -0.00014721    -0.00037996
H        -1.77855156    -0.35527326     0.52475384     0.00086224     0.00144246    -0.00006825
C        -1.85423972     1.69895314    -0.05065048     0.00027107     0.00010725    -0.00021682
H        -2.36977583     2.58537060    -0.40392540     0.00018452     0.00096645     0.00011644
N        -0.55339158     1.80809276     0.20283815     0.00009597     0.00009610     0.00018575
H         0.03398684     2.60000714    -0.05378427     0.00030692    -0.00037320    -0.00033958
H         0.00682961     0.97309252     0.30672490     0.00060312    -0.00045435    -0.00052313
    14
  Step:    20            Position(A)                                  Velocity(au)
C        -6.06158492    -0.69446109    -0.19887572    -0.00030956    -0.00002361    -0.00012963
C        -4.60087493    -0.76383136     0.17799758    -0.00005151    -0.00015415     0.00003041
H        -6.54707548     0.29008854    -0.38175474    -0.00097789     0.00020933     0.00018309
H        -6.65489509    -1.60560934    -0.12091676    -0.00058805    -0.00140883     0.00057400
H        -4.22081466    -1.76537285     0.46684103     0.00024835    -0.00068948    -0.00010377
C        -3.99713486     0.36613613     0.01013112    -0.00013003     0.00012314     0.00005171
C        -2.47908180     0.52381646     0.25697622     0.00011535    -0.00015042     0.00007746
H        -4.50339543     1.27118658    -0.46438146    -0.00068110    -0.00039241    -0.00018879
H        -1.77104158    -0.33807842     0.52376786     0.00051758     0.00167274    -0.00010532
C        -1.85128523     1.70021970    -0.05300641     0.00026666     0.00012465    -0.00021398
H        -2.36792787     2.59607691    -0.40260851     0.00016465     0.00096758     0.00013083
N        -0.55215152     1.80919344     0.20483568     0.00013241     0.00010239     0.00017975