|===============================================================================
|
|  DFTB+ release 20.1
|
|  Copyright (C) 2006 - 2020  DFTB+ developers group
|
|===============================================================================
|
|  When publishing results obtained with DFTB+, please cite the following
|  reference:
|
|  * DFTB+, a software package for efficient approximate density functional
|    theory based atomistic simulations, J. Chem. Phys. 152, 124101 (2020).
|    [doi: 10.1063/1.5143190]
|
|  You should also cite additional publications crediting the parametrization
|  data you use. Please consult the documentation of the SK-files for the
|  references.
|
|===============================================================================

Reading input file 'dftb_in.hsd'
Parser version: 8

--------------------------------------------------------------------------------
Reading SK-files:
Done.


Processed input in HSD format written to 'dftb_pin.hsd'

Starting initialization...
--------------------------------------------------------------------------------
OpenMP threads:              1
Chosen random seed:          497732950
Mode:                        Static calculation
Self consistent charges:     Yes
SCC-tolerance:                 0.100000E-05
Max. scc iterations:                   1000
Shell resolved Hubbard:      No
Spin polarisation:           No
Nr. of up electrons:            16.000000
Nr. of down electrons:          16.000000
Periodic boundaries:         No
Electronic solver:           Relatively robust
Maximal SCC-cycles:                    1000
Initial charges:             Set automatically (system chrg:   0.100E+01)
Included shells:             C:  s, p
                             H:  s
                             N:  s, p
Spin coupling constants:     C   1(s)-1(s):  -0.455900E-01
                             C   1(s)-2(p):  -0.293000E-01
                             C   2(p)-1(s):  -0.293000E-01
                             C   2(p)-2(p):  -0.275500E-01
                             H   1(s)-1(s):  -0.792500E-01
                             N   1(s)-1(s):  -0.468700E-01
                             N   1(s)-2(p):  -0.317000E-01
                             N   2(p)-1(s):  -0.317000E-01
                             N   2(p)-2(p):  -0.307200E-01
Range separated hybrid:      Yes
  Screening parameter omega:   0.300000E+00
  Range separated algorithm:   MatrixBased
Extra options:
                             Mulliken analysis
                             Force calculation
Force type                   original
                             Eigenvector printing


REKS Calcuation:             Yes
SSR(2,2) Calcuation:         Yes
Energy Functional:           (PPS+OSS)/2
Number of Core Orbitals:                 15
Number of Active Orbitals:                2
Number of Basis:                         32
Number of States:                         2
State-Averaging Weight:          0.500000
                                 0.500000
State of Interest:                        1
Initial Guess:               Diagonalize H0 matrix
Newton-Raphson for FON opt:  Yes
NR max. Iterations:                      50
Level Shifting:              Yes
Shift Value:                     0.300000
W Scale Factor:              C  =    3.200000
                             H  =    3.200000
                             N  =    3.200000
Transition Dipole:           No
Gradient of Microstate:      No
CP-REKS Solver:              Preconditioned Conjugate-Gradient
CG max. Iterations:                     100
CG Tolerance:                  0.100000E-07
Memory for A and Hxc:        Direct Updating Without Saving
Non-Adiabatic Coupling:      Yes

--------------------------------------------------------------------------------

***  Geometry step: 0

  iSCC       reks energy        Diff energy         x_a       SCC error   
    1      -16.3882996593       0.0000000000     0.996319    1.17509116
    2      -16.4100974154      -0.0217977561     0.999685    0.05597405
    3      -16.4147939644      -0.0046965490     0.999912    0.02631821
    4      -16.4162304689      -0.0014365045     0.999955    0.01621801
    5      -16.4168052380      -0.0005747691     0.999969    0.01042583
    6      -16.4170748816      -0.0002696437     0.999976    0.00706199
    7      -16.4172147570      -0.0001398754     0.999980    0.00496580
    8      -16.4172924765      -0.0000777195     0.999982    0.00358872
    9      -16.4173380003      -0.0000455238     0.999983    0.00265111
   10      -16.4173659227      -0.0000279224     0.999984    0.00199544
   11      -16.4173838176      -0.0000178949     0.999984    0.00152680
   12      -16.4173957965      -0.0000119789     0.999984    0.00118550
   13      -16.4174041731      -0.0000083766     0.999985    0.00093282
   14      -16.4174102915      -0.0000061184     0.999985    0.00074297
   15      -16.4174149555      -0.0000046641     0.999985    0.00059841
   16      -16.4174186596      -0.0000037041     0.999985    0.00048700
   17      -16.4174217154      -0.0000030558     0.999985    0.00040017
   18      -16.4174243241      -0.0000026087     0.999985    0.00033180
   19      -16.4174266180      -0.0000022939     0.999985    0.00027745
   20      -16.4174286857      -0.0000020677     0.999985    0.00028088
   21      -16.4174305875      -0.0000019018     0.999985    0.00028408
   22      -16.4174323650      -0.0000017775     0.999985    0.00028513
   23      -16.4174340470      -0.0000016820     0.999985    0.00028474
   24      -16.4174356540      -0.0000016070     0.999985    0.00028339
   25      -16.4174372003      -0.0000015464     0.999985    0.00028144
   26      -16.4174386964      -0.0000014961     0.999985    0.00027911
   27      -16.4174401499      -0.0000014534     0.999985    0.00027656
   28      -16.4174415661      -0.0000014163     0.999985    0.00027391
   29      -16.4174429493      -0.0000013832     0.999985    0.00027121
   30      -16.4174443025      -0.0000013532     0.999985    0.00026852
   31      -16.4174456280      -0.0000013255     0.999985    0.00026587
   32      -16.4174469278      -0.0000012997     0.999985    0.00026328
   33      -16.4174482031      -0.0000012754     0.999985    0.00026074
   34      -16.4174494554      -0.0000012522     0.999985    0.00025827
   35      -16.4174506854      -0.0000012301     0.999985    0.00025587
   36      -16.4174518942      -0.0000012087     0.999985    0.00025354
   37      -16.4174530823      -0.0000011881     0.999985    0.00025127
   38      -16.4174542504      -0.0000011682     0.999984    0.00024905
   39      -16.4174553992      -0.0000011488     0.999984    0.00024690
   40      -16.4174565292      -0.0000011299     0.999984    0.00024479
   41      -16.4174576408      -0.0000011116     0.999984    0.00024274
   42      -16.4174587345      -0.0000010937     0.999984    0.00024073
   43      -16.4174598108      -0.0000010763     0.999984    0.00023876
   44      -16.4174608700      -0.0000010593     0.999984    0.00023683
   45      -16.4174619127      -0.0000010427     0.999984    0.00023494
   46      -16.4174629391      -0.0000010264     0.999984    0.00023308
   47      -16.4174639497      -0.0000010106     0.999984    0.00023126
   48      -16.4174649447      -0.0000009951     0.999984    0.00022946
   49      -16.4174659246      -0.0000009799     0.999984    0.00022770
   50      -16.4174668897      -0.0000009651     0.999984    0.00022596
   51      -16.4174678403      -0.0000009506     0.999984    0.00022425
   52      -16.4174687768      -0.0000009364     0.999984    0.00022256
   53      -16.4174696993      -0.0000009226     0.999984    0.00022090
   54      -16.4174706083      -0.0000009090     0.999984    0.00021926
   55      -16.4174715041      -0.0000008957     0.999984    0.00021765
   56      -16.4174723868      -0.0000008827     0.999984    0.00021605
   57      -16.4174732568      -0.0000008700     0.999984    0.00021448
   58      -16.4174741144      -0.0000008576     0.999984    0.00021293
   59      -16.4174749599      -0.0000008454     0.999984    0.00021140
   60      -16.4174757934      -0.0000008335     0.999984    0.00020989
   61      -16.4174766152      -0.0000008218     0.999984    0.00020839
   62      -16.4174774256      -0.0000008104     0.999984    0.00020692
   63      -16.4174782248      -0.0000007992     0.999984    0.00020546
   64      -16.4174790130      -0.0000007882     0.999984    0.00020403
   65      -16.4174797905      -0.0000007775     0.999984    0.00020261
   66      -16.4174805575      -0.0000007670     0.999984    0.00020121
   67      -16.4174813142      -0.0000007567     0.999984    0.00019982
   68      -16.4174820608      -0.0000007466     0.999984    0.00019846
   69      -16.4174827975      -0.0000007367     0.999984    0.00019711
   70      -16.4174835245      -0.0000007270     0.999984    0.00019577
   71      -16.4174842420      -0.0000007175     0.999984    0.00019445
   72      -16.4174849502      -0.0000007082     0.999984    0.00019315
   73      -16.4174856493      -0.0000006991     0.999984    0.00019187
   74      -16.4174863394      -0.0000006901     0.999984    0.00019060
   75      -16.4174870207      -0.0000006813     0.999984    0.00018934
   76      -16.4174876934      -0.0000006727     0.999984    0.00018810
   77      -16.4174883577      -0.0000006643     0.999984    0.00018687
   78      -16.4174890138      -0.0000006560     0.999984    0.00018566
   79      -16.4174896617      -0.0000006479     0.999984    0.00018447
   80      -16.4174903016      -0.0000006400     0.999984    0.00018328
   81      -16.4174909338      -0.0000006321     0.999984    0.00018212
   82      -16.4174915583      -0.0000006245     0.999984    0.00018096
   83      -16.4174921752      -0.0000006170     0.999984    0.00017982
   84      -16.4174927848      -0.0000006096     0.999984    0.00017869
   85      -16.4174933872      -0.0000006024     0.999984    0.00017758
   86      -16.4174939824      -0.0000005953     0.999984    0.00017647
   87      -16.4174945707      -0.0000005883     0.999984    0.00017539
   88      -16.4174951521      -0.0000005814     0.999984    0.00017431
   89      -16.4174957269      -0.0000005747     0.999984    0.00017324
   90      -16.4174962950      -0.0000005681     0.999984    0.00017219
   91      -16.4174968566      -0.0000005617     0.999984    0.00017115
   92      -16.4174974119      -0.0000005553     0.999984    0.00017012
   93      -16.4174979610      -0.0000005490     0.999984    0.00016911
   94      -16.4174985039      -0.0000005429     0.999984    0.00016810
   95      -16.4174990408      -0.0000005369     0.999984    0.00016711
   96      -16.4174995718      -0.0000005310     0.999984    0.00016613
   97      -16.4175000969      -0.0000005252     0.999984    0.00016516
   98      -16.4175006164      -0.0000005195     0.999984    0.00016420
   99      -16.4175011302      -0.0000005138     0.999984    0.00016325
  100      -16.4175016386      -0.0000005083     0.999984    0.00016231
  101      -16.4175021415      -0.0000005029     0.999984    0.00016138
  102      -16.4175026391      -0.0000004976     0.999984    0.00016046
  103      -16.4175031314      -0.0000004924     0.999984    0.00015955
  104      -16.4175036186      -0.0000004872     0.999984    0.00015865
  105      -16.4175041008      -0.0000004822     0.999984    0.00015776
  106      -16.4175045780      -0.0000004772     0.999984    0.00015689
  107      -16.4175050503      -0.0000004723     0.999984    0.00015602
  108      -16.4175055178      -0.0000004675     0.999984    0.00015516
  109      -16.4175059805      -0.0000004628     0.999984    0.00015431
  110      -16.4175064387      -0.0000004581     0.999984    0.00015346
  111      -16.4175068922      -0.0000004536     0.999984    0.00015263
  112      -16.4175073413      -0.0000004491     0.999984    0.00015181
  113      -16.4175077859      -0.0000004446     0.999984    0.00015099
  114      -16.4175082262      -0.0000004403     0.999984    0.00015019
  115      -16.4175086622      -0.0000004360     0.999984    0.00014939
  116      -16.4175090940      -0.0000004318     0.999984    0.00014860
  117      -16.4175095217      -0.0000004277     0.999984    0.00014782
  118      -16.4175099452      -0.0000004236     0.999984    0.00014705
  119      -16.4175103648      -0.0000004196     0.999984    0.00014628
  120      -16.4175107804      -0.0000004156     0.999984    0.00014553
  121      -16.4175111922      -0.0000004117     0.999984    0.00014478
  122      -16.4175116001      -0.0000004079     0.999984    0.00014403
  123      -16.4175120042      -0.0000004041     0.999984    0.00014330
  124      -16.4175124047      -0.0000004004     0.999984    0.00014257
  125      -16.4175128014      -0.0000003968     0.999984    0.00014186
  126      -16.4175131946      -0.0000003932     0.999984    0.00014114
  127      -16.4175135843      -0.0000003897     0.999984    0.00014044
  128      -16.4175139705      -0.0000003862     0.999984    0.00013974
  129      -16.4175143532      -0.0000003827     0.999984    0.00013905
  130      -16.4175147326      -0.0000003794     0.999984    0.00013837
  131      -16.4175151086      -0.0000003760     0.999984    0.00013769
  132      -16.4175154814      -0.0000003728     0.999984    0.00013702
  133      -16.4175158509      -0.0000003695     0.999984    0.00013636
  134      -16.4175162172      -0.0000003663     0.999984    0.00013570
  135      -16.4175165804      -0.0000003632     0.999984    0.00013505
  136      -16.4175169405      -0.0000003601     0.999984    0.00013441
  137      -16.4175172976      -0.0000003571     0.999984    0.00013377
  138      -16.4175176517      -0.0000003541     0.999984    0.00013314
  139      -16.4175180028      -0.0000003511     0.999984    0.00013251
  140      -16.4175183510      -0.0000003482     0.999984    0.00013189
  141      -16.4175186963      -0.0000003453     0.999984    0.00013128
  142      -16.4175190388      -0.0000003425     0.999984    0.00013067
  143      -16.4175193785      -0.0000003397     0.999984    0.00013007
  144      -16.4175197154      -0.0000003369     0.999984    0.00012947
  145      -16.4175200497      -0.0000003342     0.999984    0.00012888
  146      -16.4175203812      -0.0000003316     0.999984    0.00012830
  147      -16.4175207101      -0.0000003289     0.999984    0.00012772
  148      -16.4175210364      -0.0000003263     0.999984    0.00012714
  149      -16.4175213602      -0.0000003237     0.999984    0.00012657
  150      -16.4175216814      -0.0000003212     0.999984    0.00012601
  151      -16.4175220001      -0.0000003187     0.999984    0.00012545
  152      -16.4175223164      -0.0000003163     0.999984    0.00012490
  153      -16.4175226302      -0.0000003138     0.999984    0.00012435
  154      -16.4175229416      -0.0000003114     0.999984    0.00012380
  155      -16.4175232507      -0.0000003091     0.999984    0.00012326
  156      -16.4175235574      -0.0000003067     0.999984    0.00012273
  157      -16.4175238619      -0.0000003044     0.999984    0.00012220
  158      -16.4175241640      -0.0000003022     0.999984    0.00012168
  159      -16.4175244640      -0.0000002999     0.999984    0.00012116
  160      -16.4175247617      -0.0000002977     0.999984    0.00012064
  161      -16.4175250572      -0.0000002955     0.999984    0.00012013
  162      -16.4175253505      -0.0000002934     0.999984    0.00011962
  163      -16.4175256418      -0.0000002912     0.999984    0.00011912
  164      -16.4175259309      -0.0000002891     0.999984    0.00011862
  165      -16.4175262180      -0.0000002871     0.999984    0.00011813
  166      -16.4175265030      -0.0000002850     0.999984    0.00011764
  167      -16.4175267860      -0.0000002830     0.999984    0.00011715
  168      -16.4175270670      -0.0000002810     0.999984    0.00011667
  169      -16.4175273460      -0.0000002790     0.999984    0.00011620
  170      -16.4175276230      -0.0000002771     0.999984    0.00011572
  171      -16.4175278982      -0.0000002751     0.999984    0.00011525
  172      -16.4175281714      -0.0000002732     0.999984    0.00011479
  173      -16.4175284428      -0.0000002714     0.999984    0.00011433
  174      -16.4175287123      -0.0000002695     0.999984    0.00011387
  175      -16.4175289800      -0.0000002677     0.999984    0.00011341
  176      -16.4175292459      -0.0000002659     0.999984    0.00011296
  177      -16.4175295100      -0.0000002641     0.999984    0.00011252
  178      -16.4175297723      -0.0000002623     0.999984    0.00011207
  179      -16.4175300329      -0.0000002606     0.999984    0.00011164
  180      -16.4175302918      -0.0000002589     0.999984    0.00011120
  181      -16.4175305489      -0.0000002572     0.999984    0.00011077
  182      -16.4175308044      -0.0000002555     0.999984    0.00011034
  183      -16.4175310582      -0.0000002538     0.999984    0.00010991
  184      -16.4175313103      -0.0000002522     0.999984    0.00010949
  185      -16.4175315609      -0.0000002505     0.999984    0.00010907
  186      -16.4175318098      -0.0000002489     0.999984    0.00010865
  187      -16.4175320571      -0.0000002473     0.999984    0.00010824
  188      -16.4175323029      -0.0000002458     0.999984    0.00010783
  189      -16.4175325471      -0.0000002442     0.999985    0.00010743
  190      -16.4175327898      -0.0000002427     0.999985    0.00010702
  191      -16.4175330309      -0.0000002412     0.999985    0.00010662
  192      -16.4175332706      -0.0000002397     0.999985    0.00010622
  193      -16.4175335087      -0.0000002382     0.999985    0.00010583
  194      -16.4175337454      -0.0000002367     0.999985    0.00010544
  195      -16.4175339807      -0.0000002352     0.999985    0.00010505
  196      -16.4175342145      -0.0000002338     0.999985    0.00010466
  197      -16.4175344469      -0.0000002324     0.999985    0.00010428
  198      -16.4175346778      -0.0000002310     0.999985    0.00010390
  199      -16.4175349074      -0.0000002296     0.999985    0.00010352
  200      -16.4175351356      -0.0000002282     0.999985    0.00010315
  201      -16.4175353625      -0.0000002268     0.999985    0.00010278
  202      -16.4175355880      -0.0000002255     0.999985    0.00010241
  203      -16.4175358121      -0.0000002242     0.999985    0.00010204
  204      -16.4175360350      -0.0000002228     0.999985    0.00010168
  205      -16.4175362565      -0.0000002215     0.999985    0.00010132
  206      -16.4175364767      -0.0000002202     0.999985    0.00010096
  207      -16.4175366957      -0.0000002190     0.999985    0.00010060
  208      -16.4175369134      -0.0000002177     0.999985    0.00010024
  209      -16.4175371298      -0.0000002164     0.999985    0.00009989
  210      -16.4175373450      -0.0000002152     0.999985    0.00009954
  211      -16.4175375590      -0.0000002140     0.999985    0.00009920
  212      -16.4175377718      -0.0000002128     0.999985    0.00009885
  213      -16.4175379833      -0.0000002115     0.999985    0.00009851
  214      -16.4175381937      -0.0000002104     0.999985    0.00009817
  215      -16.4175384028      -0.0000002092     0.999985    0.00009783
  216      -16.4175386108      -0.0000002080     0.999985    0.00009749
  217      -16.4175388177      -0.0000002068     0.999985    0.00009716
  218      -16.4175390234      -0.0000002057     0.999985    0.00009683
  219      -16.4175392279      -0.0000002046     0.999985    0.00009650
  220      -16.4175394314      -0.0000002034     0.999985    0.00009617
  221      -16.4175396337      -0.0000002023     0.999985    0.00009585
  222      -16.4175398349      -0.0000002012     0.999985    0.00009552
  223      -16.4175400350      -0.0000002001     0.999985    0.00009520
  224      -16.4175402341      -0.0000001990     0.999985    0.00009488
  225      -16.4175404320      -0.0000001980     0.999985    0.00009457
  226      -16.4175406289      -0.0000001969     0.999985    0.00009425
  227      -16.4175408248      -0.0000001958     0.999985    0.00009394
  228      -16.4175410196      -0.0000001948     0.999985    0.00009363
  229      -16.4175412133      -0.0000001938     0.999985    0.00009332
  230      -16.4175414061      -0.0000001927     0.999985    0.00009301
  231      -16.4175415978      -0.0000001917     0.999985    0.00009270
  232      -16.4175417885      -0.0000001907     0.999985    0.00009240
  233      -16.4175419782      -0.0000001897     0.999985    0.00009210
  234      -16.4175421669      -0.0000001887     0.999985    0.00009180
  235      -16.4175423546      -0.0000001877     0.999985    0.00009150
  236      -16.4175425414      -0.0000001868     0.999985    0.00009120
  237      -16.4175427272      -0.0000001858     0.999985    0.00009091
  238      -16.4175429120      -0.0000001848     0.999985    0.00009061
  239      -16.4175430959      -0.0000001839     0.999985    0.00009032
  240      -16.4175432789      -0.0000001830     0.999985    0.00009003
  241      -16.4175434609      -0.0000001820     0.999985    0.00008974
  242      -16.4175436420      -0.0000001811     0.999985    0.00008946
  243      -16.4175438222      -0.0000001802     0.999985    0.00008917
  244      -16.4175440014      -0.0000001793     0.999985    0.00008889
  245      -16.4175441798      -0.0000001784     0.999985    0.00008860
  246      -16.4175443573      -0.0000001775     0.999985    0.00008832
  247      -16.4175445338      -0.0000001766     0.999985    0.00008804
  248      -16.4175447095      -0.0000001757     0.999985    0.00008777
  249      -16.4175448843      -0.0000001748     0.999985    0.00008749
  250      -16.4175450583      -0.0000001740     0.999985    0.00008721
  251      -16.4175452314      -0.0000001731     0.999985    0.00008694
  252      -16.4175454036      -0.0000001722     0.999985    0.00008667
  253      -16.4175455750      -0.0000001714     0.999985    0.00008640
  254      -16.4175457456      -0.0000001705     0.999985    0.00008613
  255      -16.4175459153      -0.0000001697     0.999985    0.00008586
  256      -16.4175460842      -0.0000001689     0.999985    0.00008559
  257      -16.4175462522      -0.0000001681     0.999985    0.00008533
  258      -16.4175464195      -0.0000001672     0.999985    0.00008506
  259      -16.4175465859      -0.0000001664     0.999985    0.00008480
  260      -16.4175467515      -0.0000001656     0.999985    0.00008454
  261      -16.4175469164      -0.0000001648     0.999986    0.00008428
  262      -16.4175470804      -0.0000001640     0.999986    0.00008402
  263      -16.4175472437      -0.0000001633     0.999986    0.00008376
  264      -16.4175474062      -0.0000001625     0.999986    0.00008351
  265      -16.4175475679      -0.0000001617     0.999986    0.00008325
  266      -16.4175477288      -0.0000001609     0.999986    0.00008300
  267      -16.4175478889      -0.0000001602     0.999986    0.00008275
  268      -16.4175480484      -0.0000001594     0.999986    0.00008249
  269      -16.4175482070      -0.0000001587     0.999986    0.00008224
  270      -16.4175483649      -0.0000001579     0.999986    0.00008199
  271      -16.4175485221      -0.0000001572     0.999986    0.00008175
  272      -16.4175486785      -0.0000001564     0.999986    0.00008150
  273      -16.4175488342      -0.0000001557     0.999986    0.00008125
  274      -16.4175489891      -0.0000001550     0.999986    0.00008101
  275      -16.4175491434      -0.0000001542     0.999986    0.00008076
  276      -16.4175492969      -0.0000001535     0.999986    0.00008052
  277      -16.4175494497      -0.0000001528     0.999986    0.00008038
  278      -16.4175496018      -0.0000001521     0.999986    0.00008025
  279      -16.4175497532      -0.0000001514     0.999986    0.00008011
  280      -16.4175499039      -0.0000001507     0.999986    0.00007998
  281      -16.4175500538      -0.0000001500     0.999986    0.00007985
  282      -16.4175502031      -0.0000001493     0.999986    0.00007972
  283      -16.4175503517      -0.0000001486     0.999986    0.00007958
  284      -16.4175504997      -0.0000001479     0.999986    0.00007945
  285      -16.4175506469      -0.0000001472     0.999986    0.00007932
  286      -16.4175507935      -0.0000001466     0.999986    0.00007919
  287      -16.4175509394      -0.0000001459     0.999986    0.00007906
  288      -16.4175510846      -0.0000001452     0.999986    0.00007892
  289      -16.4175512292      -0.0000001446     0.999986    0.00007879
  290      -16.4175513731      -0.0000001439     0.999986    0.00007866
  291      -16.4175515164      -0.0000001433     0.999986    0.00007853
  292      -16.4175516590      -0.0000001426     0.999986    0.00007840
  293      -16.4175518009      -0.0000001420     0.999986    0.00007827
  294      -16.4175519422      -0.0000001413     0.999986    0.00007814
  295      -16.4175520829      -0.0000001407     0.999986    0.00007801
  296      -16.4175522230      -0.0000001400     0.999986    0.00007788
  297      -16.4175523624      -0.0000001394     0.999986    0.00007775
  298      -16.4175525011      -0.0000001388     0.999986    0.00007762
  299      -16.4175526393      -0.0000001382     0.999986    0.00007749
  300      -16.4175527768      -0.0000001375     0.999986    0.00007736
  301      -16.4175529137      -0.0000001369     0.999986    0.00007723
  302      -16.4175530500      -0.0000001363     0.999986    0.00007710
  303      -16.4175531857      -0.0000001357     0.999986    0.00007698
  304      -16.4175533208      -0.0000001351     0.999986    0.00007685
  305      -16.4175534552      -0.0000001345     0.999986    0.00007672
  306      -16.4175535891      -0.0000001339     0.999986    0.00007659
  307      -16.4175537224      -0.0000001333     0.999986    0.00007646
  308      -16.4175538550      -0.0000001327     0.999986    0.00007633
  309      -16.4175539871      -0.0000001321     0.999986    0.00007620
  310      -16.4175541186      -0.0000001315     0.999986    0.00007608
  311      -16.4175542495      -0.0000001309     0.999986    0.00007595
  312      -16.4175543798      -0.0000001303     0.999986    0.00007582
  313      -16.4175545095      -0.0000001297     0.999986    0.00007569
  314      -16.4175546387      -0.0000001292     0.999986    0.00007556
  315      -16.4175547673      -0.0000001286     0.999986    0.00007544
  316      -16.4175548953      -0.0000001280     0.999986    0.00007531
  317      -16.4175550227      -0.0000001274     0.999986    0.00007518
  318      -16.4175551496      -0.0000001269     0.999986    0.00007505
  319      -16.4175552759      -0.0000001263     0.999986    0.00007492
  320      -16.4175554016      -0.0000001257     0.999986    0.00007480
  321      -16.4175555268      -0.0000001252     0.999986    0.00007467
  322      -16.4175556514      -0.0000001246     0.999986    0.00007454
  323      -16.4175557755      -0.0000001241     0.999986    0.00007441
  324      -16.4175558990      -0.0000001235     0.999986    0.00007429
  325      -16.4175560220      -0.0000001230     0.999986    0.00007416
  326      -16.4175561444      -0.0000001224     0.999987    0.00007403
  327      -16.4175562663      -0.0000001219     0.999987    0.00007390
  328      -16.4175563876      -0.0000001213     0.999987    0.00007378
  329      -16.4175565084      -0.0000001208     0.999987    0.00007365
  330      -16.4175566287      -0.0000001203     0.999987    0.00007352
  331      -16.4175567484      -0.0000001197     0.999987    0.00007339
  332      -16.4175568676      -0.0000001192     0.999987    0.00007327
  333      -16.4175569863      -0.0000001187     0.999987    0.00007314
  334      -16.4175571044      -0.0000001181     0.999987    0.00007301
  335      -16.4175572221      -0.0000001176     0.999987    0.00007288
  336      -16.4175573391      -0.0000001171     0.999987    0.00007276
  337      -16.4175574557      -0.0000001166     0.999987    0.00007263
  338      -16.4175575718      -0.0000001161     0.999987    0.00007250
  339      -16.4175576873      -0.0000001155     0.999987    0.00007238
  340      -16.4175578023      -0.0000001150     0.999987    0.00007225
  341      -16.4175579168      -0.0000001145     0.999987    0.00007212
  342      -16.4175580308      -0.0000001140     0.999987    0.00007199
  343      -16.4175581443      -0.0000001135     0.999987    0.00007187
  344      -16.4175582573      -0.0000001130     0.999987    0.00007174
  345      -16.4175583698      -0.0000001125     0.999987    0.00007161
  346      -16.4175584818      -0.0000001120     0.999987    0.00007148
  347      -16.4175585932      -0.0000001115     0.999987    0.00007136
  348      -16.4175587042      -0.0000001110     0.999987    0.00007123
  349      -16.4175588147      -0.0000001105     0.999987    0.00007110
  350      -16.4175589247      -0.0000001100     0.999987    0.00007097
  351      -16.4175590342      -0.0000001095     0.999987    0.00007084
  352      -16.4175591432      -0.0000001090     0.999987    0.00007072
  353      -16.4175592517      -0.0000001085     0.999987    0.00007059
  354      -16.4175593598      -0.0000001080     0.999987    0.00007046
  355      -16.4175594673      -0.0000001075     0.999987    0.00007033
  356      -16.4175595744      -0.0000001071     0.999987    0.00007020
  357      -16.4175596809      -0.0000001066     0.999987    0.00007008
  358      -16.4175597870      -0.0000001061     0.999987    0.00006995
  359      -16.4175598927      -0.0000001056     0.999987    0.00006982
  360      -16.4175599978      -0.0000001051     0.999987    0.00006969
  361      -16.4175601025      -0.0000001047     0.999987    0.00006956
  362      -16.4175602067      -0.0000001042     0.999987    0.00006943
  363      -16.4175603104      -0.0000001037     0.999987    0.00006931
  364      -16.4175604137      -0.0000001033     0.999987    0.00006918
  365      -16.4175605165      -0.0000001028     0.999987    0.00006905
  366      -16.4175606188      -0.0000001023     0.999987    0.00006892
  367      -16.4175607207      -0.0000001019     0.999987    0.00006879
  368      -16.4175608220      -0.0000001014     0.999987    0.00006866
  369      -16.4175609230      -0.0000001009     0.999987    0.00006853
  370      -16.4175610235      -0.0000001005     0.999987    0.00006840
  371      -16.4175611235      -0.0000001000     0.999987    0.00006828
  372      -16.4175612230      -0.0000000996     0.999987    0.00006815
  373      -16.4175613222      -0.0000000991     0.999987    0.00006802
  374      -16.4175614208      -0.0000000987     0.999987    0.00006789
  375      -16.4175615190      -0.0000000982     0.999987    0.00006776
  376      -16.4175616168      -0.0000000978     0.999987    0.00006763
  377      -16.4175617141      -0.0000000973     0.999987    0.00006750
  378      -16.4175618109      -0.0000000969     0.999987    0.00006737
  379      -16.4175619073      -0.0000000964     0.999987    0.00006724
  380      -16.4175620033      -0.0000000960     0.999987    0.00006711
  381      -16.4175620988      -0.0000000955     0.999987    0.00006698
  382      -16.4175621939      -0.0000000951     0.999987    0.00006685
  383      -16.4175622885      -0.0000000946     0.999987    0.00006672
  384      -16.4175623827      -0.0000000942     0.999987    0.00006659
  385      -16.4175624765      -0.0000000938     0.999987    0.00006646
  386      -16.4175625698      -0.0000000933     0.999987    0.00006633
  387      -16.4175626627      -0.0000000929     0.999987    0.00006620
  388      -16.4175627552      -0.0000000925     0.999987    0.00006607
  389      -16.4175628472      -0.0000000920     0.999987    0.00006593
  390      -16.4175629388      -0.0000000916     0.999987    0.00006580
  391      -16.4175630300      -0.0000000912     0.999987    0.00006567
  392      -16.4175631207      -0.0000000907     0.999988    0.00006554
  393      -16.4175632110      -0.0000000903     0.999988    0.00006541
  394      -16.4175633009      -0.0000000899     0.999988    0.00006528
  395      -16.4175633904      -0.0000000895     0.999988    0.00006515
  396      -16.4175634794      -0.0000000890     0.999988    0.00006502
  397      -16.4175635680      -0.0000000886     0.999988    0.00006488
  398      -16.4175636563      -0.0000000882     0.999988    0.00006475
  399      -16.4175637440      -0.0000000878     0.999988    0.00006462
  400      -16.4175638314      -0.0000000874     0.999988    0.00006449
  401      -16.4175639184      -0.0000000870     0.999988    0.00006436
  402      -16.4175640049      -0.0000000865     0.999988    0.00006422
  403      -16.4175640910      -0.0000000861     0.999988    0.00006409
  404      -16.4175641767      -0.0000000857     0.999988    0.00006396
  405      -16.4175642620      -0.0000000853     0.999988    0.00006383
  406      -16.4175643469      -0.0000000849     0.999988    0.00006369
  407      -16.4175644314      -0.0000000845     0.999988    0.00006356
  408      -16.4175645155      -0.0000000841     0.999988    0.00006343
  409      -16.4175645992      -0.0000000837     0.999988    0.00006330
  410      -16.4175646824      -0.0000000833     0.999988    0.00006316
  411      -16.4175647653      -0.0000000829     0.999988    0.00006303
  412      -16.4175648477      -0.0000000825     0.999988    0.00006290
  413      -16.4175649298      -0.0000000821     0.999988    0.00006276
  414      -16.4175650115      -0.0000000817     0.999988    0.00006263
  415      -16.4175650927      -0.0000000813     0.999988    0.00006250
  416      -16.4175651736      -0.0000000809     0.999988    0.00006236
  417      -16.4175652541      -0.0000000805     0.999988    0.00006223
  418      -16.4175653341      -0.0000000801     0.999988    0.00006209
  419      -16.4175654138      -0.0000000797     0.999988    0.00006196
  420      -16.4175654931      -0.0000000793     0.999988    0.00006183
  421      -16.4175655720      -0.0000000789     0.999988    0.00006169
  422      -16.4175656505      -0.0000000785     0.999988    0.00006156
  423      -16.4175657286      -0.0000000781     0.999988    0.00006142
  424      -16.4175658063      -0.0000000777     0.999988    0.00006129
  425      -16.4175658837      -0.0000000773     0.999988    0.00006115
  426      -16.4175659606      -0.0000000770     0.999988    0.00006102
  427      -16.4175660372      -0.0000000766     0.999988    0.00006088
  428      -16.4175661134      -0.0000000762     0.999988    0.00006075
  429      -16.4175661892      -0.0000000758     0.999988    0.00006061
  430      -16.4175662646      -0.0000000754     0.999988    0.00006048
  431      -16.4175663397      -0.0000000750     0.999988    0.00006034
  432      -16.4175664144      -0.0000000747     0.999988    0.00006021
  433      -16.4175664886      -0.0000000743     0.999988    0.00006007
  434      -16.4175665626      -0.0000000739     0.999988    0.00005994
  435      -16.4175666361      -0.0000000735     0.999988    0.00005980
  436      -16.4175667093      -0.0000000732     0.999988    0.00005966
  437      -16.4175667821      -0.0000000728     0.999988    0.00005953
  438      -16.4175668545      -0.0000000724     0.999988    0.00005939
  439      -16.4175669265      -0.0000000721     0.999988    0.00005926
  440      -16.4175669982      -0.0000000717     0.999988    0.00005912
  441      -16.4175670695      -0.0000000713     0.999988    0.00005898
  442      -16.4175671405      -0.0000000709     0.999988    0.00005885
  443      -16.4175672111      -0.0000000706     0.999988    0.00005871
  444      -16.4175672813      -0.0000000702     0.999988    0.00005858
  445      -16.4175673511      -0.0000000699     0.999988    0.00005844
  446      -16.4175674206      -0.0000000695     0.999988    0.00005830
  447      -16.4175674897      -0.0000000691     0.999988    0.00005816
  448      -16.4175675585      -0.0000000688     0.999988    0.00005803
  449      -16.4175676269      -0.0000000684     0.999988    0.00005789
  450      -16.4175676950      -0.0000000680     0.999988    0.00005775
  451      -16.4175677627      -0.0000000677     0.999988    0.00005762
  452      -16.4175678300      -0.0000000673     0.999988    0.00005748
  453      -16.4175678970      -0.0000000670     0.999988    0.00005734
  454      -16.4175679636      -0.0000000666     0.999988    0.00005720
  455      -16.4175680299      -0.0000000663     0.999988    0.00005707
  456      -16.4175680958      -0.0000000659     0.999988    0.00005693
  457      -16.4175681614      -0.0000000656     0.999988    0.00005679
  458      -16.4175682266      -0.0000000652     0.999988    0.00005665
  459      -16.4175682915      -0.0000000649     0.999988    0.00005652
  460      -16.4175683560      -0.0000000645     0.999988    0.00005638
  461      -16.4175684202      -0.0000000642     0.999988    0.00005624
  462      -16.4175684840      -0.0000000638     0.999989    0.00005610
  463      -16.4175685475      -0.0000000635     0.999989    0.00005597
  464      -16.4175686107      -0.0000000632     0.999989    0.00005583
  465      -16.4175686735      -0.0000000628     0.999989    0.00005569
  466      -16.4175687360      -0.0000000625     0.999989    0.00005555
  467      -16.4175687981      -0.0000000621     0.999989    0.00005541
  468      -16.4175688599      -0.0000000618     0.999989    0.00005527
  469      -16.4175689213      -0.0000000615     0.999989    0.00005514
  470      -16.4175689825      -0.0000000611     0.999989    0.00005500
  471      -16.4175690432      -0.0000000608     0.999989    0.00005486
  472      -16.4175691037      -0.0000000605     0.999989    0.00005472
  473      -16.4175691638      -0.0000000601     0.999989    0.00005458
  474      -16.4175692236      -0.0000000598     0.999989    0.00005444
  475      -16.4175692831      -0.0000000595     0.999989    0.00005430
  476      -16.4175693422      -0.0000000591     0.999989    0.00005417
  477      -16.4175694010      -0.0000000588     0.999989    0.00005403
  478      -16.4175694595      -0.0000000585     0.999989    0.00005389
  479      -16.4175695176      -0.0000000581     0.999989    0.00005375
  480      -16.4175695754      -0.0000000578     0.999989    0.00005361
  481      -16.4175696329      -0.0000000575     0.999989    0.00005347
  482      -16.4175696901      -0.0000000572     0.999989    0.00005333
  483      -16.4175697469      -0.0000000569     0.999989    0.00005319
  484      -16.4175698035      -0.0000000565     0.999989    0.00005305
  485      -16.4175698597      -0.0000000562     0.999989    0.00005292
  486      -16.4175699156      -0.0000000559     0.999989    0.00005278
  487      -16.4175699712      -0.0000000556     0.999989    0.00005264
  488      -16.4175700264      -0.0000000553     0.999989    0.00005250
  489      -16.4175700814      -0.0000000549     0.999989    0.00005236
  490      -16.4175701360      -0.0000000546     0.999989    0.00005222
  491      -16.4175701903      -0.0000000543     0.999989    0.00005208
  492      -16.4175702443      -0.0000000540     0.999989    0.00005194
  493      -16.4175702980      -0.0000000537     0.999989    0.00005180
  494      -16.4175703514      -0.0000000534     0.999989    0.00005166
  495      -16.4175704045      -0.0000000531     0.999989    0.00005152
  496      -16.4175704573      -0.0000000528     0.999989    0.00005138
  497      -16.4175705097      -0.0000000525     0.999989    0.00005124
  498      -16.4175705619      -0.0000000522     0.999989    0.00005111
  499      -16.4175706138      -0.0000000519     0.999989    0.00005097
  500      -16.4175706653      -0.0000000516     0.999989    0.00005083
  501      -16.4175707166      -0.0000000513     0.999989    0.00005069
  502      -16.4175707675      -0.0000000510     0.999989    0.00005055
  503      -16.4175708182      -0.0000000507     0.999989    0.00005041
  504      -16.4175708685      -0.0000000504     0.999989    0.00005027
  505      -16.4175709186      -0.0000000501     0.999989    0.00005013
  506      -16.4175709684      -0.0000000498     0.999989    0.00004999
  507      -16.4175710178      -0.0000000495     0.999989    0.00004985
  508      -16.4175710670      -0.0000000492     0.999989    0.00004971
  509      -16.4175711159      -0.0000000489     0.999989    0.00004957
  510      -16.4175711645      -0.0000000486     0.999989    0.00004943
  511      -16.4175712128      -0.0000000483     0.999989    0.00004929
  512      -16.4175712608      -0.0000000480     0.999989    0.00004916
  513      -16.4175713085      -0.0000000477     0.999989    0.00004902
  514      -16.4175713559      -0.0000000474     0.999989    0.00004888
  515      -16.4175714031      -0.0000000471     0.999989    0.00004874
  516      -16.4175714499      -0.0000000469     0.999989    0.00004860
  517      -16.4175714965      -0.0000000466     0.999989    0.00004846
  518      -16.4175715428      -0.0000000463     0.999989    0.00004832
  519      -16.4175715888      -0.0000000460     0.999989    0.00004818
  520      -16.4175716346      -0.0000000457     0.999989    0.00004804
  521      -16.4175716800      -0.0000000455     0.999989    0.00004790
  522      -16.4175717252      -0.0000000452     0.999989    0.00004776
  523      -16.4175717701      -0.0000000449     0.999989    0.00004763
  524      -16.4175718147      -0.0000000446     0.999989    0.00004749
  525      -16.4175718591      -0.0000000443     0.999989    0.00004735
  526      -16.4175719031      -0.0000000441     0.999989    0.00004721
  527      -16.4175719469      -0.0000000438     0.999989    0.00004707
  528      -16.4175719905      -0.0000000435     0.999989    0.00004693
  529      -16.4175720337      -0.0000000433     0.999989    0.00004679
  530      -16.4175720767      -0.0000000430     0.999989    0.00004666
  531      -16.4175721194      -0.0000000427     0.999989    0.00004652
  532      -16.4175721619      -0.0000000425     0.999989    0.00004638
  533      -16.4175722041      -0.0000000422     0.999989    0.00004624
  534      -16.4175722460      -0.0000000419     0.999989    0.00004610
  535      -16.4175722877      -0.0000000417     0.999989    0.00004596
  536      -16.4175723291      -0.0000000414     0.999989    0.00004583
  537      -16.4175723702      -0.0000000411     0.999989    0.00004569
  538      -16.4175724111      -0.0000000409     0.999989    0.00004555
  539      -16.4175724517      -0.0000000406     0.999989    0.00004541
  540      -16.4175724921      -0.0000000404     0.999989    0.00004527
  541      -16.4175725322      -0.0000000401     0.999989    0.00004514
  542      -16.4175725720      -0.0000000398     0.999989    0.00004500
  543      -16.4175726116      -0.0000000396     0.999989    0.00004486
  544      -16.4175726509      -0.0000000393     0.999989    0.00004472
  545      -16.4175726900      -0.0000000391     0.999990    0.00004459
  546      -16.4175727289      -0.0000000388     0.999990    0.00004445
  547      -16.4175727674      -0.0000000386     0.999990    0.00004431
  548      -16.4175728058      -0.0000000383     0.999990    0.00004418
  549      -16.4175728439      -0.0000000381     0.999990    0.00004404
  550      -16.4175728817      -0.0000000378     0.999990    0.00004390
  551      -16.4175729193      -0.0000000376     0.999990    0.00004376
  552      -16.4175729566      -0.0000000373     0.999990    0.00004363
  553      -16.4175729937      -0.0000000371     0.999990    0.00004349
  554      -16.4175730306      -0.0000000369     0.999990    0.00004336
  555      -16.4175730672      -0.0000000366     0.999990    0.00004322
  556      -16.4175731036      -0.0000000364     0.999990    0.00004308
  557      -16.4175731397      -0.0000000361     0.999990    0.00004295
  558      -16.4175731756      -0.0000000359     0.999990    0.00004281
  559      -16.4175732113      -0.0000000357     0.999990    0.00004267
  560      -16.4175732467      -0.0000000354     0.999990    0.00004254
  561      -16.4175732819      -0.0000000352     0.999990    0.00004240
  562      -16.4175733169      -0.0000000350     0.999990    0.00004227
  563      -16.4175733516      -0.0000000347     0.999990    0.00004213
  564      -16.4175733861      -0.0000000345     0.999990    0.00004200
  565      -16.4175734204      -0.0000000343     0.999990    0.00004186
  566      -16.4175734544      -0.0000000340     0.999990    0.00004173
  567      -16.4175734882      -0.0000000338     0.999990    0.00004159
  568      -16.4175735218      -0.0000000336     0.999990    0.00004146
  569      -16.4175735551      -0.0000000334     0.999990    0.00004132
  570      -16.4175735883      -0.0000000331     0.999990    0.00004119
  571      -16.4175736212      -0.0000000329     0.999990    0.00004105
  572      -16.4175736539      -0.0000000327     0.999990    0.00004092
  573      -16.4175736863      -0.0000000325     0.999990    0.00004078
  574      -16.4175737185      -0.0000000322     0.999990    0.00004065
  575      -16.4175737506      -0.0000000320     0.999990    0.00004052
  576      -16.4175737824      -0.0000000318     0.999990    0.00004038
  577      -16.4175738140      -0.0000000316     0.999990    0.00004025
  578      -16.4175738453      -0.0000000314     0.999990    0.00004012
  579      -16.4175738765      -0.0000000312     0.999990    0.00003998
  580      -16.4175739074      -0.0000000309     0.999990    0.00003985
  581      -16.4175739381      -0.0000000307     0.999990    0.00003972
  582      -16.4175739686      -0.0000000305     0.999990    0.00003958
  583      -16.4175739989      -0.0000000303     0.999990    0.00003945
  584      -16.4175740290      -0.0000000301     0.999990    0.00003932
  585      -16.4175740589      -0.0000000299     0.999990    0.00003919
  586      -16.4175740886      -0.0000000297     0.999990    0.00003906
  587      -16.4175741181      -0.0000000295     0.999990    0.00003892
  588      -16.4175741473      -0.0000000293     0.999990    0.00003879
  589      -16.4175741764      -0.0000000291     0.999990    0.00003866
  590      -16.4175742052      -0.0000000289     0.999990    0.00003853
  591      -16.4175742339      -0.0000000287     0.999990    0.00003840
  592      -16.4175742623      -0.0000000285     0.999990    0.00003827
  593      -16.4175742906      -0.0000000283     0.999990    0.00003814
  594      -16.4175743186      -0.0000000281     0.999990    0.00003801
  595      -16.4175743465      -0.0000000279     0.999990    0.00003788
  596      -16.4175743741      -0.0000000277     0.999990    0.00003774
  597      -16.4175744016      -0.0000000275     0.999990    0.00003761
  598      -16.4175744289      -0.0000000273     0.999990    0.00003748
  599      -16.4175744559      -0.0000000271     0.999990    0.00003735
  600      -16.4175744828      -0.0000000269     0.999990    0.00003723
  601      -16.4175745095      -0.0000000267     0.999990    0.00003710
  602      -16.4175745360      -0.0000000265     0.999990    0.00003697
  603      -16.4175745623      -0.0000000263     0.999990    0.00003684
  604      -16.4175745884      -0.0000000261     0.999990    0.00003671
  605      -16.4175746143      -0.0000000259     0.999990    0.00003658
  606      -16.4175746401      -0.0000000257     0.999990    0.00003645
  607      -16.4175746656      -0.0000000256     0.999990    0.00003632
  608      -16.4175746910      -0.0000000254     0.999990    0.00003620
  609      -16.4175747162      -0.0000000252     0.999990    0.00003607
  610      -16.4175747412      -0.0000000250     0.999990    0.00003594
  611      -16.4175747660      -0.0000000248     0.999990    0.00003581
  612      -16.4175747907      -0.0000000246     0.999990    0.00003569
  613      -16.4175748151      -0.0000000245     0.999990    0.00003556
  614      -16.4175748394      -0.0000000243     0.999990    0.00003543
  615      -16.4175748635      -0.0000000241     0.999990    0.00003531
  616      -16.4175748875      -0.0000000239     0.999990    0.00003518
  617      -16.4175749112      -0.0000000238     0.999990    0.00003505
  618      -16.4175749348      -0.0000000236     0.999990    0.00003493
  619      -16.4175749582      -0.0000000234     0.999990    0.00003480
  620      -16.4175749814      -0.0000000232     0.999990    0.00003468
  621      -16.4175750045      -0.0000000231     0.999990    0.00003455
  622      -16.4175750274      -0.0000000229     0.999990    0.00003443
  623      -16.4175750501      -0.0000000227     0.999990    0.00003430
  624      -16.4175750727      -0.0000000226     0.999990    0.00003418
  625      -16.4175750950      -0.0000000224     0.999990    0.00003405
  626      -16.4175751173      -0.0000000222     0.999990    0.00003393
  627      -16.4175751393      -0.0000000221     0.999990    0.00003381
  628      -16.4175751612      -0.0000000219     0.999990    0.00003368
  629      -16.4175751829      -0.0000000217     0.999990    0.00003356
  630      -16.4175752045      -0.0000000216     0.999990    0.00003344
  631      -16.4175752259      -0.0000000214     0.999990    0.00003331
  632      -16.4175752471      -0.0000000212     0.999990    0.00003319
  633      -16.4175752682      -0.0000000211     0.999990    0.00003307
  634      -16.4175752891      -0.0000000209     0.999990    0.00003295
  635      -16.4175753099      -0.0000000208     0.999990    0.00003282
  636      -16.4175753305      -0.0000000206     0.999990    0.00003270
  637      -16.4175753509      -0.0000000204     0.999990    0.00003258
  638      -16.4175753712      -0.0000000203     0.999990    0.00003246
  639      -16.4175753914      -0.0000000201     0.999990    0.00003234
  640      -16.4175754113      -0.0000000200     0.999990    0.00003222
  641      -16.4175754312      -0.0000000198     0.999990    0.00003210
  642      -16.4175754509      -0.0000000197     0.999990    0.00003198
  643      -16.4175754704      -0.0000000195     0.999990    0.00003186
  644      -16.4175754898      -0.0000000194     0.999990    0.00003174
  645      -16.4175755090      -0.0000000192     0.999990    0.00003162
  646      -16.4175755281      -0.0000000191     0.999990    0.00003150
  647      -16.4175755470      -0.0000000189     0.999990    0.00003138
  648      -16.4175755658      -0.0000000188     0.999990    0.00003126
  649      -16.4175755845      -0.0000000186     0.999990    0.00003114
  650      -16.4175756030      -0.0000000185     0.999990    0.00003102
  651      -16.4175756213      -0.0000000184     0.999990    0.00003091
  652      -16.4175756396      -0.0000000182     0.999990    0.00003079
  653      -16.4175756576      -0.0000000181     0.999990    0.00003067
  654      -16.4175756756      -0.0000000179     0.999990    0.00003055
  655      -16.4175756934      -0.0000000178     0.999990    0.00003044
  656      -16.4175757110      -0.0000000177     0.999990    0.00003032
  657      -16.4175757285      -0.0000000175     0.999990    0.00003020
  658      -16.4175757459      -0.0000000174     0.999991    0.00003009
  659      -16.4175757632      -0.0000000172     0.999991    0.00002997
  660      -16.4175757803      -0.0000000171     0.999991    0.00002986
  661      -16.4175757973      -0.0000000170     0.999991    0.00002974
  662      -16.4175758141      -0.0000000168     0.999991    0.00002963
  663      -16.4175758308      -0.0000000167     0.999991    0.00002951
  664      -16.4175758474      -0.0000000166     0.999991    0.00002940
  665      -16.4175758638      -0.0000000164     0.999991    0.00002928
  666      -16.4175758802      -0.0000000163     0.999991    0.00002917
  667      -16.4175758964      -0.0000000162     0.999991    0.00002905
  668      -16.4175759124      -0.0000000161     0.999991    0.00002894
  669      -16.4175759284      -0.0000000159     0.999991    0.00002883
  670      -16.4175759442      -0.0000000158     0.999991    0.00002872
  671      -16.4175759598      -0.0000000157     0.999991    0.00002860
  672      -16.4175759754      -0.0000000156     0.999991    0.00002849
  673      -16.4175759908      -0.0000000154     0.999991    0.00002838
  674      -16.4175760061      -0.0000000153     0.999991    0.00002827
  675      -16.4175760213      -0.0000000152     0.999991    0.00002816
  676      -16.4175760364      -0.0000000151     0.999991    0.00002804
  677      -16.4175760513      -0.0000000149     0.999991    0.00002793
  678      -16.4175760662      -0.0000000148     0.999991    0.00002782
  679      -16.4175760809      -0.0000000147     0.999991    0.00002771
  680      -16.4175760954      -0.0000000146     0.999991    0.00002760
  681      -16.4175761099      -0.0000000145     0.999991    0.00002749
  682      -16.4175761243      -0.0000000144     0.999991    0.00002738
  683      -16.4175761385      -0.0000000142     0.999991    0.00002727
  684      -16.4175761526      -0.0000000141     0.999991    0.00002716
  685      -16.4175761666      -0.0000000140     0.999991    0.00002706
  686      -16.4175761805      -0.0000000139     0.999991    0.00002695
  687      -16.4175761943      -0.0000000138     0.999991    0.00002684
  688      -16.4175762080      -0.0000000137     0.999991    0.00002673
  689      -16.4175762215      -0.0000000136     0.999991    0.00002662
  690      -16.4175762350      -0.0000000134     0.999991    0.00002652
  691      -16.4175762483      -0.0000000133     0.999991    0.00002641
  692      -16.4175762615      -0.0000000132     0.999991    0.00002630
  693      -16.4175762747      -0.0000000131     0.999991    0.00002620
  694      -16.4175762877      -0.0000000130     0.999991    0.00002609
  695      -16.4175763006      -0.0000000129     0.999991    0.00002598
  696      -16.4175763134      -0.0000000128     0.999991    0.00002588
  697      -16.4175763261      -0.0000000127     0.999991    0.00002577
  698      -16.4175763386      -0.0000000126     0.999991    0.00002567
  699      -16.4175763511      -0.0000000125     0.999991    0.00002556
  700      -16.4175763635      -0.0000000124     0.999991    0.00002546
  701      -16.4175763758      -0.0000000123     0.999991    0.00002536
  702      -16.4175763880      -0.0000000122     0.999991    0.00002525
  703      -16.4175764000      -0.0000000121     0.999991    0.00002515
  704      -16.4175764120      -0.0000000120     0.999991    0.00002505
  705      -16.4175764239      -0.0000000119     0.999991    0.00002494
  706      -16.4175764357      -0.0000000118     0.999991    0.00002484
  707      -16.4175764474      -0.0000000117     0.999991    0.00002474
  708      -16.4175764589      -0.0000000116     0.999991    0.00002464
  709      -16.4175764704      -0.0000000115     0.999991    0.00002453
  710      -16.4175764818      -0.0000000114     0.999991    0.00002443
  711      -16.4175764931      -0.0000000113     0.999991    0.00002433
  712      -16.4175765043      -0.0000000112     0.999991    0.00002423
  713      -16.4175765154      -0.0000000111     0.999991    0.00002413
  714      -16.4175765264      -0.0000000110     0.999991    0.00002403
  715      -16.4175765373      -0.0000000109     0.999991    0.00002393
  716      -16.4175765482      -0.0000000108     0.999991    0.00002383
  717      -16.4175765589      -0.0000000107     0.999991    0.00002373
  718      -16.4175765696      -0.0000000106     0.999991    0.00002363
  719      -16.4175765801      -0.0000000106     0.999991    0.00002353
  720      -16.4175765906      -0.0000000105     0.999991    0.00002343
  721      -16.4175766010      -0.0000000104     0.999991    0.00002334
  722      -16.4175766113      -0.0000000103     0.999991    0.00002324
  723      -16.4175766215      -0.0000000102     0.999991    0.00002314
  724      -16.4175766316      -0.0000000101     0.999991    0.00002304
  725      -16.4175766416      -0.0000000100     0.999991    0.00002295
  726      -16.4175766516      -0.0000000099     0.999991    0.00002285
  727      -16.4175766614      -0.0000000099     0.999991    0.00002275
  728      -16.4175766712      -0.0000000098     0.999991    0.00002266
  729      -16.4175766809      -0.0000000097     0.999991    0.00002256
  730      -16.4175766905      -0.0000000096     0.999991    0.00002247
  731      -16.4175767000      -0.0000000095     0.999991    0.00002237
  732      -16.4175767095      -0.0000000094     0.999991    0.00002227
  733      -16.4175767188      -0.0000000094     0.999991    0.00002218
  734      -16.4175767281      -0.0000000093     0.999991    0.00002209
  735      -16.4175767373      -0.0000000092     0.999991    0.00002199
  736      -16.4175767465      -0.0000000091     0.999991    0.00002190
  737      -16.4175767555      -0.0000000090     0.999991    0.00002180
  738      -16.4175767645      -0.0000000090     0.999991    0.00002171
  739      -16.4175767734      -0.0000000089     0.999991    0.00002162
  740      -16.4175767822      -0.0000000088     0.999991    0.00002153
  741      -16.4175767909      -0.0000000087     0.999991    0.00002143
  742      -16.4175767996      -0.0000000087     0.999991    0.00002134
  743      -16.4175768082      -0.0000000086     0.999991    0.00002125
  744      -16.4175768167      -0.0000000085     0.999991    0.00002116
  745      -16.4175768251      -0.0000000084     0.999991    0.00002107
  746      -16.4175768335      -0.0000000084     0.999991    0.00002098
  747      -16.4175768418      -0.0000000083     0.999991    0.00002089
  748      -16.4175768500      -0.0000000082     0.999991    0.00002080
  749      -16.4175768582      -0.0000000082     0.999991    0.00002071
  750      -16.4175768663      -0.0000000081     0.999991    0.00002062
  751      -16.4175768743      -0.0000000080     0.999991    0.00002053
  752      -16.4175768822      -0.0000000079     0.999991    0.00002044
  753      -16.4175768901      -0.0000000079     0.999991    0.00002035
  754      -16.4175768979      -0.0000000078     0.999991    0.00002026
  755      -16.4175769056      -0.0000000077     0.999991    0.00002017
  756      -16.4175769133      -0.0000000077     0.999991    0.00002009
  757      -16.4175769209      -0.0000000076     0.999991    0.00002000
  758      -16.4175769284      -0.0000000075     0.999991    0.00001991
  759      -16.4175769359      -0.0000000075     0.999991    0.00001982
  760      -16.4175769433      -0.0000000074     0.999991    0.00001974
  761      -16.4175769506      -0.0000000073     0.999991    0.00001965
  762      -16.4175769579      -0.0000000073     0.999991    0.00001956
  763      -16.4175769651      -0.0000000072     0.999991    0.00001948
  764      -16.4175769722      -0.0000000071     0.999991    0.00001939
  765      -16.4175769793      -0.0000000071     0.999991    0.00001931
  766      -16.4175769863      -0.0000000070     0.999991    0.00001922
  767      -16.4175769933      -0.0000000070     0.999991    0.00001914
  768      -16.4175770002      -0.0000000069     0.999991    0.00001905
  769      -16.4175770070      -0.0000000068     0.999991    0.00001897
  770      -16.4175770138      -0.0000000068     0.999991    0.00001889
  771      -16.4175770205      -0.0000000067     0.999991    0.00001880
  772      -16.4175770271      -0.0000000067     0.999991    0.00001872
  773      -16.4175770337      -0.0000000066     0.999991    0.00001864
  774      -16.4175770403      -0.0000000065     0.999991    0.00001855
  775      -16.4175770467      -0.0000000065     0.999991    0.00001847
  776      -16.4175770532      -0.0000000064     0.999991    0.00001839
  777      -16.4175770595      -0.0000000064     0.999991    0.00001831
  778      -16.4175770658      -0.0000000063     0.999991    0.00001823
  779      -16.4175770721      -0.0000000062     0.999991    0.00001815
  780      -16.4175770783      -0.0000000062     0.999991    0.00001807
  781      -16.4175770844      -0.0000000061     0.999991    0.00001798
  782      -16.4175770905      -0.0000000061     0.999991    0.00001790
  783      -16.4175770965      -0.0000000060     0.999991    0.00001782
  784      -16.4175771025      -0.0000000060     0.999991    0.00001774
  785      -16.4175771084      -0.0000000059     0.999991    0.00001767
  786      -16.4175771143      -0.0000000059     0.999991    0.00001759
  787      -16.4175771201      -0.0000000058     0.999991    0.00001751
  788      -16.4175771258      -0.0000000058     0.999991    0.00001743
  789      -16.4175771315      -0.0000000057     0.999991    0.00001735
  790      -16.4175771372      -0.0000000057     0.999991    0.00001727
  791      -16.4175771428      -0.0000000056     0.999991    0.00001719
  792      -16.4175771483      -0.0000000056     0.999991    0.00001712
  793      -16.4175771539      -0.0000000055     0.999991    0.00001704
  794      -16.4175771593      -0.0000000055     0.999991    0.00001696
  795      -16.4175771647      -0.0000000054     0.999991    0.00001689
  796      -16.4175771701      -0.0000000054     0.999991    0.00001681
  797      -16.4175771754      -0.0000000053     0.999991    0.00001673
  798      -16.4175771806      -0.0000000053     0.999991    0.00001666
  799      -16.4175771858      -0.0000000052     0.999991    0.00001658
  800      -16.4175771910      -0.0000000052     0.999991    0.00001651
  801      -16.4175771961      -0.0000000051     0.999991    0.00001643
  802      -16.4175772012      -0.0000000051     0.999991    0.00001636
  803      -16.4175772062      -0.0000000050     0.999991    0.00001628
  804      -16.4175772112      -0.0000000050     0.999991    0.00001621
  805      -16.4175772161      -0.0000000049     0.999991    0.00001614
  806      -16.4175772210      -0.0000000049     0.999991    0.00001606
  807      -16.4175772259      -0.0000000048     0.999991    0.00001599
  808      -16.4175772307      -0.0000000048     0.999991    0.00001592
  809      -16.4175772354      -0.0000000048     0.999991    0.00001584
  810      -16.4175772401      -0.0000000047     0.999991    0.00001577
  811      -16.4175772448      -0.0000000047     0.999991    0.00001570
  812      -16.4175772494      -0.0000000046     0.999991    0.00001563
  813      -16.4175772540      -0.0000000046     0.999991    0.00001556
  814      -16.4175772585      -0.0000000045     0.999991    0.00001549
  815      -16.4175772630      -0.0000000045     0.999991    0.00001541
  816      -16.4175772675      -0.0000000045     0.999991    0.00001534
  817      -16.4175772719      -0.0000000044     0.999991    0.00001527
  818      -16.4175772763      -0.0000000044     0.999991    0.00001520
  819      -16.4175772806      -0.0000000043     0.999991    0.00001513
  820      -16.4175772849      -0.0000000043     0.999991    0.00001506
  821      -16.4175772892      -0.0000000043     0.999991    0.00001499
  822      -16.4175772934      -0.0000000042     0.999991    0.00001493
  823      -16.4175772976      -0.0000000042     0.999991    0.00001486
  824      -16.4175773017      -0.0000000041     0.999991    0.00001479
  825      -16.4175773058      -0.0000000041     0.999991    0.00001472
  826      -16.4175773099      -0.0000000041     0.999991    0.00001465
  827      -16.4175773139      -0.0000000040     0.999991    0.00001458
  828      -16.4175773179      -0.0000000040     0.999991    0.00001452
  829      -16.4175773218      -0.0000000039     0.999991    0.00001445
  830      -16.4175773257      -0.0000000039     0.999991    0.00001438
  831      -16.4175773296      -0.0000000039     0.999991    0.00001432
  832      -16.4175773334      -0.0000000038     0.999991    0.00001425
  833      -16.4175773373      -0.0000000038     0.999991    0.00001418
  834      -16.4175773410      -0.0000000038     0.999991    0.00001412
  835      -16.4175773448      -0.0000000037     0.999991    0.00001405
  836      -16.4175773485      -0.0000000037     0.999991    0.00001399
  837      -16.4175773521      -0.0000000037     0.999991    0.00001392
  838      -16.4175773557      -0.0000000036     0.999991    0.00001386
  839      -16.4175773593      -0.0000000036     0.999991    0.00001379
  840      -16.4175773629      -0.0000000036     0.999991    0.00001373
  841      -16.4175773664      -0.0000000035     0.999991    0.00001366
  842      -16.4175773699      -0.0000000035     0.999991    0.00001360
  843      -16.4175773734      -0.0000000035     0.999991    0.00001354
  844      -16.4175773768      -0.0000000034     0.999991    0.00001347
  845      -16.4175773802      -0.0000000034     0.999991    0.00001341
  846      -16.4175773836      -0.0000000034     0.999991    0.00001335
  847      -16.4175773869      -0.0000000033     0.999991    0.00001328
  848      -16.4175773902      -0.0000000033     0.999991    0.00001322
  849      -16.4175773935      -0.0000000033     0.999991    0.00001316
  850      -16.4175773967      -0.0000000032     0.999991    0.00001310
  851      -16.4175774000      -0.0000000032     0.999991    0.00001304
  852      -16.4175774031      -0.0000000032     0.999991    0.00001297
  853      -16.4175774063      -0.0000000032     0.999991    0.00001291
  854      -16.4175774094      -0.0000000031     0.999991    0.00001285
  855      -16.4175774125      -0.0000000031     0.999991    0.00001279
  856      -16.4175774156      -0.0000000031     0.999991    0.00001273
  857      -16.4175774186      -0.0000000030     0.999991    0.00001267
  858      -16.4175774216      -0.0000000030     0.999991    0.00001261
  859      -16.4175774246      -0.0000000030     0.999991    0.00001255
  860      -16.4175774275      -0.0000000029     0.999991    0.00001249
  861      -16.4175774305      -0.0000000029     0.999991    0.00001243
  862      -16.4175774333      -0.0000000029     0.999991    0.00001238
  863      -16.4175774362      -0.0000000029     0.999991    0.00001232
  864      -16.4175774391      -0.0000000028     0.999991    0.00001226
  865      -16.4175774419      -0.0000000028     0.999991    0.00001220
  866      -16.4175774446      -0.0000000028     0.999991    0.00001214
  867      -16.4175774474      -0.0000000028     0.999991    0.00001208
  868      -16.4175774501      -0.0000000027     0.999991    0.00001203
  869      -16.4175774528      -0.0000000027     0.999991    0.00001197
  870      -16.4175774555      -0.0000000027     0.999991    0.00001191
  871      -16.4175774582      -0.0000000027     0.999992    0.00001186
  872      -16.4175774608      -0.0000000026     0.999992    0.00001180
  873      -16.4175774634      -0.0000000026     0.999992    0.00001174
  874      -16.4175774660      -0.0000000026     0.999992    0.00001169
  875      -16.4175774685      -0.0000000026     0.999992    0.00001163
  876      -16.4175774711      -0.0000000025     0.999992    0.00001158
  877      -16.4175774736      -0.0000000025     0.999992    0.00001152
  878      -16.4175774761      -0.0000000025     0.999992    0.00001147
  879      -16.4175774785      -0.0000000025     0.999992    0.00001141
  880      -16.4175774810      -0.0000000024     0.999992    0.00001136
  881      -16.4175774834      -0.0000000024     0.999992    0.00001130
  882      -16.4175774858      -0.0000000024     0.999992    0.00001125
  883      -16.4175774881      -0.0000000024     0.999992    0.00001119
  884      -16.4175774905      -0.0000000023     0.999992    0.00001114
  885      -16.4175774928      -0.0000000023     0.999992    0.00001109
  886      -16.4175774951      -0.0000000023     0.999992    0.00001103
  887      -16.4175774974      -0.0000000023     0.999992    0.00001098
  888      -16.4175774996      -0.0000000023     0.999992    0.00001093
  889      -16.4175775018      -0.0000000022     0.999992    0.00001088
  890      -16.4175775041      -0.0000000022     0.999992    0.00001082
  891      -16.4175775062      -0.0000000022     0.999992    0.00001077
  892      -16.4175775084      -0.0000000022     0.999992    0.00001072
  893      -16.4175775106      -0.0000000021     0.999992    0.00001067
  894      -16.4175775127      -0.0000000021     0.999992    0.00001062
  895      -16.4175775148      -0.0000000021     0.999992    0.00001057
  896      -16.4175775169      -0.0000000021     0.999992    0.00001052
  897      -16.4175775190      -0.0000000021     0.999992    0.00001046
  898      -16.4175775210      -0.0000000020     0.999992    0.00001041
  899      -16.4175775230      -0.0000000020     0.999992    0.00001036
  900      -16.4175775250      -0.0000000020     0.999992    0.00001031
  901      -16.4175775270      -0.0000000020     0.999992    0.00001026
  902      -16.4175775290      -0.0000000020     0.999992    0.00001021
  903      -16.4175775309      -0.0000000019     0.999992    0.00001016
  904      -16.4175775329      -0.0000000019     0.999992    0.00001012
  905      -16.4175775348      -0.0000000019     0.999992    0.00001007
  906      -16.4175775367      -0.0000000019     0.999992    0.00001002
  907      -16.4175775385      -0.0000000019     0.999992    0.00000997
  908      -16.4175775404      -0.0000000019     0.999992    0.00000992
  909      -16.4175775422      -0.0000000018     0.999992    0.00000987
  910      -16.4175775441      -0.0000000018     0.999992    0.00000983
  911      -16.4175775459      -0.0000000018     0.999992    0.00000978
  912      -16.4175775476      -0.0000000018     0.999992    0.00000973
  913      -16.4175775494      -0.0000000018     0.999992    0.00000968
  914      -16.4175775512      -0.0000000018     0.999992    0.00000964
  915      -16.4175775529      -0.0000000017     0.999992    0.00000959
  916      -16.4175775546      -0.0000000017     0.999992    0.00000954
  917      -16.4175775563      -0.0000000017     0.999992    0.00000950
  918      -16.4175775580      -0.0000000017     0.999992    0.00000945
  919      -16.4175775597      -0.0000000017     0.999992    0.00000940
  920      -16.4175775613      -0.0000000017     0.999992    0.00000936
  921      -16.4175775630      -0.0000000016     0.999992    0.00000931
  922      -16.4175775646      -0.0000000016     0.999992    0.00000927
  923      -16.4175775662      -0.0000000016     0.999992    0.00000922
  924      -16.4175775678      -0.0000000016     0.999992    0.00000918
  925      -16.4175775693      -0.0000000016     0.999992    0.00000913
  926      -16.4175775709      -0.0000000016     0.999992    0.00000909
  927      -16.4175775724      -0.0000000015     0.999992    0.00000904
  928      -16.4175775740      -0.0000000015     0.999992    0.00000900
  929      -16.4175775755      -0.0000000015     0.999992    0.00000895
  930      -16.4175775770      -0.0000000015     0.999992    0.00000891
  931      -16.4175775784      -0.0000000015     0.999992    0.00000887
  932      -16.4175775799      -0.0000000015     0.999992    0.00000882
  933      -16.4175775814      -0.0000000015     0.999992    0.00000878
  934      -16.4175775828      -0.0000000014     0.999992    0.00000874
  935      -16.4175775842      -0.0000000014     0.999992    0.00000869
  936      -16.4175775856      -0.0000000014     0.999992    0.00000865
  937      -16.4175775870      -0.0000000014     0.999992    0.00000861
  938      -16.4175775884      -0.0000000014     0.999992    0.00000857
  939      -16.4175775898      -0.0000000014     0.999992    0.00000852
  940      -16.4175775911      -0.0000000014     0.999992    0.00000848
  941      -16.4175775925      -0.0000000013     0.999992    0.00000844
  942      -16.4175775938      -0.0000000013     0.999992    0.00000840
  943      -16.4175775951      -0.0000000013     0.999992    0.00000836
  944      -16.4175775964      -0.0000000013     0.999992    0.00000832
  945      -16.4175775977      -0.0000000013     0.999992    0.00000828
  946      -16.4175775990      -0.0000000013     0.999992    0.00000823
  947      -16.4175776003      -0.0000000013     0.999992    0.00000819
  948      -16.4175776015      -0.0000000013     0.999992    0.00000815
  949      -16.4175776028      -0.0000000012     0.999992    0.00000811
  950      -16.4175776040      -0.0000000012     0.999992    0.00000807
  951      -16.4175776052      -0.0000000012     0.999992    0.00000803
  952      -16.4175776064      -0.0000000012     0.999992    0.00000799
  953      -16.4175776076      -0.0000000012     0.999992    0.00000795
  954      -16.4175776088      -0.0000000012     0.999992    0.00000791
  955      -16.4175776099      -0.0000000012     0.999992    0.00000788
  956      -16.4175776111      -0.0000000012     0.999992    0.00000784
  957      -16.4175776123      -0.0000000011     0.999992    0.00000780
  958      -16.4175776134      -0.0000000011     0.999992    0.00000776
  959      -16.4175776145      -0.0000000011     0.999992    0.00000772
  960      -16.4175776156      -0.0000000011     0.999992    0.00000768
  961      -16.4175776167      -0.0000000011     0.999992    0.00000764
  962      -16.4175776178      -0.0000000011     0.999992    0.00000761
  963      -16.4175776189      -0.0000000011     0.999992    0.00000757
  964      -16.4175776200      -0.0000000011     0.999992    0.00000753
  965      -16.4175776210      -0.0000000011     0.999992    0.00000749
  966      -16.4175776221      -0.0000000010     0.999992    0.00000746
  967      -16.4175776231      -0.0000000010     0.999992    0.00000742
  968      -16.4175776241      -0.0000000010     0.999992    0.00000738
  969      -16.4175776251      -0.0000000010     0.999992    0.00000735
  970      -16.4175776261      -0.0000000010     0.999992    0.00000731
  971      -16.4175776271      -0.0000000010     0.999992    0.00000727
  972      -16.4175776281      -0.0000000010     0.999992    0.00000724
  973      -16.4175776291      -0.0000000010     0.999992    0.00000720
  974      -16.4175776301      -0.0000000010     0.999992    0.00000717
  975      -16.4175776310      -0.0000000010     0.999992    0.00000713
  976      -16.4175776320      -0.0000000009     0.999992    0.00000709
  977      -16.4175776329      -0.0000000009     0.999992    0.00000706
  978      -16.4175776338      -0.0000000009     0.999992    0.00000702
  979      -16.4175776348      -0.0000000009     0.999992    0.00000699
  980      -16.4175776357      -0.0000000009     0.999992    0.00000695
  981      -16.4175776366      -0.0000000009     0.999992    0.00000692
  982      -16.4175776375      -0.0000000009     0.999992    0.00000688
  983      -16.4175776384      -0.0000000009     0.999992    0.00000685
  984      -16.4175776392      -0.0000000009     0.999992    0.00000682
  985      -16.4175776401      -0.0000000009     0.999992    0.00000678
  986      -16.4175776410      -0.0000000009     0.999992    0.00000675
  987      -16.4175776418      -0.0000000008     0.999992    0.00000671
  988      -16.4175776426      -0.0000000008     0.999992    0.00000668
  989      -16.4175776435      -0.0000000008     0.999992    0.00000665
  990      -16.4175776443      -0.0000000008     0.999992    0.00000661
  991      -16.4175776451      -0.0000000008     0.999992    0.00000658
  992      -16.4175776459      -0.0000000008     0.999992    0.00000655
  993      -16.4175776467      -0.0000000008     0.999992    0.00000651
  994      -16.4175776475      -0.0000000008     0.999992    0.00000648
  995      -16.4175776483      -0.0000000008     0.999992    0.00000645
  996      -16.4175776491      -0.0000000008     0.999992    0.00000642
  997      -16.4175776498      -0.0000000008     0.999992    0.00000639
  998      -16.4175776506      -0.0000000008     0.999992    0.00000635
  999      -16.4175776513      -0.0000000008     0.999992    0.00000632
 1000      -16.4175776521      -0.0000000007     0.999992    0.00000629

Total Energy:                      -16.4175776521 H         -446.7450 eV
Extrapolated to 0:                 -16.3903779036 H         -446.0049 eV

----------------------------------------------------------------------------------
 Solving CP-REKS equation for  1 state vector...
----------------------------------------------------------------------------------
  CG solver: Constructing Y initial guess
  CG solver: Iteration    1    eps =    0.038476100257
  CG solver: Iteration    2    eps =    0.003613048603
  CG solver: Iteration    3    eps =    0.000819181752
  CG solver: Iteration    4    eps =    0.000496005571
  CG solver: Iteration    5    eps =    0.000306568496
  CG solver: Iteration    6    eps =    0.000766626772
  CG solver: Iteration    7    eps =    0.001795899177
  CG solver: Iteration    8    eps =    0.001514450642
  CG solver: Iteration    9    eps =    0.000216625858
  CG solver: Iteration   10    eps =    0.000056663329
  CG solver: Iteration   11    eps =    0.000036886104
  CG solver: Iteration   12    eps =    0.000004376549
  CG solver: Iteration   13    eps =    0.000000666471
  CG solver: Iteration   14    eps =    0.000000084698
  CG solver: Iteration   15    eps =    0.000000004941
  Convergence reached in CG solver after   15 iterations
  CG solver: Calculating converged R, Z, Q2 matrix
----------------------------------------------------------------------------------

----------------------------------------------------------------------------------
 Solving CP-REKS equation for SI between  1 and  2 state vectors...
----------------------------------------------------------------------------------
  CG solver: Constructing Y initial guess
  CG solver: Iteration    1    eps =    0.048679217711
  CG solver: Iteration    2    eps =    0.005015894002
  CG solver: Iteration    3    eps =    0.006919848366
  CG solver: Iteration    4    eps =    0.009861751116
  CG solver: Iteration    5    eps =    0.020328665450
  CG solver: Iteration    6    eps =    0.022759033578
  CG solver: Iteration    7    eps =    0.007720660171
  CG solver: Iteration    8    eps =    0.000681523351
  CG solver: Iteration    9    eps =    0.000115556061
  CG solver: Iteration   10    eps =    0.000023281625
  CG solver: Iteration   11    eps =    0.000002069723
  CG solver: Iteration   12    eps =    0.000000096327
  CG solver: Iteration   13    eps =    0.000000011640
  CG solver: Iteration   14    eps =    0.000000002402
  Convergence reached in CG solver after   14 iterations
  CG solver: Calculating converged R, Z, Q2 matrix
----------------------------------------------------------------------------------

--------------------------------------------------
 Gradient Information
--------------------------------------------------
           1 st state (SSR)
     0.00000000     0.00000000     0.00000000
     0.00000000     0.00000000     0.00000000
     0.00000000     0.00000000     0.00000000
     0.00000000     0.00000000     0.00000000
     0.00000000     0.00000000     0.00000000
     0.00000000     0.00000000     0.00000000
     0.00000000     0.00000000     0.00000000
     0.00000000     0.00000000     0.00000000
     0.00000000     0.00000000     0.00000000
     0.00000000     0.00000000     0.00000000
     0.00000000     0.00000000     0.00000000
     0.00000000     0.00000000     0.00000000
     0.00000000     0.00000000     0.00000000
     0.00000000     0.00000000     0.00000000

           2 st state (SSR)
     0.00000000     0.00000000     0.00000000
     0.00000000     0.00000000     0.00000000
     0.00000000     0.00000000     0.00000000
     0.00000000     0.00000000     0.00000000
     0.00000000     0.00000000     0.00000000
     0.00000000     0.00000000     0.00000000
     0.00000000     0.00000000     0.00000000
     0.00000000     0.00000000     0.00000000
     0.00000000     0.00000000     0.00000000
     0.00000000     0.00000000     0.00000000
     0.00000000     0.00000000     0.00000000
     0.00000000     0.00000000     0.00000000
     0.00000000     0.00000000     0.00000000
     0.00000000     0.00000000     0.00000000
--------------------------------------------------
 Coupling Information
--------------------------------------------------
 between  1 and  2 states
--------------------------------------------------
 g vector - difference gradient
     0.32777021     0.21834671    -0.06065961
    -0.23797973    -0.23665127     0.10629152
    -0.07668497    -0.08369580     0.01316237
     0.05709542    -0.00727117     0.04527721
    -0.06822840     0.00910446     0.02096637
     0.30794791     0.15023425    -0.03514161
    -0.23806187    -0.34411601    -0.11457429
     0.00957963    -0.05335174    -0.02988092
     0.01438559    -0.03445383     0.01629452
     0.17436231     0.46097137     0.16597654
    -0.17119791     0.06934319    -0.06368353
    -0.05445985    -0.20071667    -0.10647766
    -0.00725149    -0.01687786     0.02648663
    -0.03727685     0.06913437     0.01596247

 h vector - derivative coupling
     0.31597140     0.20415570    -0.12683739
    -0.20192021    -0.33089356     0.12353121
    -0.22128977     0.06600251    -0.05808051
     0.15622175    -0.04728683     0.10056369
    -0.26274446     0.14660007     0.00278816
     0.69010887     0.07463741     0.17858824
    -0.35739545    -0.12325361    -0.11690974
    -0.02998871     0.01413200    -0.00156035
    -0.00399507     0.07945275    -0.01851535
    -0.00576626    -0.07745593    -0.10423699
    -0.06888947    -0.00294860     0.00486682
    -0.00754262     0.00360291     0.01318581
    -0.00411368     0.00382572    -0.00378060
     0.00134366    -0.01057053     0.00639700

 G vector - GDV
     0.00000000     0.00000000     0.00000000
     0.00000000     0.00000000     0.00000000
     0.00000000     0.00000000     0.00000000
     0.00000000     0.00000000     0.00000000
     0.00000000     0.00000000     0.00000000
     0.00000000     0.00000000     0.00000000
     0.00000000     0.00000000     0.00000000
     0.00000000     0.00000000     0.00000000
     0.00000000     0.00000000     0.00000000
     0.00000000     0.00000000     0.00000000
     0.00000000     0.00000000     0.00000000
     0.00000000     0.00000000     0.00000000
     0.00000000     0.00000000     0.00000000
     0.00000000     0.00000000     0.00000000

 H vector - DCV - non-adiabatic coupling
     0.00000000     0.00000000     0.00000000
     0.00000000     0.00000000     0.00000000
     0.00000000     0.00000000     0.00000000
     0.00000000     0.00000000     0.00000000
     0.00000000     0.00000000     0.00000000
     0.00000000     0.00000000     0.00000000
     0.00000000     0.00000000     0.00000000
     0.00000000     0.00000000     0.00000000
     0.00000000     0.00000000     0.00000000
     0.00000000     0.00000000     0.00000000
     0.00000000     0.00000000     0.00000000
     0.00000000     0.00000000     0.00000000
     0.00000000     0.00000000     0.00000000
     0.00000000     0.00000000     0.00000000
--------------------------------------------------

WARNING!
-> SCC is NOT converged, maximal SCC iterations exceeded

--------------------------------------------------------------------------------
DFTB+ running times                          cpu [s]             wall clock [s]
--------------------------------------------------------------------------------
SCC                                    +     1.45  ( 78.8%)      1.46  ( 78.8%)
      Sparse to dense                        0.08  (  4.1%)      0.09  (  4.7%)
      Dense to sparse                        0.26  ( 14.2%)      0.27  ( 14.4%)
      Range separated Hamiltonian            0.13  (  6.9%)      0.12  (  6.6%)
  Density matrix creation                    0.16  (  8.6%)      0.17  (  8.9%)
  Force calculation                          0.39  ( 21.1%)      0.39  ( 21.0%)
--------------------------------------------------------------------------------
Missing                                +     0.39  ( 21.2%)      0.39  ( 21.2%)
Total                                  =     1.84  (100.0%)      1.86  (100.0%)
--------------------------------------------------------------------------------
