|===============================================================================
|
|  DFTB+ release 20.1
|
|  Copyright (C) 2006 - 2020  DFTB+ developers group
|
|===============================================================================
|
|  When publishing results obtained with DFTB+, please cite the following
|  reference:
|
|  * DFTB+, a software package for efficient approximate density functional
|    theory based atomistic simulations, J. Chem. Phys. 152, 124101 (2020).
|    [doi: 10.1063/1.5143190]
|
|  You should also cite additional publications crediting the parametrization
|  data you use. Please consult the documentation of the SK-files for the
|  references.
|
|===============================================================================

Reading input file 'dftb_in.hsd'
Parser version: 8

--------------------------------------------------------------------------------
Reading SK-files:
Done.


Processed input in HSD format written to 'dftb_pin.hsd'

Starting initialization...
--------------------------------------------------------------------------------
OpenMP threads:              1
Chosen random seed:          501399163
Mode:                        Static calculation
Self consistent charges:     Yes
SCC-tolerance:                 0.100000E-05
Max. scc iterations:                   1000
Shell resolved Hubbard:      No
Spin polarisation:           No
Nr. of up electrons:            16.000000
Nr. of down electrons:          16.000000
Periodic boundaries:         No
Electronic solver:           Relatively robust
Maximal SCC-cycles:                    1000
Initial charges:             Set automatically (system chrg:   0.100E+01)
Included shells:             C:  s, p
                             H:  s
                             N:  s, p
Spin coupling constants:     C   1(s)-1(s):  -0.455900E-01
                             C   1(s)-2(p):  -0.293000E-01
                             C   2(p)-1(s):  -0.293000E-01
                             C   2(p)-2(p):  -0.275500E-01
                             H   1(s)-1(s):  -0.792500E-01
                             N   1(s)-1(s):  -0.468700E-01
                             N   1(s)-2(p):  -0.317000E-01
                             N   2(p)-1(s):  -0.317000E-01
                             N   2(p)-2(p):  -0.307200E-01
Range separated hybrid:      Yes
  Screening parameter omega:   0.300000E+00
  Range separated algorithm:   MatrixBased
Extra options:
                             Mulliken analysis
                             Force calculation
Force type                   original
                             Eigenvector printing


REKS Calcuation:             Yes
SSR(2,2) Calcuation:         Yes
Energy Functional:           (PPS+OSS)/2
Number of Core Orbitals:                 15
Number of Active Orbitals:                2
Number of Basis:                         32
Number of States:                         2
State-Averaging Weight:          0.500000
                                 0.500000
State of Interest:                        1
Initial Guess:               Diagonalize H0 matrix
Newton-Raphson for FON opt:  Yes
NR max. Iterations:                      50
Level Shifting:              Yes
Shift Value:                     0.300000
W Scale Factor:              C  =    3.200000
                             H  =    3.200000
                             N  =    3.200000
Transition Dipole:           No
Gradient of Microstate:      No
CP-REKS Solver:              Preconditioned Conjugate-Gradient
CG max. Iterations:                     100
CG Tolerance:                  0.100000E-07
Memory for A and Hxc:        Direct Updating Without Saving
Non-Adiabatic Coupling:      Yes

--------------------------------------------------------------------------------

***  Geometry step: 0

  iSCC       reks energy        Diff energy         x_a       SCC error   
    1      -16.3726383301       0.0000000000     0.999945    1.20157231
    2      -16.3896056354      -0.0169673053     0.999993    0.03687652
    3      -16.3926170179      -0.0030113825     0.999998    0.01431056
    4      -16.3936099199      -0.0009929019     0.999999    0.00771917
    5      -16.3940429256      -0.0004330057     0.999999    0.00480330
    6      -16.3942607676      -0.0002178420     0.999999    0.00317400
    7      -16.3943814059      -0.0001206383     0.999999    0.00212681
    8      -16.3944536244      -0.0000722185     1.000000    0.00163047
    9      -16.3944999594      -0.0000463350     1.000000    0.00127870
   10      -16.3945316262      -0.0000316669     1.000000    0.00102040
   11      -16.3945545377      -0.0000229115     1.000000    0.00092040
   12      -16.3945719686      -0.0000174309     1.000000    0.00083816
   13      -16.3945858153      -0.0000138466     1.000000    0.00076599
   14      -16.3945972214      -0.0000114061     1.000000    0.00070291
   15      -16.3946069031      -0.0000096818     1.000000    0.00064789
   16      -16.3946153249      -0.0000084217     1.000000    0.00059990
   17      -16.3946227970      -0.0000074722     1.000000    0.00055802
   18      -16.3946295335      -0.0000067365     1.000000    0.00052141
   19      -16.3946356853      -0.0000061518     1.000000    0.00048934
   20      -16.3946413617      -0.0000056765     1.000000    0.00046116
   21      -16.3946466437      -0.0000052819     1.000000    0.00043632
   22      -16.3946515920      -0.0000049483     1.000000    0.00041434
   23      -16.3946562534      -0.0000046614     1.000000    0.00039484
   24      -16.3946606645      -0.0000044111     1.000000    0.00037745
   25      -16.3946648542      -0.0000041897     1.000000    0.00036188
   26      -16.3946688458      -0.0000039916     1.000000    0.00034790
   27      -16.3946726583      -0.0000038125     1.000000    0.00033528
   28      -16.3946763075      -0.0000036492     1.000000    0.00032384
   29      -16.3946798066      -0.0000034991     1.000000    0.00031343
   30      -16.3946831668      -0.0000033602     1.000000    0.00030392
   31      -16.3946863978      -0.0000032310     1.000000    0.00029519
   32      -16.3946895079      -0.0000031101     1.000000    0.00028716
   33      -16.3946925045      -0.0000029966     1.000000    0.00027973
   34      -16.3946953943      -0.0000028897     1.000000    0.00027283
   35      -16.3946981830      -0.0000027887     1.000000    0.00026641
   36      -16.3947008760      -0.0000026930     1.000000    0.00026041
   37      -16.3947034780      -0.0000026021     1.000000    0.00025479
   38      -16.3947059937      -0.0000025156     1.000000    0.00024949
   39      -16.3947084269      -0.0000024332     1.000000    0.00024511
   40      -16.3947107815      -0.0000023546     1.000000    0.00024093
   41      -16.3947130611      -0.0000022795     1.000000    0.00023683
   42      -16.3947152688      -0.0000022077     1.000000    0.00023283
   43      -16.3947174078      -0.0000021390     1.000000    0.00022891
   44      -16.3947194810      -0.0000020732     1.000000    0.00022509
   45      -16.3947214911      -0.0000020101     1.000000    0.00022135
   46      -16.3947234407      -0.0000019496     1.000000    0.00021770
   47      -16.3947253322      -0.0000018915     1.000000    0.00021414
   48      -16.3947271679      -0.0000018357     1.000000    0.00021066
   49      -16.3947289500      -0.0000017821     1.000000    0.00020726
   50      -16.3947306806      -0.0000017306     1.000000    0.00020394
   51      -16.3947323616      -0.0000016810     1.000000    0.00020070
   52      -16.3947339950      -0.0000016334     1.000000    0.00019753
   53      -16.3947355825      -0.0000015875     1.000000    0.00019444
   54      -16.3947371258      -0.0000015433     1.000000    0.00019148
   55      -16.3947386266      -0.0000015008     1.000000    0.00018885
   56      -16.3947400864      -0.0000014598     1.000000    0.00018629
   57      -16.3947415068      -0.0000014203     1.000000    0.00018380
   58      -16.3947428890      -0.0000013822     1.000000    0.00018138
   59      -16.3947442345      -0.0000013455     1.000000    0.00017901
   60      -16.3947455445      -0.0000013101     1.000000    0.00017671
   61      -16.3947468204      -0.0000012759     1.000000    0.00017446
   62      -16.3947480632      -0.0000012428     1.000000    0.00017227
   63      -16.3947492742      -0.0000012110     1.000000    0.00017013
   64      -16.3947504544      -0.0000011802     1.000000    0.00016803
   65      -16.3947516048      -0.0000011504     1.000000    0.00016598
   66      -16.3947527265      -0.0000011217     1.000000    0.00016398
   67      -16.3947538204      -0.0000010939     1.000000    0.00016202
   68      -16.3947548874      -0.0000010670     1.000000    0.00016010
   69      -16.3947559285      -0.0000010410     1.000000    0.00015822
   70      -16.3947569444      -0.0000010159     1.000000    0.00015638
   71      -16.3947579359      -0.0000009916     1.000000    0.00015458
   72      -16.3947589040      -0.0000009680     1.000000    0.00015281
   73      -16.3947598492      -0.0000009452     1.000000    0.00015108
   74      -16.3947607723      -0.0000009231     1.000000    0.00014938
   75      -16.3947616741      -0.0000009017     1.000000    0.00014772
   76      -16.3947625551      -0.0000008810     1.000000    0.00014609
   77      -16.3947634160      -0.0000008609     1.000000    0.00014448
   78      -16.3947642575      -0.0000008415     1.000000    0.00014291
   79      -16.3947650801      -0.0000008226     1.000000    0.00014137
   80      -16.3947658844      -0.0000008043     1.000000    0.00013985
   81      -16.3947666709      -0.0000007865     1.000000    0.00013837
   82      -16.3947674402      -0.0000007693     1.000000    0.00013691
   83      -16.3947681928      -0.0000007526     1.000000    0.00013547
   84      -16.3947689292      -0.0000007364     1.000000    0.00013406
   85      -16.3947696498      -0.0000007206     1.000000    0.00013268
   86      -16.3947703552      -0.0000007053     1.000000    0.00013132
   87      -16.3947710456      -0.0000006905     1.000000    0.00012998
   88      -16.3947717217      -0.0000006760     1.000000    0.00012867
   89      -16.3947723837      -0.0000006620     1.000000    0.00012738
   90      -16.3947730321      -0.0000006484     1.000000    0.00012611
   91      -16.3947736672      -0.0000006351     1.000000    0.00012486
   92      -16.3947742895      -0.0000006223     1.000000    0.00012364
   93      -16.3947748992      -0.0000006097     1.000000    0.00012243
   94      -16.3947754968      -0.0000005976     1.000000    0.00012125
   95      -16.3947760825      -0.0000005857     1.000000    0.00012008
   96      -16.3947766567      -0.0000005742     1.000000    0.00011893
   97      -16.3947772197      -0.0000005630     1.000000    0.00011781
   98      -16.3947777717      -0.0000005521     1.000000    0.00011670
   99      -16.3947783132      -0.0000005414     1.000000    0.00011560
  100      -16.3947788442      -0.0000005311     1.000000    0.00011453
  101      -16.3947793652      -0.0000005210     1.000000    0.00011347
  102      -16.3947798764      -0.0000005112     1.000000    0.00011243
  103      -16.3947803781      -0.0000005016     1.000000    0.00011141
  104      -16.3947808704      -0.0000004923     1.000000    0.00011040
  105      -16.3947813536      -0.0000004832     1.000000    0.00010941
  106      -16.3947818280      -0.0000004744     1.000000    0.00010843
  107      -16.3947822937      -0.0000004658     1.000000    0.00010747
  108      -16.3947827511      -0.0000004574     1.000000    0.00010652
  109      -16.3947832002      -0.0000004492     1.000000    0.00010558
  110      -16.3947836414      -0.0000004412     1.000000    0.00010467
  111      -16.3947840747      -0.0000004334     1.000000    0.00010376
  112      -16.3947845005      -0.0000004257     1.000000    0.00010287
  113      -16.3947849188      -0.0000004183     1.000000    0.00010199
  114      -16.3947853299      -0.0000004111     1.000000    0.00010112
  115      -16.3947857339      -0.0000004040     1.000000    0.00010027
  116      -16.3947861310      -0.0000003971     1.000000    0.00009943
  117      -16.3947865213      -0.0000003904     1.000000    0.00009860
  118      -16.3947869051      -0.0000003838     1.000000    0.00009779
  119      -16.3947872824      -0.0000003773     1.000000    0.00009698
  120      -16.3947876535      -0.0000003711     1.000000    0.00009619
  121      -16.3947880184      -0.0000003649     1.000000    0.00009541
  122      -16.3947883774      -0.0000003589     1.000000    0.00009464
  123      -16.3947887305      -0.0000003531     1.000000    0.00009388
  124      -16.3947890778      -0.0000003474     1.000000    0.00009313
  125      -16.3947894196      -0.0000003418     1.000000    0.00009239
  126      -16.3947897559      -0.0000003363     1.000000    0.00009166
  127      -16.3947900869      -0.0000003310     1.000000    0.00009095
  128      -16.3947904126      -0.0000003257     1.000000    0.00009024
  129      -16.3947907333      -0.0000003206     1.000000    0.00008954
  130      -16.3947910489      -0.0000003156     1.000000    0.00008885
  131      -16.3947913596      -0.0000003107     1.000000    0.00008817
  132      -16.3947916656      -0.0000003060     1.000000    0.00008750
  133      -16.3947919669      -0.0000003013     1.000000    0.00008684
  134      -16.3947922636      -0.0000002967     1.000000    0.00008619
  135      -16.3947925558      -0.0000002922     1.000000    0.00008554
  136      -16.3947928436      -0.0000002878     1.000000    0.00008491
  137      -16.3947931272      -0.0000002835     1.000000    0.00008428
  138      -16.3947934065      -0.0000002793     1.000000    0.00008366
  139      -16.3947936817      -0.0000002752     1.000000    0.00008305
  140      -16.3947939529      -0.0000002712     1.000000    0.00008245
  141      -16.3947942201      -0.0000002672     1.000000    0.00008186
  142      -16.3947944835      -0.0000002634     1.000000    0.00008127
  143      -16.3947947431      -0.0000002596     1.000000    0.00008069
  144      -16.3947949990      -0.0000002559     1.000000    0.00008012
  145      -16.3947952513      -0.0000002522     1.000000    0.00007955
  146      -16.3947954999      -0.0000002487     1.000000    0.00007900
  147      -16.3947957451      -0.0000002452     1.000000    0.00007845
  148      -16.3947959869      -0.0000002418     1.000000    0.00007790
  149      -16.3947962253      -0.0000002384     1.000000    0.00007737
  150      -16.3947964605      -0.0000002351     1.000000    0.00007684
  151      -16.3947966924      -0.0000002319     1.000000    0.00007631
  152      -16.3947969212      -0.0000002288     1.000000    0.00007579
  153      -16.3947971468      -0.0000002257     1.000000    0.00007528
  154      -16.3947973694      -0.0000002226     1.000000    0.00007478
  155      -16.3947975891      -0.0000002196     1.000000    0.00007428
  156      -16.3947978058      -0.0000002167     1.000000    0.00007379
  157      -16.3947980197      -0.0000002139     1.000000    0.00007330
  158      -16.3947982307      -0.0000002110     1.000000    0.00007282
  159      -16.3947984390      -0.0000002083     1.000000    0.00007235
  160      -16.3947986446      -0.0000002056     1.000000    0.00007188
  161      -16.3947988475      -0.0000002029     1.000000    0.00007141
  162      -16.3947990478      -0.0000002003     1.000000    0.00007095
  163      -16.3947992455      -0.0000001977     1.000000    0.00007050
  164      -16.3947994407      -0.0000001952     1.000000    0.00007005
  165      -16.3947996335      -0.0000001928     1.000000    0.00006961
  166      -16.3947998239      -0.0000001903     1.000000    0.00006918
  167      -16.3948000118      -0.0000001880     1.000000    0.00006874
  168      -16.3948001974      -0.0000001856     1.000000    0.00006832
  169      -16.3948003808      -0.0000001833     1.000000    0.00006789
  170      -16.3948005619      -0.0000001811     1.000000    0.00006748
  171      -16.3948007407      -0.0000001789     1.000000    0.00006706
  172      -16.3948009174      -0.0000001767     1.000000    0.00006666
  173      -16.3948010920      -0.0000001746     1.000000    0.00006625
  174      -16.3948012644      -0.0000001725     1.000000    0.00006585
  175      -16.3948014348      -0.0000001704     1.000000    0.00006546
  176      -16.3948016032      -0.0000001684     1.000000    0.00006507
  177      -16.3948017696      -0.0000001664     1.000000    0.00006468
  178      -16.3948019340      -0.0000001644     1.000000    0.00006430
  179      -16.3948020965      -0.0000001625     1.000000    0.00006392
  180      -16.3948022571      -0.0000001606     1.000000    0.00006355
  181      -16.3948024159      -0.0000001588     1.000000    0.00006318
  182      -16.3948025728      -0.0000001569     1.000000    0.00006282
  183      -16.3948027280      -0.0000001551     1.000000    0.00006246
  184      -16.3948028813      -0.0000001534     1.000000    0.00006210
  185      -16.3948030330      -0.0000001516     1.000000    0.00006174
  186      -16.3948031829      -0.0000001499     1.000000    0.00006140
  187      -16.3948033311      -0.0000001482     1.000000    0.00006105
  188      -16.3948034777      -0.0000001466     1.000000    0.00006071
  189      -16.3948036227      -0.0000001450     1.000000    0.00006037
  190      -16.3948037660      -0.0000001434     1.000000    0.00006003
  191      -16.3948039078      -0.0000001418     1.000000    0.00005970
  192      -16.3948040481      -0.0000001402     1.000000    0.00005937
  193      -16.3948041868      -0.0000001387     1.000000    0.00005905
  194      -16.3948043240      -0.0000001372     1.000000    0.00005873
  195      -16.3948044597      -0.0000001357     1.000000    0.00005841
  196      -16.3948045940      -0.0000001343     1.000000    0.00005810
  197      -16.3948047269      -0.0000001329     1.000000    0.00005778
  198      -16.3948048584      -0.0000001315     1.000000    0.00005748
  199      -16.3948049884      -0.0000001301     1.000000    0.00005717
  200      -16.3948051172      -0.0000001287     1.000000    0.00005687
  201      -16.3948052445      -0.0000001274     1.000000    0.00005657
  202      -16.3948053706      -0.0000001261     1.000000    0.00005627
  203      -16.3948054953      -0.0000001248     1.000000    0.00005598
  204      -16.3948056188      -0.0000001235     1.000000    0.00005569
  205      -16.3948057410      -0.0000001222     1.000000    0.00005540
  206      -16.3948058620      -0.0000001210     1.000000    0.00005512
  207      -16.3948059817      -0.0000001197     1.000000    0.00005484
  208      -16.3948061003      -0.0000001185     1.000000    0.00005456
  209      -16.3948062177      -0.0000001174     1.000000    0.00005428
  210      -16.3948063338      -0.0000001162     1.000000    0.00005401
  211      -16.3948064489      -0.0000001150     1.000000    0.00005374
  212      -16.3948065628      -0.0000001139     1.000000    0.00005347
  213      -16.3948066756      -0.0000001128     1.000000    0.00005321
  214      -16.3948067873      -0.0000001117     1.000000    0.00005294
  215      -16.3948068979      -0.0000001106     1.000000    0.00005268
  216      -16.3948070074      -0.0000001095     1.000000    0.00005242
  217      -16.3948071159      -0.0000001085     1.000000    0.00005217
  218      -16.3948072233      -0.0000001074     1.000000    0.00005192
  219      -16.3948073297      -0.0000001064     1.000000    0.00005167
  220      -16.3948074351      -0.0000001054     1.000000    0.00005142
  221      -16.3948075396      -0.0000001044     1.000000    0.00005117
  222      -16.3948076430      -0.0000001034     1.000000    0.00005093
  223      -16.3948077455      -0.0000001025     1.000000    0.00005069
  224      -16.3948078470      -0.0000001015     1.000000    0.00005045
  225      -16.3948079476      -0.0000001006     1.000000    0.00005021
  226      -16.3948080472      -0.0000000997     1.000000    0.00004998
  227      -16.3948081460      -0.0000000987     1.000000    0.00004974
  228      -16.3948082438      -0.0000000978     1.000000    0.00004951
  229      -16.3948083407      -0.0000000970     1.000000    0.00004929
  230      -16.3948084368      -0.0000000961     1.000000    0.00004906
  231      -16.3948085320      -0.0000000952     1.000000    0.00004883
  232      -16.3948086264      -0.0000000944     1.000000    0.00004861
  233      -16.3948087199      -0.0000000935     1.000000    0.00004839
  234      -16.3948088126      -0.0000000927     1.000000    0.00004817
  235      -16.3948089045      -0.0000000919     1.000000    0.00004796
  236      -16.3948089956      -0.0000000911     1.000000    0.00004774
  237      -16.3948090858      -0.0000000903     1.000000    0.00004753
  238      -16.3948091753      -0.0000000895     1.000000    0.00004732
  239      -16.3948092640      -0.0000000887     1.000000    0.00004711
  240      -16.3948093520      -0.0000000880     1.000000    0.00004691
  241      -16.3948094392      -0.0000000872     1.000000    0.00004670
  242      -16.3948095256      -0.0000000865     1.000000    0.00004650
  243      -16.3948096114      -0.0000000857     1.000000    0.00004630
  244      -16.3948096963      -0.0000000850     1.000000    0.00004610
  245      -16.3948097806      -0.0000000843     1.000000    0.00004590
  246      -16.3948098642      -0.0000000836     1.000000    0.00004570
  247      -16.3948099471      -0.0000000829     1.000000    0.00004551
  248      -16.3948100293      -0.0000000822     1.000000    0.00004532
  249      -16.3948101108      -0.0000000815     1.000000    0.00004513
  250      -16.3948101916      -0.0000000808     1.000000    0.00004494
  251      -16.3948102718      -0.0000000802     1.000000    0.00004475
  252      -16.3948103513      -0.0000000795     1.000000    0.00004456
  253      -16.3948104302      -0.0000000789     1.000000    0.00004438
  254      -16.3948105084      -0.0000000782     1.000000    0.00004420
  255      -16.3948105860      -0.0000000776     1.000000    0.00004401
  256      -16.3948106630      -0.0000000770     1.000000    0.00004383
  257      -16.3948107394      -0.0000000764     1.000000    0.00004366
  258      -16.3948108152      -0.0000000758     1.000000    0.00004348
  259      -16.3948108904      -0.0000000752     1.000000    0.00004330
  260      -16.3948109650      -0.0000000746     1.000000    0.00004313
  261      -16.3948110390      -0.0000000740     1.000000    0.00004296
  262      -16.3948111124      -0.0000000734     1.000000    0.00004279
  263      -16.3948111852      -0.0000000729     1.000000    0.00004262
  264      -16.3948112575      -0.0000000723     1.000000    0.00004245
  265      -16.3948113293      -0.0000000717     1.000000    0.00004228
  266      -16.3948114005      -0.0000000712     1.000000    0.00004212
  267      -16.3948114711      -0.0000000706     1.000000    0.00004195
  268      -16.3948115412      -0.0000000701     1.000000    0.00004179
  269      -16.3948116108      -0.0000000696     1.000000    0.00004163
  270      -16.3948116799      -0.0000000691     1.000000    0.00004147
  271      -16.3948117484      -0.0000000685     1.000000    0.00004131
  272      -16.3948118164      -0.0000000680     1.000000    0.00004115
  273      -16.3948118840      -0.0000000675     1.000000    0.00004099
  274      -16.3948119510      -0.0000000670     1.000000    0.00004084
  275      -16.3948120175      -0.0000000665     1.000000    0.00004068
  276      -16.3948120836      -0.0000000661     1.000000    0.00004053
  277      -16.3948121492      -0.0000000656     1.000000    0.00004038
  278      -16.3948122143      -0.0000000651     1.000000    0.00004023
  279      -16.3948122789      -0.0000000646     1.000000    0.00004008
  280      -16.3948123430      -0.0000000642     1.000000    0.00003993
  281      -16.3948124067      -0.0000000637     1.000000    0.00003979
  282      -16.3948124700      -0.0000000632     1.000000    0.00003964
  283      -16.3948125328      -0.0000000628     1.000000    0.00003950
  284      -16.3948125951      -0.0000000624     1.000000    0.00003935
  285      -16.3948126571      -0.0000000619     1.000000    0.00003921
  286      -16.3948127185      -0.0000000615     1.000000    0.00003907
  287      -16.3948127796      -0.0000000611     1.000000    0.00003893
  288      -16.3948128402      -0.0000000606     1.000000    0.00003879
  289      -16.3948129004      -0.0000000602     1.000000    0.00003865
  290      -16.3948129602      -0.0000000598     1.000000    0.00003851
  291      -16.3948130196      -0.0000000594     1.000000    0.00003838
  292      -16.3948130786      -0.0000000590     1.000000    0.00003824
  293      -16.3948131372      -0.0000000586     1.000000    0.00003811
  294      -16.3948131954      -0.0000000582     1.000000    0.00003798
  295      -16.3948132532      -0.0000000578     1.000000    0.00003785
  296      -16.3948133106      -0.0000000574     1.000000    0.00003771
  297      -16.3948133676      -0.0000000570     1.000000    0.00003760
  298      -16.3948134242      -0.0000000566     1.000000    0.00003750
  299      -16.3948134805      -0.0000000563     1.000000    0.00003740
  300      -16.3948135364      -0.0000000559     1.000000    0.00003730
  301      -16.3948135919      -0.0000000555     1.000000    0.00003720
  302      -16.3948136471      -0.0000000552     1.000000    0.00003710
  303      -16.3948137019      -0.0000000548     1.000000    0.00003700
  304      -16.3948137563      -0.0000000545     1.000000    0.00003690
  305      -16.3948138104      -0.0000000541     1.000000    0.00003681
  306      -16.3948138642      -0.0000000538     1.000000    0.00003671
  307      -16.3948139176      -0.0000000534     1.000000    0.00003661
  308      -16.3948139707      -0.0000000531     1.000000    0.00003652
  309      -16.3948140234      -0.0000000527     1.000000    0.00003642
  310      -16.3948140758      -0.0000000524     1.000000    0.00003633
  311      -16.3948141278      -0.0000000521     1.000000    0.00003624
  312      -16.3948141796      -0.0000000517     1.000000    0.00003614
  313      -16.3948142310      -0.0000000514     1.000000    0.00003605
  314      -16.3948142821      -0.0000000511     1.000000    0.00003596
  315      -16.3948143329      -0.0000000508     1.000000    0.00003587
  316      -16.3948143833      -0.0000000505     1.000000    0.00003578
  317      -16.3948144335      -0.0000000502     1.000000    0.00003569
  318      -16.3948144834      -0.0000000499     1.000000    0.00003560
  319      -16.3948145329      -0.0000000495     1.000000    0.00003551
  320      -16.3948145821      -0.0000000492     1.000000    0.00003542
  321      -16.3948146311      -0.0000000489     1.000000    0.00003533
  322      -16.3948146797      -0.0000000487     1.000000    0.00003525
  323      -16.3948147281      -0.0000000484     1.000000    0.00003516
  324      -16.3948147762      -0.0000000481     1.000000    0.00003508
  325      -16.3948148240      -0.0000000478     1.000000    0.00003499
  326      -16.3948148715      -0.0000000475     1.000000    0.00003491
  327      -16.3948149187      -0.0000000472     1.000000    0.00003482
  328      -16.3948149657      -0.0000000469     1.000000    0.00003474
  329      -16.3948150123      -0.0000000467     1.000000    0.00003466
  330      -16.3948150587      -0.0000000464     1.000000    0.00003457
  331      -16.3948151049      -0.0000000461     1.000000    0.00003449
  332      -16.3948151507      -0.0000000459     1.000000    0.00003441
  333      -16.3948151963      -0.0000000456     1.000000    0.00003433
  334      -16.3948152417      -0.0000000453     1.000000    0.00003425
  335      -16.3948152868      -0.0000000451     1.000000    0.00003417
  336      -16.3948153316      -0.0000000448     1.000000    0.00003409
  337      -16.3948153762      -0.0000000446     1.000000    0.00003401
  338      -16.3948154205      -0.0000000443     1.000000    0.00003393
  339      -16.3948154646      -0.0000000441     1.000000    0.00003385
  340      -16.3948155084      -0.0000000438     1.000000    0.00003378
  341      -16.3948155520      -0.0000000436     1.000000    0.00003370
  342      -16.3948155953      -0.0000000433     1.000000    0.00003362
  343      -16.3948156384      -0.0000000431     1.000000    0.00003355
  344      -16.3948156813      -0.0000000429     1.000000    0.00003347
  345      -16.3948157239      -0.0000000426     1.000000    0.00003340
  346      -16.3948157663      -0.0000000424     1.000000    0.00003332
  347      -16.3948158085      -0.0000000422     1.000000    0.00003325
  348      -16.3948158504      -0.0000000419     1.000000    0.00003318
  349      -16.3948158922      -0.0000000417     1.000000    0.00003310
  350      -16.3948159337      -0.0000000415     1.000000    0.00003303
  351      -16.3948159749      -0.0000000413     1.000000    0.00003296
  352      -16.3948160160      -0.0000000411     1.000000    0.00003289
  353      -16.3948160568      -0.0000000408     1.000000    0.00003282
  354      -16.3948160974      -0.0000000406     1.000000    0.00003274
  355      -16.3948161378      -0.0000000404     1.000000    0.00003267
  356      -16.3948161780      -0.0000000402     1.000000    0.00003260
  357      -16.3948162180      -0.0000000400     1.000000    0.00003253
  358      -16.3948162578      -0.0000000398     1.000000    0.00003247
  359      -16.3948162973      -0.0000000396     1.000000    0.00003240
  360      -16.3948163367      -0.0000000394     1.000000    0.00003233
  361      -16.3948163759      -0.0000000392     1.000000    0.00003226
  362      -16.3948164148      -0.0000000390     1.000000    0.00003219
  363      -16.3948164536      -0.0000000388     1.000000    0.00003213
  364      -16.3948164922      -0.0000000386     1.000000    0.00003206
  365      -16.3948165305      -0.0000000384     1.000000    0.00003199
  366      -16.3948165687      -0.0000000382     1.000000    0.00003193
  367      -16.3948166067      -0.0000000380     1.000000    0.00003186
  368      -16.3948166445      -0.0000000378     1.000000    0.00003180
  369      -16.3948166821      -0.0000000376     1.000000    0.00003173
  370      -16.3948167195      -0.0000000374     1.000000    0.00003167
  371      -16.3948167568      -0.0000000372     1.000000    0.00003160
  372      -16.3948167938      -0.0000000371     1.000000    0.00003154
  373      -16.3948168307      -0.0000000369     1.000000    0.00003148
  374      -16.3948168674      -0.0000000367     1.000000    0.00003142
  375      -16.3948169039      -0.0000000365     1.000000    0.00003135
  376      -16.3948169403      -0.0000000363     1.000000    0.00003129
  377      -16.3948169764      -0.0000000362     1.000000    0.00003123
  378      -16.3948170124      -0.0000000360     1.000000    0.00003117
  379      -16.3948170482      -0.0000000358     1.000000    0.00003111
  380      -16.3948170839      -0.0000000356     1.000000    0.00003105
  381      -16.3948171194      -0.0000000355     1.000000    0.00003099
  382      -16.3948171547      -0.0000000353     1.000000    0.00003093
  383      -16.3948171898      -0.0000000351     1.000000    0.00003087
  384      -16.3948172248      -0.0000000350     1.000000    0.00003081
  385      -16.3948172596      -0.0000000348     1.000000    0.00003075
  386      -16.3948172943      -0.0000000347     1.000000    0.00003069
  387      -16.3948173288      -0.0000000345     1.000000    0.00003063
  388      -16.3948173631      -0.0000000343     1.000000    0.00003058
  389      -16.3948173973      -0.0000000342     1.000000    0.00003052
  390      -16.3948174313      -0.0000000340     1.000000    0.00003046
  391      -16.3948174652      -0.0000000339     1.000000    0.00003041
  392      -16.3948174989      -0.0000000337     1.000000    0.00003035
  393      -16.3948175324      -0.0000000336     1.000000    0.00003029
  394      -16.3948175659      -0.0000000334     1.000000    0.00003024
  395      -16.3948175991      -0.0000000333     1.000000    0.00003018
  396      -16.3948176322      -0.0000000331     1.000000    0.00003013
  397      -16.3948176652      -0.0000000330     1.000000    0.00003007
  398      -16.3948176980      -0.0000000328     1.000000    0.00003002
  399      -16.3948177307      -0.0000000327     1.000000    0.00002996
  400      -16.3948177632      -0.0000000325     1.000000    0.00002991
  401      -16.3948177956      -0.0000000324     1.000000    0.00002986
  402      -16.3948178278      -0.0000000322     1.000000    0.00002980
  403      -16.3948178599      -0.0000000321     1.000000    0.00002975
  404      -16.3948178919      -0.0000000320     1.000000    0.00002970
  405      -16.3948179237      -0.0000000318     1.000000    0.00002965
  406      -16.3948179554      -0.0000000317     1.000000    0.00002959
  407      -16.3948179869      -0.0000000316     1.000000    0.00002954
  408      -16.3948180184      -0.0000000314     1.000000    0.00002949
  409      -16.3948180496      -0.0000000313     1.000000    0.00002944
  410      -16.3948180808      -0.0000000312     1.000000    0.00002939
  411      -16.3948181118      -0.0000000310     1.000000    0.00002934
  412      -16.3948181427      -0.0000000309     1.000000    0.00002929
  413      -16.3948181735      -0.0000000308     1.000000    0.00002924
  414      -16.3948182041      -0.0000000306     1.000000    0.00002919
  415      -16.3948182346      -0.0000000305     1.000000    0.00002914
  416      -16.3948182650      -0.0000000304     1.000000    0.00002909
  417      -16.3948182952      -0.0000000303     1.000000    0.00002904
  418      -16.3948183253      -0.0000000301     1.000000    0.00002899
  419      -16.3948183554      -0.0000000300     1.000000    0.00002894
  420      -16.3948183852      -0.0000000299     1.000000    0.00002890
  421      -16.3948184150      -0.0000000298     1.000000    0.00002885
  422      -16.3948184446      -0.0000000296     1.000000    0.00002880
  423      -16.3948184742      -0.0000000295     1.000000    0.00002875
  424      -16.3948185036      -0.0000000294     1.000000    0.00002871
  425      -16.3948185328      -0.0000000293     1.000000    0.00002866
  426      -16.3948185620      -0.0000000292     1.000000    0.00002861
  427      -16.3948185911      -0.0000000291     1.000000    0.00002857
  428      -16.3948186200      -0.0000000289     1.000000    0.00002852
  429      -16.3948186488      -0.0000000288     1.000000    0.00002848
  430      -16.3948186775      -0.0000000287     1.000000    0.00002843
  431      -16.3948187061      -0.0000000286     1.000000    0.00002839
  432      -16.3948187346      -0.0000000285     1.000000    0.00002834
  433      -16.3948187630      -0.0000000284     1.000000    0.00002830
  434      -16.3948187912      -0.0000000283     1.000000    0.00002825
  435      -16.3948188194      -0.0000000282     1.000000    0.00002821
  436      -16.3948188474      -0.0000000280     1.000000    0.00002816
  437      -16.3948188754      -0.0000000279     1.000000    0.00002812
  438      -16.3948189032      -0.0000000278     1.000000    0.00002808
  439      -16.3948189310      -0.0000000277     1.000000    0.00002803
  440      -16.3948189586      -0.0000000276     1.000000    0.00002799
  441      -16.3948189861      -0.0000000275     1.000000    0.00002795
  442      -16.3948190135      -0.0000000274     1.000000    0.00002791
  443      -16.3948190408      -0.0000000273     1.000000    0.00002786
  444      -16.3948190680      -0.0000000272     1.000000    0.00002782
  445      -16.3948190952      -0.0000000271     1.000000    0.00002778
  446      -16.3948191222      -0.0000000270     1.000000    0.00002774
  447      -16.3948191491      -0.0000000269     1.000000    0.00002770
  448      -16.3948191759      -0.0000000268     1.000000    0.00002766
  449      -16.3948192026      -0.0000000267     1.000000    0.00002762
  450      -16.3948192292      -0.0000000266     1.000000    0.00002758
  451      -16.3948192558      -0.0000000265     1.000000    0.00002754
  452      -16.3948192822      -0.0000000264     1.000000    0.00002750
  453      -16.3948193085      -0.0000000263     1.000000    0.00002746
  454      -16.3948193347      -0.0000000262     1.000000    0.00002742
  455      -16.3948193609      -0.0000000261     1.000000    0.00002738
  456      -16.3948193869      -0.0000000261     1.000000    0.00002734
  457      -16.3948194129      -0.0000000260     1.000000    0.00002730
  458      -16.3948194388      -0.0000000259     1.000000    0.00002726
  459      -16.3948194645      -0.0000000258     1.000000    0.00002722
  460      -16.3948194902      -0.0000000257     1.000000    0.00002718
  461      -16.3948195158      -0.0000000256     1.000000    0.00002714
  462      -16.3948195413      -0.0000000255     1.000000    0.00002711
  463      -16.3948195667      -0.0000000254     1.000000    0.00002707
  464      -16.3948195921      -0.0000000253     1.000000    0.00002703
  465      -16.3948196173      -0.0000000252     1.000000    0.00002699
  466      -16.3948196425      -0.0000000252     1.000000    0.00002696
  467      -16.3948196675      -0.0000000251     1.000000    0.00002692
  468      -16.3948196925      -0.0000000250     1.000000    0.00002688
  469      -16.3948197174      -0.0000000249     1.000000    0.00002685
  470      -16.3948197423      -0.0000000248     1.000000    0.00002681
  471      -16.3948197670      -0.0000000247     1.000000    0.00002677
  472      -16.3948197916      -0.0000000247     1.000000    0.00002674
  473      -16.3948198162      -0.0000000246     1.000000    0.00002670
  474      -16.3948198407      -0.0000000245     1.000000    0.00002667
  475      -16.3948198651      -0.0000000244     1.000000    0.00002663
  476      -16.3948198894      -0.0000000243     1.000000    0.00002659
  477      -16.3948199137      -0.0000000242     1.000000    0.00002656
  478      -16.3948199378      -0.0000000242     1.000000    0.00002652
  479      -16.3948199619      -0.0000000241     1.000000    0.00002649
  480      -16.3948199859      -0.0000000240     1.000000    0.00002646
  481      -16.3948200099      -0.0000000239     1.000000    0.00002642
  482      -16.3948200337      -0.0000000239     1.000000    0.00002639
  483      -16.3948200575      -0.0000000238     1.000000    0.00002635
  484      -16.3948200812      -0.0000000237     1.000000    0.00002632
  485      -16.3948201048      -0.0000000236     1.000000    0.00002629
  486      -16.3948201284      -0.0000000236     1.000000    0.00002625
  487      -16.3948201519      -0.0000000235     1.000000    0.00002622
  488      -16.3948201753      -0.0000000234     1.000000    0.00002619
  489      -16.3948201986      -0.0000000233     1.000000    0.00002615
  490      -16.3948202218      -0.0000000233     1.000000    0.00002612
  491      -16.3948202450      -0.0000000232     1.000000    0.00002609
  492      -16.3948202681      -0.0000000231     1.000000    0.00002606
  493      -16.3948202912      -0.0000000230     1.000000    0.00002602
  494      -16.3948203141      -0.0000000230     1.000000    0.00002599
  495      -16.3948203370      -0.0000000229     1.000000    0.00002596
  496      -16.3948203599      -0.0000000228     1.000000    0.00002593
  497      -16.3948203826      -0.0000000228     1.000000    0.00002590
  498      -16.3948204053      -0.0000000227     1.000000    0.00002586
  499      -16.3948204279      -0.0000000226     1.000000    0.00002583
  500      -16.3948204505      -0.0000000226     1.000000    0.00002580
  501      -16.3948204730      -0.0000000225     1.000000    0.00002577
  502      -16.3948204954      -0.0000000224     1.000000    0.00002574
  503      -16.3948205177      -0.0000000224     1.000000    0.00002571
  504      -16.3948205400      -0.0000000223     1.000000    0.00002568
  505      -16.3948205622      -0.0000000222     1.000000    0.00002565
  506      -16.3948205844      -0.0000000222     1.000000    0.00002562
  507      -16.3948206065      -0.0000000221     1.000000    0.00002559
  508      -16.3948206285      -0.0000000220     1.000000    0.00002556
  509      -16.3948206505      -0.0000000220     1.000000    0.00002553
  510      -16.3948206724      -0.0000000219     1.000000    0.00002550
  511      -16.3948206942      -0.0000000218     1.000000    0.00002547
  512      -16.3948207160      -0.0000000218     1.000000    0.00002544
  513      -16.3948207377      -0.0000000217     1.000000    0.00002541
  514      -16.3948207593      -0.0000000216     1.000000    0.00002538
  515      -16.3948207809      -0.0000000216     1.000000    0.00002536
  516      -16.3948208024      -0.0000000215     1.000000    0.00002533
  517      -16.3948208239      -0.0000000215     1.000000    0.00002530
  518      -16.3948208453      -0.0000000214     1.000000    0.00002527
  519      -16.3948208666      -0.0000000213     1.000000    0.00002524
  520      -16.3948208879      -0.0000000213     1.000000    0.00002521
  521      -16.3948209091      -0.0000000212     1.000000    0.00002519
  522      -16.3948209303      -0.0000000212     1.000000    0.00002516
  523      -16.3948209514      -0.0000000211     1.000000    0.00002513
  524      -16.3948209724      -0.0000000210     1.000000    0.00002510
  525      -16.3948209934      -0.0000000210     1.000000    0.00002508
  526      -16.3948210143      -0.0000000209     1.000000    0.00002505
  527      -16.3948210352      -0.0000000209     1.000000    0.00002502
  528      -16.3948210560      -0.0000000208     1.000000    0.00002500
  529      -16.3948210768      -0.0000000208     1.000000    0.00002497
  530      -16.3948210975      -0.0000000207     1.000000    0.00002494
  531      -16.3948211181      -0.0000000206     1.000000    0.00002492
  532      -16.3948211387      -0.0000000206     1.000000    0.00002489
  533      -16.3948211593      -0.0000000205     1.000000    0.00002486
  534      -16.3948211798      -0.0000000205     1.000000    0.00002484
  535      -16.3948212002      -0.0000000204     1.000000    0.00002481
  536      -16.3948212206      -0.0000000204     1.000000    0.00002479
  537      -16.3948212409      -0.0000000203     1.000000    0.00002476
  538      -16.3948212612      -0.0000000203     1.000000    0.00002474
  539      -16.3948212814      -0.0000000202     1.000000    0.00002471
  540      -16.3948213015      -0.0000000202     1.000000    0.00002468
  541      -16.3948213216      -0.0000000201     1.000000    0.00002466
  542      -16.3948213417      -0.0000000201     1.000000    0.00002463
  543      -16.3948213617      -0.0000000200     1.000000    0.00002461
  544      -16.3948213817      -0.0000000200     1.000000    0.00002458
  545      -16.3948214016      -0.0000000199     1.000000    0.00002456
  546      -16.3948214214      -0.0000000199     1.000000    0.00002454
  547      -16.3948214412      -0.0000000198     1.000000    0.00002451
  548      -16.3948214610      -0.0000000198     1.000000    0.00002449
  549      -16.3948214807      -0.0000000197     1.000000    0.00002446
  550      -16.3948215003      -0.0000000197     1.000000    0.00002444
  551      -16.3948215200      -0.0000000196     1.000000    0.00002442
  552      -16.3948215395      -0.0000000196     1.000000    0.00002439
  553      -16.3948215590      -0.0000000195     1.000000    0.00002437
  554      -16.3948215785      -0.0000000195     1.000000    0.00002434
  555      -16.3948215979      -0.0000000194     1.000000    0.00002432
  556      -16.3948216173      -0.0000000194     1.000000    0.00002430
  557      -16.3948216366      -0.0000000193     1.000000    0.00002428
  558      -16.3948216559      -0.0000000193     1.000000    0.00002425
  559      -16.3948216751      -0.0000000192     1.000000    0.00002423
  560      -16.3948216943      -0.0000000192     1.000000    0.00002421
  561      -16.3948217134      -0.0000000191     1.000000    0.00002418
  562      -16.3948217325      -0.0000000191     1.000000    0.00002416
  563      -16.3948217515      -0.0000000190     1.000000    0.00002414
  564      -16.3948217705      -0.0000000190     1.000000    0.00002412
  565      -16.3948217895      -0.0000000190     1.000000    0.00002409
  566      -16.3948218084      -0.0000000189     1.000000    0.00002407
  567      -16.3948218272      -0.0000000189     1.000000    0.00002405
  568      -16.3948218461      -0.0000000188     1.000000    0.00002403
  569      -16.3948218648      -0.0000000188     1.000000    0.00002401
  570      -16.3948218836      -0.0000000187     1.000000    0.00002398
  571      -16.3948219022      -0.0000000187     1.000000    0.00002396
  572      -16.3948219209      -0.0000000186     1.000000    0.00002394
  573      -16.3948219395      -0.0000000186     1.000000    0.00002392
  574      -16.3948219580      -0.0000000186     1.000000    0.00002390
  575      -16.3948219766      -0.0000000185     1.000000    0.00002388
  576      -16.3948219950      -0.0000000185     1.000000    0.00002386
  577      -16.3948220135      -0.0000000184     1.000000    0.00002384
  578      -16.3948220319      -0.0000000184     1.000000    0.00002382
  579      -16.3948220502      -0.0000000183     1.000000    0.00002380
  580      -16.3948220685      -0.0000000183     1.000000    0.00002377
  581      -16.3948220868      -0.0000000183     1.000000    0.00002375
  582      -16.3948221050      -0.0000000182     1.000000    0.00002373
  583      -16.3948221232      -0.0000000182     1.000000    0.00002371
  584      -16.3948221413      -0.0000000181     1.000000    0.00002369
  585      -16.3948221594      -0.0000000181     1.000000    0.00002367
  586      -16.3948221775      -0.0000000181     1.000000    0.00002365
  587      -16.3948221955      -0.0000000180     1.000000    0.00002363
  588      -16.3948222135      -0.0000000180     1.000000    0.00002361
  589      -16.3948222315      -0.0000000179     1.000000    0.00002359
  590      -16.3948222494      -0.0000000179     1.000000    0.00002357
  591      -16.3948222673      -0.0000000179     1.000000    0.00002355
  592      -16.3948222851      -0.0000000178     1.000000    0.00002354
  593      -16.3948223029      -0.0000000178     1.000000    0.00002352
  594      -16.3948223206      -0.0000000178     1.000000    0.00002350
  595      -16.3948223384      -0.0000000177     1.000000    0.00002348
  596      -16.3948223560      -0.0000000177     1.000000    0.00002346
  597      -16.3948223737      -0.0000000176     1.000000    0.00002344
  598      -16.3948223913      -0.0000000176     1.000000    0.00002342
  599      -16.3948224089      -0.0000000176     1.000000    0.00002340
  600      -16.3948224264      -0.0000000175     1.000000    0.00002338
  601      -16.3948224439      -0.0000000175     1.000000    0.00002337
  602      -16.3948224614      -0.0000000175     1.000000    0.00002335
  603      -16.3948224788      -0.0000000174     1.000000    0.00002333
  604      -16.3948224962      -0.0000000174     1.000000    0.00002331
  605      -16.3948225135      -0.0000000174     1.000000    0.00002329
  606      -16.3948225309      -0.0000000173     1.000000    0.00002327
  607      -16.3948225481      -0.0000000173     1.000000    0.00002326
  608      -16.3948225654      -0.0000000172     1.000000    0.00002324
  609      -16.3948225826      -0.0000000172     1.000000    0.00002322
  610      -16.3948225998      -0.0000000172     1.000000    0.00002320
  611      -16.3948226169      -0.0000000171     1.000000    0.00002319
  612      -16.3948226340      -0.0000000171     1.000000    0.00002317
  613      -16.3948226511      -0.0000000171     1.000000    0.00002315
  614      -16.3948226682      -0.0000000170     1.000000    0.00002313
  615      -16.3948226852      -0.0000000170     1.000000    0.00002312
  616      -16.3948227022      -0.0000000170     1.000000    0.00002310
  617      -16.3948227191      -0.0000000169     1.000000    0.00002308
  618      -16.3948227360      -0.0000000169     1.000000    0.00002306
  619      -16.3948227529      -0.0000000169     1.000000    0.00002305
  620      -16.3948227697      -0.0000000168     1.000000    0.00002303
  621      -16.3948227865      -0.0000000168     1.000000    0.00002301
  622      -16.3948228033      -0.0000000168     1.000000    0.00002300
  623      -16.3948228201      -0.0000000167     1.000000    0.00002298
  624      -16.3948228368      -0.0000000167     1.000000    0.00002296
  625      -16.3948228535      -0.0000000167     1.000000    0.00002295
  626      -16.3948228701      -0.0000000167     1.000000    0.00002293
  627      -16.3948228868      -0.0000000166     1.000000    0.00002292
  628      -16.3948229033      -0.0000000166     1.000000    0.00002290
  629      -16.3948229199      -0.0000000166     1.000000    0.00002288
  630      -16.3948229364      -0.0000000165     1.000000    0.00002287
  631      -16.3948229529      -0.0000000165     1.000000    0.00002285
  632      -16.3948229694      -0.0000000165     1.000000    0.00002284
  633      -16.3948229858      -0.0000000164     1.000000    0.00002282
  634      -16.3948230022      -0.0000000164     1.000000    0.00002280
  635      -16.3948230186      -0.0000000164     1.000000    0.00002279
  636      -16.3948230350      -0.0000000163     1.000000    0.00002277
  637      -16.3948230513      -0.0000000163     1.000000    0.00002276
  638      -16.3948230676      -0.0000000163     1.000000    0.00002274
  639      -16.3948230838      -0.0000000163     1.000000    0.00002273
  640      -16.3948231001      -0.0000000162     1.000000    0.00002271
  641      -16.3948231163      -0.0000000162     1.000000    0.00002270
  642      -16.3948231324      -0.0000000162     1.000000    0.00002268
  643      -16.3948231486      -0.0000000161     1.000000    0.00002267
  644      -16.3948231647      -0.0000000161     1.000000    0.00002265
  645      -16.3948231808      -0.0000000161     1.000000    0.00002264
  646      -16.3948231968      -0.0000000161     1.000000    0.00002262
  647      -16.3948232129      -0.0000000160     1.000000    0.00002261
  648      -16.3948232289      -0.0000000160     1.000000    0.00002259
  649      -16.3948232448      -0.0000000160     1.000000    0.00002258
  650      -16.3948232608      -0.0000000159     1.000000    0.00002256
  651      -16.3948232767      -0.0000000159     1.000000    0.00002255
  652      -16.3948232926      -0.0000000159     1.000000    0.00002253
  653      -16.3948233085      -0.0000000159     1.000000    0.00002252
  654      -16.3948233243      -0.0000000158     1.000000    0.00002251
  655      -16.3948233401      -0.0000000158     1.000000    0.00002249
  656      -16.3948233559      -0.0000000158     1.000000    0.00002248
  657      -16.3948233716      -0.0000000158     1.000000    0.00002246
  658      -16.3948233874      -0.0000000157     1.000000    0.00002245
  659      -16.3948234031      -0.0000000157     1.000000    0.00002244
  660      -16.3948234188      -0.0000000157     1.000000    0.00002242
  661      -16.3948234344      -0.0000000157     1.000000    0.00002241
  662      -16.3948234500      -0.0000000156     1.000000    0.00002239
  663      -16.3948234656      -0.0000000156     1.000000    0.00002238
  664      -16.3948234812      -0.0000000156     1.000000    0.00002237
  665      -16.3948234967      -0.0000000155     1.000000    0.00002235
  666      -16.3948235123      -0.0000000155     1.000000    0.00002234
  667      -16.3948235278      -0.0000000155     1.000000    0.00002233
  668      -16.3948235432      -0.0000000155     1.000000    0.00002231
  669      -16.3948235587      -0.0000000154     1.000000    0.00002230
  670      -16.3948235741      -0.0000000154     1.000000    0.00002229
  671      -16.3948235895      -0.0000000154     1.000000    0.00002227
  672      -16.3948236049      -0.0000000154     1.000000    0.00002226
  673      -16.3948236202      -0.0000000153     1.000000    0.00002225
  674      -16.3948236356      -0.0000000153     1.000000    0.00002224
  675      -16.3948236509      -0.0000000153     1.000000    0.00002222
  676      -16.3948236661      -0.0000000153     1.000000    0.00002221
  677      -16.3948236814      -0.0000000153     1.000000    0.00002220
  678      -16.3948236966      -0.0000000152     1.000000    0.00002218
  679      -16.3948237118      -0.0000000152     1.000000    0.00002217
  680      -16.3948237270      -0.0000000152     1.000000    0.00002216
  681      -16.3948237422      -0.0000000152     1.000000    0.00002215
  682      -16.3948237573      -0.0000000151     1.000000    0.00002214
  683      -16.3948237724      -0.0000000151     1.000000    0.00002212
  684      -16.3948237875      -0.0000000151     1.000000    0.00002211
  685      -16.3948238025      -0.0000000151     1.000000    0.00002210
  686      -16.3948238176      -0.0000000150     1.000000    0.00002209
  687      -16.3948238326      -0.0000000150     1.000000    0.00002207
  688      -16.3948238476      -0.0000000150     1.000000    0.00002206
  689      -16.3948238626      -0.0000000150     1.000000    0.00002205
  690      -16.3948238775      -0.0000000150     1.000000    0.00002204
  691      -16.3948238925      -0.0000000149     1.000000    0.00002203
  692      -16.3948239074      -0.0000000149     1.000000    0.00002201
  693      -16.3948239222      -0.0000000149     1.000000    0.00002200
  694      -16.3948239371      -0.0000000149     1.000000    0.00002199
  695      -16.3948239519      -0.0000000148     1.000000    0.00002198
  696      -16.3948239668      -0.0000000148     1.000000    0.00002197
  697      -16.3948239816      -0.0000000148     1.000000    0.00002196
  698      -16.3948239963      -0.0000000148     1.000000    0.00002194
  699      -16.3948240111      -0.0000000148     1.000000    0.00002193
  700      -16.3948240258      -0.0000000147     1.000000    0.00002192
  701      -16.3948240405      -0.0000000147     1.000000    0.00002191
  702      -16.3948240552      -0.0000000147     1.000000    0.00002190
  703      -16.3948240699      -0.0000000147     1.000000    0.00002189
  704      -16.3948240845      -0.0000000146     1.000000    0.00002188
  705      -16.3948240992      -0.0000000146     1.000000    0.00002187
  706      -16.3948241138      -0.0000000146     1.000000    0.00002186
  707      -16.3948241284      -0.0000000146     1.000000    0.00002184
  708      -16.3948241429      -0.0000000146     1.000000    0.00002183
  709      -16.3948241575      -0.0000000145     1.000000    0.00002182
  710      -16.3948241720      -0.0000000145     1.000000    0.00002181
  711      -16.3948241865      -0.0000000145     1.000000    0.00002180
  712      -16.3948242010      -0.0000000145     1.000000    0.00002179
  713      -16.3948242155      -0.0000000145     1.000000    0.00002178
  714      -16.3948242299      -0.0000000144     1.000000    0.00002177
  715      -16.3948242443      -0.0000000144     1.000000    0.00002176
  716      -16.3948242587      -0.0000000144     1.000000    0.00002175
  717      -16.3948242731      -0.0000000144     1.000000    0.00002174
  718      -16.3948242875      -0.0000000144     1.000000    0.00002173
  719      -16.3948243018      -0.0000000143     1.000000    0.00002172
  720      -16.3948243162      -0.0000000143     1.000000    0.00002171
  721      -16.3948243305      -0.0000000143     1.000000    0.00002170
  722      -16.3948243448      -0.0000000143     1.000000    0.00002169
  723      -16.3948243590      -0.0000000143     1.000000    0.00002168
  724      -16.3948243733      -0.0000000143     1.000000    0.00002167
  725      -16.3948243875      -0.0000000142     1.000000    0.00002166
  726      -16.3948244017      -0.0000000142     1.000000    0.00002165
  727      -16.3948244159      -0.0000000142     1.000000    0.00002164
  728      -16.3948244301      -0.0000000142     1.000000    0.00002163
  729      -16.3948244442      -0.0000000142     1.000000    0.00002162
  730      -16.3948244584      -0.0000000141     1.000000    0.00002161
  731      -16.3948244725      -0.0000000141     1.000000    0.00002160
  732      -16.3948244866      -0.0000000141     1.000000    0.00002159
  733      -16.3948245007      -0.0000000141     1.000000    0.00002158
  734      -16.3948245148      -0.0000000141     1.000000    0.00002157
  735      -16.3948245288      -0.0000000140     1.000000    0.00002156
  736      -16.3948245428      -0.0000000140     1.000000    0.00002155
  737      -16.3948245569      -0.0000000140     1.000000    0.00002154
  738      -16.3948245708      -0.0000000140     1.000000    0.00002153
  739      -16.3948245848      -0.0000000140     1.000000    0.00002152
  740      -16.3948245988      -0.0000000140     1.000000    0.00002151
  741      -16.3948246127      -0.0000000139     1.000000    0.00002150
  742      -16.3948246267      -0.0000000139     1.000000    0.00002149
  743      -16.3948246406      -0.0000000139     1.000000    0.00002148
  744      -16.3948246544      -0.0000000139     1.000000    0.00002147
  745      -16.3948246683      -0.0000000139     1.000000    0.00002146
  746      -16.3948246822      -0.0000000139     1.000000    0.00002146
  747      -16.3948246960      -0.0000000138     1.000000    0.00002145
  748      -16.3948247098      -0.0000000138     1.000000    0.00002144
  749      -16.3948247236      -0.0000000138     1.000000    0.00002143
  750      -16.3948247374      -0.0000000138     1.000000    0.00002142
  751      -16.3948247512      -0.0000000138     1.000000    0.00002141
  752      -16.3948247650      -0.0000000138     1.000000    0.00002140
  753      -16.3948247787      -0.0000000137     1.000000    0.00002139
  754      -16.3948247924      -0.0000000137     1.000000    0.00002138
  755      -16.3948248061      -0.0000000137     1.000000    0.00002138
  756      -16.3948248198      -0.0000000137     1.000000    0.00002137
  757      -16.3948248335      -0.0000000137     1.000000    0.00002136
  758      -16.3948248471      -0.0000000137     1.000000    0.00002135
  759      -16.3948248608      -0.0000000136     1.000000    0.00002134
  760      -16.3948248744      -0.0000000136     1.000000    0.00002133
  761      -16.3948248880      -0.0000000136     1.000000    0.00002132
  762      -16.3948249016      -0.0000000136     1.000000    0.00002132
  763      -16.3948249152      -0.0000000136     1.000000    0.00002131
  764      -16.3948249288      -0.0000000136     1.000000    0.00002130
  765      -16.3948249423      -0.0000000135     1.000000    0.00002129
  766      -16.3948249558      -0.0000000135     1.000000    0.00002128
  767      -16.3948249693      -0.0000000135     1.000000    0.00002127
  768      -16.3948249828      -0.0000000135     1.000000    0.00002127
  769      -16.3948249963      -0.0000000135     1.000000    0.00002126
  770      -16.3948250098      -0.0000000135     1.000000    0.00002125
  771      -16.3948250233      -0.0000000135     1.000000    0.00002124
  772      -16.3948250367      -0.0000000134     1.000000    0.00002123
  773      -16.3948250501      -0.0000000134     1.000000    0.00002123
  774      -16.3948250635      -0.0000000134     1.000000    0.00002122
  775      -16.3948250769      -0.0000000134     1.000000    0.00002121
  776      -16.3948250903      -0.0000000134     1.000000    0.00002120
  777      -16.3948251037      -0.0000000134     1.000000    0.00002119
  778      -16.3948251170      -0.0000000133     1.000000    0.00002119
  779      -16.3948251303      -0.0000000133     1.000000    0.00002118
  780      -16.3948251437      -0.0000000133     1.000000    0.00002117
  781      -16.3948251570      -0.0000000133     1.000000    0.00002116
  782      -16.3948251703      -0.0000000133     1.000000    0.00002116
  783      -16.3948251835      -0.0000000133     1.000000    0.00002115
  784      -16.3948251968      -0.0000000133     1.000000    0.00002114
  785      -16.3948252100      -0.0000000132     1.000000    0.00002113
  786      -16.3948252233      -0.0000000132     1.000000    0.00002113
  787      -16.3948252365      -0.0000000132     1.000000    0.00002112
  788      -16.3948252497      -0.0000000132     1.000000    0.00002111
  789      -16.3948252629      -0.0000000132     1.000000    0.00002110
  790      -16.3948252761      -0.0000000132     1.000000    0.00002110
  791      -16.3948252892      -0.0000000132     1.000000    0.00002109
  792      -16.3948253024      -0.0000000131     1.000000    0.00002108
  793      -16.3948253155      -0.0000000131     1.000000    0.00002107
  794      -16.3948253286      -0.0000000131     1.000000    0.00002107
  795      -16.3948253417      -0.0000000131     1.000000    0.00002106
  796      -16.3948253548      -0.0000000131     1.000000    0.00002105
  797      -16.3948253679      -0.0000000131     1.000000    0.00002104
  798      -16.3948253810      -0.0000000131     1.000000    0.00002104
  799      -16.3948253940      -0.0000000131     1.000000    0.00002103
  800      -16.3948254071      -0.0000000130     1.000000    0.00002102
  801      -16.3948254201      -0.0000000130     1.000000    0.00002102
  802      -16.3948254331      -0.0000000130     1.000000    0.00002101
  803      -16.3948254461      -0.0000000130     1.000000    0.00002100
  804      -16.3948254591      -0.0000000130     1.000000    0.00002099
  805      -16.3948254721      -0.0000000130     1.000000    0.00002099
  806      -16.3948254850      -0.0000000130     1.000000    0.00002098
  807      -16.3948254980      -0.0000000129     1.000000    0.00002097
  808      -16.3948255109      -0.0000000129     1.000000    0.00002097
  809      -16.3948255238      -0.0000000129     1.000000    0.00002096
  810      -16.3948255367      -0.0000000129     1.000000    0.00002095
  811      -16.3948255496      -0.0000000129     1.000000    0.00002095
  812      -16.3948255625      -0.0000000129     1.000000    0.00002094
  813      -16.3948255754      -0.0000000129     1.000000    0.00002093
  814      -16.3948255882      -0.0000000129     1.000000    0.00002093
  815      -16.3948256011      -0.0000000128     1.000000    0.00002092
  816      -16.3948256139      -0.0000000128     1.000000    0.00002091
  817      -16.3948256267      -0.0000000128     1.000000    0.00002091
  818      -16.3948256395      -0.0000000128     1.000000    0.00002090
  819      -16.3948256523      -0.0000000128     1.000000    0.00002089
  820      -16.3948256651      -0.0000000128     1.000000    0.00002089
  821      -16.3948256779      -0.0000000128     1.000000    0.00002088
  822      -16.3948256906      -0.0000000128     1.000000    0.00002087
  823      -16.3948257034      -0.0000000127     1.000000    0.00002087
  824      -16.3948257161      -0.0000000127     1.000000    0.00002086
  825      -16.3948257288      -0.0000000127     1.000000    0.00002086
  826      -16.3948257415      -0.0000000127     1.000000    0.00002085
  827      -16.3948257542      -0.0000000127     1.000000    0.00002084
  828      -16.3948257669      -0.0000000127     1.000000    0.00002084
  829      -16.3948257796      -0.0000000127     1.000000    0.00002083
  830      -16.3948257923      -0.0000000127     1.000000    0.00002082
  831      -16.3948258049      -0.0000000126     1.000000    0.00002082
  832      -16.3948258175      -0.0000000126     1.000000    0.00002081
  833      -16.3948258302      -0.0000000126     1.000000    0.00002081
  834      -16.3948258428      -0.0000000126     1.000000    0.00002080
  835      -16.3948258554      -0.0000000126     1.000000    0.00002079
  836      -16.3948258680      -0.0000000126     1.000000    0.00002079
  837      -16.3948258805      -0.0000000126     1.000000    0.00002078
  838      -16.3948258931      -0.0000000126     1.000000    0.00002077
  839      -16.3948259057      -0.0000000126     1.000000    0.00002077
  840      -16.3948259182      -0.0000000125     1.000000    0.00002076
  841      -16.3948259307      -0.0000000125     1.000000    0.00002076
  842      -16.3948259433      -0.0000000125     1.000000    0.00002075
  843      -16.3948259558      -0.0000000125     1.000000    0.00002075
  844      -16.3948259683      -0.0000000125     1.000000    0.00002074
  845      -16.3948259808      -0.0000000125     1.000000    0.00002073
  846      -16.3948259932      -0.0000000125     1.000000    0.00002073
  847      -16.3948260057      -0.0000000125     1.000000    0.00002072
  848      -16.3948260181      -0.0000000125     1.000000    0.00002072
  849      -16.3948260306      -0.0000000124     1.000000    0.00002071
  850      -16.3948260430      -0.0000000124     1.000000    0.00002070
  851      -16.3948260554      -0.0000000124     1.000000    0.00002070
  852      -16.3948260679      -0.0000000124     1.000000    0.00002069
  853      -16.3948260802      -0.0000000124     1.000000    0.00002069
  854      -16.3948260926      -0.0000000124     1.000000    0.00002068
  855      -16.3948261050      -0.0000000124     1.000000    0.00002068
  856      -16.3948261174      -0.0000000124     1.000000    0.00002067
  857      -16.3948261297      -0.0000000124     1.000000    0.00002066
  858      -16.3948261421      -0.0000000123     1.000000    0.00002066
  859      -16.3948261544      -0.0000000123     1.000000    0.00002065
  860      -16.3948261667      -0.0000000123     1.000000    0.00002065
  861      -16.3948261790      -0.0000000123     1.000000    0.00002064
  862      -16.3948261913      -0.0000000123     1.000000    0.00002064
  863      -16.3948262036      -0.0000000123     1.000000    0.00002063
  864      -16.3948262159      -0.0000000123     1.000000    0.00002063
  865      -16.3948262282      -0.0000000123     1.000000    0.00002062
  866      -16.3948262404      -0.0000000123     1.000000    0.00002061
  867      -16.3948262527      -0.0000000122     1.000000    0.00002061
  868      -16.3948262649      -0.0000000122     1.000000    0.00002060
  869      -16.3948262772      -0.0000000122     1.000000    0.00002060
  870      -16.3948262894      -0.0000000122     1.000000    0.00002059
  871      -16.3948263016      -0.0000000122     1.000000    0.00002059
  872      -16.3948263138      -0.0000000122     1.000000    0.00002058
  873      -16.3948263260      -0.0000000122     1.000000    0.00002058
  874      -16.3948263381      -0.0000000122     1.000000    0.00002057
  875      -16.3948263503      -0.0000000122     1.000000    0.00002057
  876      -16.3948263625      -0.0000000122     1.000000    0.00002056
  877      -16.3948263746      -0.0000000121     1.000000    0.00002056
  878      -16.3948263867      -0.0000000121     1.000000    0.00002055
  879      -16.3948263989      -0.0000000121     1.000000    0.00002055
  880      -16.3948264110      -0.0000000121     1.000000    0.00002054
  881      -16.3948264231      -0.0000000121     1.000000    0.00002054
  882      -16.3948264352      -0.0000000121     1.000000    0.00002053
  883      -16.3948264473      -0.0000000121     1.000000    0.00002053
  884      -16.3948264593      -0.0000000121     1.000000    0.00002052
  885      -16.3948264714      -0.0000000121     1.000000    0.00002052
  886      -16.3948264835      -0.0000000121     1.000000    0.00002051
  887      -16.3948264955      -0.0000000120     1.000000    0.00002050
  888      -16.3948265076      -0.0000000120     1.000000    0.00002050
  889      -16.3948265196      -0.0000000120     1.000000    0.00002049
  890      -16.3948265316      -0.0000000120     1.000000    0.00002049
  891      -16.3948265436      -0.0000000120     1.000000    0.00002048
  892      -16.3948265556      -0.0000000120     1.000000    0.00002048
  893      -16.3948265676      -0.0000000120     1.000000    0.00002047
  894      -16.3948265796      -0.0000000120     1.000000    0.00002047
  895      -16.3948265915      -0.0000000120     1.000000    0.00002046
  896      -16.3948266035      -0.0000000120     1.000000    0.00002046
  897      -16.3948266155      -0.0000000120     1.000000    0.00002046
  898      -16.3948266274      -0.0000000119     1.000000    0.00002045
  899      -16.3948266393      -0.0000000119     1.000000    0.00002045
  900      -16.3948266512      -0.0000000119     1.000000    0.00002044
  901      -16.3948266632      -0.0000000119     1.000000    0.00002044
  902      -16.3948266751      -0.0000000119     1.000000    0.00002043
  903      -16.3948266870      -0.0000000119     1.000000    0.00002043
  904      -16.3948266988      -0.0000000119     1.000000    0.00002042
  905      -16.3948267107      -0.0000000119     1.000000    0.00002042
  906      -16.3948267226      -0.0000000119     1.000000    0.00002041
  907      -16.3948267344      -0.0000000119     1.000000    0.00002041
  908      -16.3948267463      -0.0000000118     1.000000    0.00002040
  909      -16.3948267581      -0.0000000118     1.000000    0.00002040
  910      -16.3948267700      -0.0000000118     1.000000    0.00002039
  911      -16.3948267818      -0.0000000118     1.000000    0.00002039
  912      -16.3948267936      -0.0000000118     1.000000    0.00002038
  913      -16.3948268054      -0.0000000118     1.000000    0.00002038
  914      -16.3948268172      -0.0000000118     1.000000    0.00002037
  915      -16.3948268290      -0.0000000118     1.000000    0.00002037
  916      -16.3948268407      -0.0000000118     1.000000    0.00002036
  917      -16.3948268525      -0.0000000118     1.000000    0.00002036
  918      -16.3948268643      -0.0000000118     1.000000    0.00002035
  919      -16.3948268760      -0.0000000117     1.000000    0.00002035
  920      -16.3948268877      -0.0000000117     1.000000    0.00002035
  921      -16.3948268995      -0.0000000117     1.000000    0.00002034
  922      -16.3948269112      -0.0000000117     1.000000    0.00002034
  923      -16.3948269229      -0.0000000117     1.000000    0.00002033
  924      -16.3948269346      -0.0000000117     1.000000    0.00002033
  925      -16.3948269463      -0.0000000117     1.000000    0.00002032
  926      -16.3948269580      -0.0000000117     1.000000    0.00002032
  927      -16.3948269697      -0.0000000117     1.000000    0.00002031
  928      -16.3948269813      -0.0000000117     1.000000    0.00002031
  929      -16.3948269930      -0.0000000117     1.000000    0.00002030
  930      -16.3948270047      -0.0000000117     1.000000    0.00002030
  931      -16.3948270163      -0.0000000116     1.000000    0.00002030
  932      -16.3948270279      -0.0000000116     1.000000    0.00002029
  933      -16.3948270396      -0.0000000116     1.000000    0.00002029
  934      -16.3948270512      -0.0000000116     1.000000    0.00002028
  935      -16.3948270628      -0.0000000116     1.000000    0.00002028
  936      -16.3948270744      -0.0000000116     1.000000    0.00002027
  937      -16.3948270860      -0.0000000116     1.000000    0.00002027
  938      -16.3948270976      -0.0000000116     1.000000    0.00002026
  939      -16.3948271091      -0.0000000116     1.000000    0.00002026
  940      -16.3948271207      -0.0000000116     1.000000    0.00002026
  941      -16.3948271322      -0.0000000116     1.000000    0.00002025
  942      -16.3948271438      -0.0000000115     1.000000    0.00002025
  943      -16.3948271553      -0.0000000115     1.000000    0.00002024
  944      -16.3948271669      -0.0000000115     1.000000    0.00002024
  945      -16.3948271784      -0.0000000115     1.000000    0.00002023
  946      -16.3948271899      -0.0000000115     1.000000    0.00002023
  947      -16.3948272014      -0.0000000115     1.000000    0.00002022
  948      -16.3948272129      -0.0000000115     1.000000    0.00002022
  949      -16.3948272244      -0.0000000115     1.000000    0.00002022
  950      -16.3948272359      -0.0000000115     1.000000    0.00002021
  951      -16.3948272473      -0.0000000115     1.000000    0.00002021
  952      -16.3948272588      -0.0000000115     1.000000    0.00002020
  953      -16.3948272703      -0.0000000115     1.000000    0.00002020
  954      -16.3948272817      -0.0000000114     1.000000    0.00002019
  955      -16.3948272932      -0.0000000114     1.000000    0.00002019
  956      -16.3948273046      -0.0000000114     1.000000    0.00002019
  957      -16.3948273160      -0.0000000114     1.000000    0.00002018
  958      -16.3948273274      -0.0000000114     1.000000    0.00002018
  959      -16.3948273388      -0.0000000114     1.000000    0.00002017
  960      -16.3948273502      -0.0000000114     1.000000    0.00002017
  961      -16.3948273616      -0.0000000114     1.000000    0.00002016
  962      -16.3948273730      -0.0000000114     1.000000    0.00002016
  963      -16.3948273844      -0.0000000114     1.000000    0.00002015
  964      -16.3948273957      -0.0000000114     1.000000    0.00002015
  965      -16.3948274071      -0.0000000114     1.000000    0.00002015
  966      -16.3948274184      -0.0000000113     1.000000    0.00002014
  967      -16.3948274298      -0.0000000113     1.000000    0.00002014
  968      -16.3948274411      -0.0000000113     1.000000    0.00002013
  969      -16.3948274524      -0.0000000113     1.000000    0.00002013
  970      -16.3948274638      -0.0000000113     1.000000    0.00002013
  971      -16.3948274751      -0.0000000113     1.000000    0.00002012
  972      -16.3948274864      -0.0000000113     1.000000    0.00002012
  973      -16.3948274977      -0.0000000113     1.000000    0.00002011
  974      -16.3948275090      -0.0000000113     1.000000    0.00002011
  975      -16.3948275202      -0.0000000113     1.000000    0.00002010
  976      -16.3948275315      -0.0000000113     1.000000    0.00002010
  977      -16.3948275428      -0.0000000113     1.000000    0.00002010
  978      -16.3948275540      -0.0000000113     1.000000    0.00002009
  979      -16.3948275653      -0.0000000112     1.000000    0.00002009
  980      -16.3948275765      -0.0000000112     1.000000    0.00002008
  981      -16.3948275877      -0.0000000112     1.000000    0.00002008
  982      -16.3948275990      -0.0000000112     1.000000    0.00002007
  983      -16.3948276102      -0.0000000112     1.000000    0.00002007
  984      -16.3948276214      -0.0000000112     1.000000    0.00002007
  985      -16.3948276326      -0.0000000112     1.000000    0.00002006
  986      -16.3948276438      -0.0000000112     1.000000    0.00002006
  987      -16.3948276549      -0.0000000112     1.000000    0.00002005
  988      -16.3948276661      -0.0000000112     1.000000    0.00002005
  989      -16.3948276773      -0.0000000112     1.000000    0.00002004
  990      -16.3948276884      -0.0000000112     1.000000    0.00002004
  991      -16.3948276996      -0.0000000112     1.000000    0.00002004
  992      -16.3948277107      -0.0000000111     1.000000    0.00002003
  993      -16.3948277219      -0.0000000111     1.000000    0.00002003
  994      -16.3948277330      -0.0000000111     1.000000    0.00002002
  995      -16.3948277441      -0.0000000111     1.000000    0.00002002
  996      -16.3948277552      -0.0000000111     1.000000    0.00002002
  997      -16.3948277663      -0.0000000111     1.000000    0.00002001
  998      -16.3948277774      -0.0000000111     1.000000    0.00002001
  999      -16.3948277885      -0.0000000111     1.000000    0.00002000
 1000      -16.3948277996      -0.0000000111     1.000000    0.00002000

Total Energy:                      -16.3948277996 H         -446.1260 eV
Extrapolated to 0:                 -16.3505130788 H         -444.9201 eV

----------------------------------------------------------------------------------
 Solving CP-REKS equation for  1 state vector...
----------------------------------------------------------------------------------
  CG solver: Constructing Y initial guess
  CG solver: Iteration    1    eps =    0.043542488617
  CG solver: Iteration    2    eps =    0.005009515272
  CG solver: Iteration    3    eps =    0.001380197272
  CG solver: Iteration    4    eps =    0.007739090362
  CG solver: Iteration    5    eps =    0.019697632047
  CG solver: Iteration    6    eps =    0.039300314822
  CG solver: Iteration    7    eps =    0.284361407644
  CG solver: Iteration    8    eps =    0.331785581064
  CG solver: Iteration    9    eps =    0.056331420981
  CG solver: Iteration   10    eps =    0.015978565078
  CG solver: Iteration   11    eps =    0.002037377719
  CG solver: Iteration   12    eps =    0.000181259551
  CG solver: Iteration   13    eps =    0.000018088112
  CG solver: Iteration   14    eps =    0.000003655056
  CG solver: Iteration   15    eps =    0.000000409471
  CG solver: Iteration   16    eps =    0.000000036452
  CG solver: Iteration   17    eps =    0.000000005834
  Convergence reached in CG solver after   17 iterations
  CG solver: Calculating converged R, Z, Q2 matrix
----------------------------------------------------------------------------------

----------------------------------------------------------------------------------
 Solving CP-REKS equation for SI between  1 and  2 state vectors...
----------------------------------------------------------------------------------
  CG solver: Constructing Y initial guess
  CG solver: Iteration    1    eps =    0.038099094501
  CG solver: Iteration    2    eps =    0.001150278692
  CG solver: Iteration    3    eps =    0.000251062802
  CG solver: Iteration    4    eps =    0.000329768779
  CG solver: Iteration    5    eps =    0.000205468191
  CG solver: Iteration    6    eps =    0.001010420465
  CG solver: Iteration    7    eps =    0.008521162159
  CG solver: Iteration    8    eps =    0.012422400833
  CG solver: Iteration    9    eps =    0.007290794047
  CG solver: Iteration   10    eps =    0.001174032373
  CG solver: Iteration   11    eps =    0.000269153959
  CG solver: Iteration   12    eps =    0.000034655814
  CG solver: Iteration   13    eps =    0.000002288700
  CG solver: Iteration   14    eps =    0.000000264294
  CG solver: Iteration   15    eps =    0.000000039281
  CG solver: Iteration   16    eps =    0.000000003044
  Convergence reached in CG solver after   16 iterations
  CG solver: Calculating converged R, Z, Q2 matrix
----------------------------------------------------------------------------------

--------------------------------------------------
 Gradient Information
--------------------------------------------------
           1 st state (SSR)
     0.00000000     0.00000000     0.00000000
     0.00000000     0.00000000     0.00000000
     0.00000000     0.00000000     0.00000000
     0.00000000     0.00000000     0.00000000
     0.00000000     0.00000000     0.00000000
     0.00000000     0.00000000     0.00000000
     0.00000000     0.00000000     0.00000000
     0.00000000     0.00000000     0.00000000
     0.00000000     0.00000000     0.00000000
     0.00000000     0.00000000     0.00000000
     0.00000000     0.00000000     0.00000000
     0.00000000     0.00000000     0.00000000
     0.00000000     0.00000000     0.00000000
     0.00000000     0.00000000     0.00000000

           2 st state (SSR)
     0.00000000     0.00000000     0.00000000
     0.00000000     0.00000000     0.00000000
     0.00000000     0.00000000     0.00000000
     0.00000000     0.00000000     0.00000000
     0.00000000     0.00000000     0.00000000
     0.00000000     0.00000000     0.00000000
     0.00000000     0.00000000     0.00000000
     0.00000000     0.00000000     0.00000000
     0.00000000     0.00000000     0.00000000
     0.00000000     0.00000000     0.00000000
     0.00000000     0.00000000     0.00000000
     0.00000000     0.00000000     0.00000000
     0.00000000     0.00000000     0.00000000
     0.00000000     0.00000000     0.00000000
--------------------------------------------------
 Coupling Information
--------------------------------------------------
 between  1 and  2 states
--------------------------------------------------
 g vector - difference gradient
    -1.63159510     0.51419823    -0.12882828
    -0.95530794     2.34092153    -1.85371262
    -0.62704904     0.85692296    -0.78424220
     0.67160082    -1.67438851     0.89657287
     0.07702269    -0.19326667     0.07165146
     6.74687716    -2.05844982     7.62117443
    -2.48822580     0.86528235    -6.35569776
    -1.12465860     0.85331348    -0.71059088
     0.08846593    -1.02519699    -0.14170701
    -0.66216962    -0.79193826     1.94499570
     0.10828225    -0.04458901    -0.14131107
    -0.23075104     0.25659862    -0.40006342
     0.08411580    -0.18503705    -0.21222457
    -0.05660751     0.28562914     0.19398336

 h vector - derivative coupling
     0.46882690    -0.21070257     0.05633035
     0.23500664    -0.62715703     0.47518397
     0.18103027    -0.24619160     0.21145348
    -0.16170395     0.45138415    -0.24747712
    -0.03208215     0.06062442    -0.02300441
    -1.85553634     0.63148890    -2.08222356
     0.68652540    -0.31687492     1.72307059
     0.26933546    -0.18345079     0.24366584
     0.00234269     0.25693995     0.02217324
     0.15403008     0.26964605    -0.48404711
    -0.00966881     0.01559699    -0.01019617
     0.05943014    -0.06006137     0.11803020
    -0.00120423     0.01959643     0.01668686
     0.00366792    -0.06083860    -0.01964615

 G vector - GDV
     0.00000000     0.00000000     0.00000000
     0.00000000     0.00000000     0.00000000
     0.00000000     0.00000000     0.00000000
     0.00000000     0.00000000     0.00000000
     0.00000000     0.00000000     0.00000000
     0.00000000     0.00000000     0.00000000
     0.00000000     0.00000000     0.00000000
     0.00000000     0.00000000     0.00000000
     0.00000000     0.00000000     0.00000000
     0.00000000     0.00000000     0.00000000
     0.00000000     0.00000000     0.00000000
     0.00000000     0.00000000     0.00000000
     0.00000000     0.00000000     0.00000000
     0.00000000     0.00000000     0.00000000

 H vector - DCV - non-adiabatic coupling
     0.00000000     0.00000000     0.00000000
     0.00000000     0.00000000     0.00000000
     0.00000000     0.00000000     0.00000000
     0.00000000     0.00000000     0.00000000
     0.00000000     0.00000000     0.00000000
     0.00000000     0.00000000     0.00000000
     0.00000000     0.00000000     0.00000000
     0.00000000     0.00000000     0.00000000
     0.00000000     0.00000000     0.00000000
     0.00000000     0.00000000     0.00000000
     0.00000000     0.00000000     0.00000000
     0.00000000     0.00000000     0.00000000
     0.00000000     0.00000000     0.00000000
     0.00000000     0.00000000     0.00000000
--------------------------------------------------

WARNING!
-> SCC is NOT converged, maximal SCC iterations exceeded

--------------------------------------------------------------------------------
DFTB+ running times                          cpu [s]             wall clock [s]
--------------------------------------------------------------------------------
SCC                                    +     1.33  ( 76.5%)      1.33  ( 76.4%)
      Sparse to dense                        0.07  (  3.9%)      0.09  (  5.0%)
      Dense to sparse                        0.24  ( 13.7%)      0.22  ( 12.9%)
      Range separated Hamiltonian            0.12  (  6.9%)      0.13  (  7.4%)
  Density matrix creation                    0.15  (  8.4%)      0.15  (  8.8%)
  Force calculation                          0.41  ( 23.4%)      0.41  ( 23.4%)
--------------------------------------------------------------------------------
Missing                                +     0.41  ( 23.5%)      0.41  ( 23.6%)
Total                                  =     1.73  (100.0%)      1.74  (100.0%)
--------------------------------------------------------------------------------
