     6
  Step:   600            Position(A)                                  Velocity(au)
C         0.25682617    -0.07145609    -0.14074393     0.00007691    -0.00004519    -0.00031141
N        -0.17787362     0.01079364     1.55688797    -0.00005901     0.00008415    -0.00054019
H        -1.12338874    -0.51457587     0.00304886     0.00012094     0.00002355     0.00623704
H        -0.96007947     0.54786439     2.25351102    -0.00161305    -0.00277041     0.00211187
H         0.63600608    -0.72059307    -0.73625851     0.00083960    -0.00279597     0.00372005
H        -0.35382694     0.71895445    -0.58598476     0.00055606     0.00491193    -0.00085150
