     6
  Step:     0            Position(A)                                  Velocity(au)
C        -0.03726940     0.00127343     0.00169582    -0.00011575    -0.00009853    -0.00012622
N        -0.03453990    -0.04637305     1.30734642    -0.00001747     0.00007361     0.00015382
H         0.93381840     0.06956596    -0.55431897     0.00114734     0.00041183    -0.00066726
H         0.78363839    -0.14082469     1.87461876     0.00044985    -0.00034457     0.00017994
H        -1.00544925    -0.04837337     1.87857570    -0.00009632    -0.00025089    -0.00006956
H        -1.00086282     0.07909592    -0.49438761     0.00012122     0.00033480    -0.00007658
     6
  Step:     1            Position(A)                                  Velocity(au)
C        -0.03848685     0.00018656     0.00004011    -0.00010394    -0.00010031    -0.00017494
N        -0.03501488    -0.04555398     1.30940517    -0.00006650     0.00007618     0.00022085
H         0.94618305     0.07421230    -0.56202579     0.00107713     0.00043531    -0.00071891
H         0.78991285    -0.14491559     1.87784005     0.00066634    -0.00040115     0.00038710
H        -1.00357421    -0.05111609     1.87624675     0.00043186    -0.00025053    -0.00035005
H        -1.00026881     0.08285219    -0.49645240    -0.00001262     0.00035302    -0.00030254
     6
  Step:     2            Position(A)                                  Velocity(au)
C        -0.03954320    -0.00092102    -0.00213125    -0.00008708    -0.00010230    -0.00021961
N        -0.03599480    -0.04470646     1.31217789    -0.00010810     0.00007872     0.00028340
H         0.95738276     0.07908918    -0.57004660     0.00093992     0.00045407    -0.00072839
H         0.79821578    -0.14960069     1.88308733     0.00081054    -0.00045148     0.00054206
H        -0.99600144    -0.05385419     1.87091768     0.00092925    -0.00025021    -0.00060804
H        -1.00113899     0.08681900    -0.50100616    -0.00013986     0.00037260    -0.00052683
     6
  Step:     3            Position(A)                                  Velocity(au)
C        -0.04039182    -0.00205134    -0.00476435    -0.00006677    -0.00010443    -0.00025862
N        -0.03737977    -0.04383177     1.31560498    -0.00013908     0.00008111     0.00033923
H         0.96674571     0.08414603    -0.57796068     0.00074748     0.00046837    -0.00070338
H         0.80764496    -0.15479261     1.88969863     0.00086814    -0.00049273     0.00063294
H        -0.98324518    -0.05658991     1.86294469     0.00136051    -0.00025045    -0.00082191
H        -1.00332858     0.09100359    -0.50797790    -0.00024778     0.00039209    -0.00073998
     6
  Step:     4            Position(A)                                  Velocity(au)
C        -0.04100399    -0.00320571    -0.00778903    -0.00004458    -0.00010666    -0.00029066
N        -0.03903733    -0.04293200     1.31959923    -0.00015661     0.00008333     0.00038559
H         0.97373539     0.08933563    -0.58543440     0.00051223     0.00047864    -0.00065176
H         0.81720797    -0.16038002     1.89693401     0.00083697    -0.00052341     0.00065715
H        -0.96623778    -0.05933321     1.85293682     0.00168408    -0.00025229    -0.00096688
H        -1.00655963     0.09539672    -0.51719469    -0.00032560     0.00041000    -0.00093326
     6
  Step:     5            Position(A)                                  Velocity(au)
C        -0.04136716    -0.00438466    -0.01112313    -0.00002187    -0.00010889    -0.00031481
N        -0.04080602    -0.04200876     1.32404053    -0.00015820     0.00008549     0.00041940
H         0.97795166     0.09461724    -0.59221923     0.00024642     0.00048551    -0.00058104
H         0.82595519    -0.16624330     1.90407500     0.00072498    -0.00054344     0.00061979
H        -0.94640281    -0.06210925     1.84179243     0.00185354    -0.00025746    -0.00101605
H        -1.01045166     0.09997303    -0.52839477    -0.00036579     0.00042496    -0.00109952
     6
  Step:     6            Position(A)                                  Velocity(au)
C        -0.04148253    -0.00558795    -0.01467619     0.00000021    -0.00011109    -0.00033050
N        -0.04249835    -0.04106175     1.32877448    -0.00014188     0.00008782     0.00043780
H         0.97912634     0.09995712    -0.59814569    -0.00003792     0.00048969    -0.00049822
H         0.83306820    -0.17226876     1.91049318     0.00054687    -0.00055388     0.00053114
H        -0.92568795    -0.06496573     1.83070868     0.00182477    -0.00026833    -0.00094483
H        -1.01456194     0.10469348    -0.54124871    -0.00036467     0.00043589    -0.00123367
     6
  Step:     7            Position(A)                                  Velocity(au)
C        -0.04136251    -0.00681490    -0.01835336     0.00002274    -0.00010712    -0.00043710
N        -0.04390981    -0.04008760     1.33361822    -0.00010749     0.00008758     0.00051667
H         0.97712216     0.10533016    -0.60311865    -0.00039488     0.00057885    -0.00032269
H         0.83791898    -0.17836041     1.91569477     0.00028231    -0.00067277     0.00036767
H        -0.90648256    -0.06797943     1.82112252     0.00160818    -0.00015279    -0.00075219
H        -1.01842942     0.10950902    -0.55538374    -0.00027280     0.00030602    -0.00126412
     6
  Step:     8            Position(A)                                  Velocity(au)
C        -0.04098508    -0.00793135    -0.02423853     0.00004419    -0.00009603    -0.00064334
N        -0.04484991    -0.03914566     1.34007763    -0.00005651     0.00008434     0.00066372
H         0.97048765     0.11262052    -0.60520520    -0.00080880     0.00071078    -0.00006097
H         0.83924424    -0.18698693     1.91853662    -0.00004859    -0.00085508     0.00014201
H        -0.89050594    -0.06830839     1.81425312     0.00120725     0.00004358    -0.00045477
H        -1.02052988     0.11138819    -0.56890366    -0.00009108     0.00007300    -0.00118344
     6
  Step:     9            Position(A)                                  Velocity(au)
C        -0.04039577    -0.00891575    -0.03242763     0.00006107    -0.00008376    -0.00084454
N        -0.04514612    -0.03824251     1.34813831     0.00000759     0.00008116     0.00079839
H         0.95942811     0.12087976    -0.60445256    -0.00118773     0.00078493     0.00018557
H         0.83685591    -0.19706691     1.91880158    -0.00037740    -0.00097274    -0.00008516
H        -0.88007161    -0.06702608     1.81117351     0.00061488     0.00017217    -0.00006420
H        -1.02042205     0.11110605    -0.58127365     0.00011709    -0.00011414    -0.00106733
     6
  Step:    10            Position(A)                                  Velocity(au)
C        -0.03964907    -0.00976370    -0.04271452     0.00007242    -0.00007141    -0.00102254
N        -0.04468385    -0.03737012     1.35754403     0.00007742     0.00007888     0.00090815
H         0.94450374     0.12979237    -0.60114559    -0.00150007     0.00083952     0.00039626
H         0.83098780    -0.20826756     1.91667364    -0.00066691    -0.00107166    -0.00028261
H        -0.87705419    -0.06454187     1.81284868    -0.00009976     0.00027310     0.00038812
H        -1.01796823     0.10889115    -0.59225365     0.00032797    -0.00028619    -0.00093706
     6
  Step:    11            Position(A)                                  Velocity(au)
C        -0.03881142    -0.01047794    -0.05479770     0.00007701    -0.00005966    -0.00117082
N        -0.04345247    -0.03651689     1.36800585     0.00014253     0.00007783     0.00099245
H         0.92661117     0.13924597    -0.59578365    -0.00171352     0.00089049     0.00055107
H         0.82226608    -0.22051151     1.91261901    -0.00088158    -0.00117178    -0.00042602
H        -0.88225405    -0.06105141     1.81966428    -0.00082561     0.00036185     0.00084231
H        -1.01324702     0.10484501    -0.60177371     0.00052248    -0.00045119    -0.00080721
     6
  Step:    12            Position(A)                                  Velocity(au)
C        -0.03796438    -0.01106896    -0.06832847     0.00007338    -0.00004929    -0.00128626
N        -0.04156578    -0.03566742     1.37925579     0.00019213     0.00007847     0.00105403
H         0.90701722     0.14927364    -0.58908985    -0.00179341     0.00095074     0.00062978
H         0.81170152    -0.23390254     1.90735362    -0.00098858    -0.00128885    -0.00049488
H        -0.89511597    -0.05662563     1.83127576    -0.00144478     0.00044723     0.00123609
H        -1.00653790     0.09902052    -0.60991297     0.00068255    -0.00061219    -0.00069093
     6
  Step:    13            Position(A)                                  Velocity(au)
C        -0.03720616    -0.01155626    -0.08293718     0.00006021    -0.00004114    -0.00136783
N        -0.03924929    -0.03480027     1.39106476     0.00021797     0.00008144     0.00109641
H         0.88737690     0.16004514    -0.58200605    -0.00170702     0.00103259     0.00061477
H         0.80063894    -0.24870754     1.90179267    -0.00096339    -0.00143679    -0.00047531
H        -0.91386145    -0.05126741     1.84670606    -0.00186683     0.00053308     0.00152402
H        -0.99831497     0.09145214    -0.61688923     0.00079078    -0.00077036    -0.00060042
     6
  Step:    14            Position(A)                                  Velocity(au)
C        -0.03664708    -0.01196901    -0.09825244     0.00003710    -0.00003603    -0.00141621
N        -0.03679732    -0.03388577     1.40324191     0.00021639     0.00008746     0.00112286
H         0.86967298     0.17186343    -0.57564056    -0.00143351     0.00114715     0.00049662
H         0.79062562    -0.26533506     1.89695530    -0.00079839    -0.00162623    -0.00036481
H        -0.93595650    -0.04496338     1.86461670    -0.00204840     0.00061919     0.00168677
H        -0.98923797     0.08216738    -0.62304826     0.00083112    -0.00092617    -0.00054658
     6
  Step:    15            Position(A)                                  Velocity(au)
C        -0.03639446    -0.01234447    -0.11391951     0.00000551    -0.00003439    -0.00143384
N        -0.03451528    -0.03288691     1.41562950     0.00018891     0.00009694     0.00113634
H         0.85601622     0.18514119    -0.57114164    -0.00097759     0.00130115     0.00028070
H         0.78317271    -0.28428453     1.89381171    -0.00051128    -0.00186114    -0.00017649
H        -0.95867420    -0.03772148     1.88360747    -0.00199240     0.00070297     0.00172879
H        -0.98013273     0.07119048    -0.62884667     0.00079046    -0.00108031    -0.00053819
     6
  Step:    16            Position(A)                                  Velocity(au)
C        -0.03652655    -0.01272143    -0.12962044    -0.00003053    -0.00003591    -0.00142497
N        -0.03266452    -0.03176495     1.42810145     0.00014136     0.00010962     0.00113983
H         0.84828634     0.20032859    -0.56949963    -0.00038050     0.00149274    -0.00000864
H         0.77944031    -0.30605117     1.89309434    -0.00014811    -0.00213518     0.00006031
H        -0.97954411    -0.02958461     1.90243724    -0.00173341     0.00078117     0.00166942
H        -0.97194511     0.05853357    -0.63482228     0.00066144    -0.00123420    -0.00058051
     6
  Step:    17            Position(A)                                  Velocity(au)
C        -0.03706243    -0.01313008    -0.14509339    -0.00006476    -0.00003927    -0.00139530
N        -0.03142266    -0.03048868     1.44056538     0.00008221     0.00012438     0.00113640
H         0.84769197     0.21779769    -0.57133070     0.00028050     0.00170881    -0.00033072
H         0.77993245    -0.33099561     1.89513109     0.00022334    -0.00243025     0.00030513
H        -0.99659590    -0.02063188     1.92012925    -0.00132047     0.00085087     0.00153370
H        -0.96566252     0.04418997    -0.64154641     0.00044583    -0.00138997    -0.00067344
     6
  Step:    18            Position(A)                                  Velocity(au)
C        -0.03794324    -0.01358051    -0.16014526    -0.00009033    -0.00004230    -0.00135111
N        -0.03086591    -0.02904387     1.45296235     0.00002052     0.00013940     0.00112878
H         0.85442283     0.23771218    -0.57673471     0.00090901     0.00192646    -0.00063870
H         0.78432629    -0.35921754     1.89976957     0.00052945    -0.00271923     0.00051639
H        -1.00843202    -0.01097009     1.93598989    -0.00080494     0.00091005     0.00134644
H        -0.96219169     0.02812522    -0.64955512     0.00015767    -0.00155031    -0.00081018
     6
  Step:    19            Position(A)                                  Velocity(au)
C        -0.03903856    -0.01405553    -0.17465140    -0.00010220    -0.00004256    -0.00129814
N        -0.03097366    -0.02743912     1.46525959    -0.00003581     0.00015259     0.00111878
H         0.86757828     0.25994267    -0.58530351     0.00141650     0.00211903    -0.00089306
H         0.79151527    -0.39048399     1.90642811     0.00070946    -0.00297231     0.00066188
H        -1.01420541    -0.00072278     1.94958529    -0.00023477     0.00095767     0.00112994
H        -0.96221308     0.01027400    -0.65927072    -0.00017578    -0.00171769    -0.00097690
     6
  Step:    20            Position(A)                                  Velocity(au)
C        -0.04017899    -0.01451166    -0.18854461    -0.00009879    -0.00003805    -0.00124095
N        -0.03164926    -0.02570565     1.47743771    -0.00008103     0.00016216     0.00110699
H         0.88541152     0.28407006    -0.59627219     0.00174516     0.00226391    -0.00107088
H         0.79984718    -0.42424248     1.91424940     0.00072856    -0.00316432     0.00072505
H        -1.01356803     0.00998086     1.96070956     0.00034599     0.00099375     0.00090419
H        -0.96603729    -0.00945247    -0.67092665    -0.00051649    -0.00189331    -0.00115416
     6
  Step:    21            Position(A)                                  Velocity(au)
C        -0.04119984    -0.01488798    -0.20179964    -0.00008216    -0.00002774    -0.00118265
N        -0.03274625    -0.02389164     1.48947705    -0.00011158     0.00016689     0.00109284
H         0.90575696     0.30946996    -0.60873098     0.00187569     0.00234769    -0.00116719
H         0.80745386    -0.45970963     1.92228989     0.00058058    -0.00327970     0.00070518
H        -1.00663618     0.02101732     1.96936619     0.00089513     0.00101938     0.00068828
H        -0.97351223    -0.03114572    -0.68452010    -0.00082190    -0.00207605    -0.00132025
     6
  Step:    22            Position(A)                                  Velocity(au)
C        -0.04197630    -0.01511854    -0.21441740    -0.00005664    -0.00001168    -0.00112501
N        -0.03409019    -0.02205453     1.50134577    -0.00012549     0.00016627     0.00107484
H         0.92644577     0.33543028    -0.62180672     0.00182033     0.00236699    -0.00119012
H         0.81254853    -0.49599219     1.92967665     0.00028197    -0.00331350     0.00061302
H        -0.99398536     0.03228185     1.97576708     0.00136977     0.00103705     0.00050188
H        -0.98401784    -0.05486996    -0.69980973    -0.00105327    -0.00226204    -0.00145543
     6
  Step:    23            Position(A)                                  Velocity(au)
C        -0.04243894    -0.01514340    -0.22641149    -0.00002717     0.00000929    -0.00106875
N        -0.03549155    -0.02025406     1.51299131    -0.00012163     0.00016029     0.00105091
H         0.94558009     0.36125243    -0.63476718     0.00160912     0.00232587    -0.00115404
H         0.81362240    -0.53219882     1.93570079    -0.00013776    -0.00326959     0.00046507
H        -0.97666980     0.04370470     1.98034578     0.00172537     0.00105080     0.00036587
H        -0.99655463    -0.08063224    -0.71636032    -0.00118270    -0.00244517    -0.00154532
     6
  Step:    24            Position(A)                                  Velocity(au)
C        -0.04257063    -0.01491537    -0.23779844     0.00000210     0.00003386    -0.00101383
N        -0.03675117    -0.01854793     1.52433635    -0.00009930     0.00014922     0.00101878
H         0.96164840     0.38631310    -0.64705363     0.00127765     0.00223236    -0.00107432
H         0.80953473    -0.56752077     1.93985103    -0.00064423    -0.00315780     0.00027922
H        -0.95623955     0.05527019     1.98377118     0.00191815     0.00106645     0.00030130
H        -1.00989173    -0.10836274    -0.73361649    -0.00119658    -0.00261820    -0.00158267
     6
  Step:    25            Position(A)                                  Velocity(au)
C        -0.04239301    -0.01440263    -0.24859100     0.00002832     0.00006066    -0.00095972
N        -0.03766402    -0.01698948     1.53527912    -0.00005839     0.00013356     0.00097650
H         0.97353111     0.41008957    -0.65827000     0.00085968     0.00209588    -0.00096460
H         0.79952858    -0.60128167     1.94180930    -0.00120336    -0.00299158     0.00007213
H        -0.93470666     0.06703535     1.98693738     0.00191261     0.00109106     0.00032575
H        -1.02273207    -0.13791028    -0.75098416    -0.00109496    -0.00277415    -0.00156691
     6
  Step:    26            Position(A)                                  Velocity(au)
C        -0.04195115    -0.01358830    -0.25879420     0.00004991     0.00008840    -0.00090564
N        -0.03802849    -0.01562616     1.54569911    -0.00000013     0.00011395     0.00092288
H         0.98045553     0.43216451    -0.66815608     0.00038440     0.00192577    -0.00083605
H         0.78320902    -0.63296734     1.94142904    -0.00178325    -0.00278698    -0.00014149
H        -0.91439758     0.07913931     1.99089756     0.00169401     0.00113157     0.00044701
H        -1.03384599    -0.16905260    -0.76789568    -0.00088813    -0.00290723    -0.00150243
     6
  Step:    27            Position(A)                                  Velocity(au)
C        -0.04130103    -0.01246865    -0.26840358     0.00006622     0.00011597    -0.00085066
N        -0.03766682    -0.01449668     1.55546882     0.00007190     0.00009149     0.00085802
H         0.98194064     0.45221948    -0.67656028    -0.00012344     0.00173105    -0.00069776
H         0.76051648    -0.66225215     1.93871391    -0.00235405    -0.00256285    -0.00034863
H        -0.89764688     0.09179053     1.99671654     0.00128166     0.00119210     0.00065615
H        -1.04216169    -0.20151157    -0.78385261    -0.00059244    -0.00301351    -0.00139653
     6
  Step:    28            Position(A)                                  Velocity(au)
C        -0.04050238    -0.01105130    -0.27740406     0.00007705     0.00014238    -0.00079384
N        -0.03645549    -0.01362474     1.56446989     0.00015131     0.00006795     0.00078353
H         0.97775495     0.47003453    -0.68342083    -0.00064228     0.00152068    -0.00055739
H         0.73170961    -0.68903449     1.93380214    -0.00288719    -0.00234174    -0.00053735
H        -0.88635892     0.10521880     2.00525203     0.00073524     0.00127108     0.00092360
H        -1.04680678    -0.23497881    -0.79844737    -0.00022656    -0.00309090    -0.00125767
     6
  Step:    29            Position(A)                                  Velocity(au)
C        -0.03961531    -0.00935386    -0.28577029     0.00008239     0.00016675    -0.00073423
N        -0.03435668    -0.01301012     1.57261009     0.00022945     0.00004598     0.00070230
H         0.96788956     0.48548736    -0.68875435    -0.00115225     0.00130390    -0.00042195
H         0.69735360    -0.71348217     1.92695839    -0.00335549    -0.00215063    -0.00069641
H        -0.88156216     0.11959780     2.01692205     0.00014679     0.00135959     0.00120242
H        -1.04711804    -0.26913095    -0.81136656     0.00019066    -0.00313878    -0.00109433
     6
  Step:    30            Position(A)                                  Velocity(au)
C        -0.03869984    -0.00740333    -0.29346680     0.00008218     0.00018822    -0.00067092
N        -0.03143589    -0.01261891     1.57983411     0.00029724     0.00002891     0.00061769
H         0.95254733     0.49855992    -0.69265185    -0.00163382     0.00109085    -0.00029835
H         0.65830196    -0.73608369     1.91856688    -0.00373481    -0.00202040    -0.00081560
H        -0.88314755     0.13496242     2.03155736    -0.00038241     0.00144277     0.00143958
H        -1.04263574    -0.30364562    -0.82238803     0.00064130    -0.00315783    -0.00091452
     6
  Step:    31            Position(A)                                  Velocity(au)
C        -0.03781750    -0.00523616    -0.30044785     0.00007614     0.00020590    -0.00060292
N        -0.02785406    -0.01237766     1.58612316     0.00034746     0.00002025     0.00053258
H         0.93214654     0.50935172    -0.69528132    -0.00206656     0.00089323    -0.00019403
H         0.61564757    -0.75768228     1.90911550    -0.00400819    -0.00198241    -0.00088726
H        -0.88992805     0.15116110     2.04841560    -0.00076976     0.00150412     0.00159037
H        -1.03308835    -0.33821442    -0.83137351     0.00110877    -0.00314988    -0.00072563
     6
  Step:    32            Position(A)                                  Velocity(au)
C        -0.03703403    -0.00289891    -0.30665677     0.00006377     0.00021881    -0.00052918
N        -0.02383457    -0.01217586     1.59148539     0.00037653     0.00002275     0.00044889
H         0.90733730     0.51810094    -0.69689658    -0.00242824     0.00072495    -0.00011744
H         0.57061520    -0.77945265     1.89915648    -0.00417168    -0.00206106    -0.00090883
H        -0.89998760     0.16786798     2.06634967    -0.00096991     0.00153061     0.00162871
H        -1.01837922    -0.37255522    -0.83826250     0.00157754    -0.00311792    -0.00053458
     6
  Step:    33            Position(A)                                  Velocity(au)
C        -0.03642238    -0.00044937    -0.31202475     0.00004428     0.00022587    -0.00044854
N        -0.01961672    -0.01188003     1.59594353     0.00038504     0.00003737     0.00036757
H         0.87902425     0.52521149    -0.69785051    -0.00269464     0.00060255    -0.00007835
H         0.52438401    -0.80277184     1.88923301    -0.00423938    -0.00226299    -0.00088581
H        -0.91114678     0.18464612     2.08404666    -0.00097716     0.00151584     0.00154924
H        -0.99857672    -0.40642482    -0.84306841     0.00203283    -0.00306611    -0.00034805
     6
  Step:    34            Position(A)                                  Velocity(au)
C        -0.03606526     0.00204233    -0.31646942     0.00001681     0.00022596    -0.00035971
N        -0.01541101    -0.01135838     1.59952658     0.00037704     0.00006255     0.00028906
H         0.84838691     0.53128289    -0.69861067    -0.00284121     0.00054459    -0.00008752
H         0.47787054    -0.82895991     1.87977758    -0.00424362    -0.00256680    -0.00083304
H        -0.92136488     0.20102989     2.10024228    -0.00081539     0.00146039     0.00136268
H        -0.97390724    -0.43963233    -0.84587666     0.00246043    -0.00299991    -0.00017261
     6
  Step:    35            Position(A)                                  Velocity(au)
C        -0.03605461     0.00449384    -0.31989408    -0.00001920     0.00021812    -0.00026144
N        -0.01136824    -0.01051166     1.60226720     0.00035847     0.00009409     0.00021370
H         0.81686734     0.53712554    -0.69976523    -0.00284756     0.00056924    -0.00015510
H         0.43154677    -0.85892548     1.87100872    -0.00422751    -0.00291974    -0.00077282
H        -0.92898509     0.21659502     2.11385787    -0.00052405     0.00136999     0.00108864
H        -0.94475014    -0.47205350    -0.84684450     0.00284648    -0.00292608    -0.00001492
     6
  Step:    36            Position(A)                                  Velocity(au)
C        -0.03648532     0.00681409    -0.32218897    -0.00006336     0.00020196    -0.00015277
N        -0.00756875    -0.00930006     1.60420161     0.00033540     0.00012598     0.00014174
H         0.78609111     0.54373602    -0.70200373    -0.00270497     0.00068922    -0.00028747
H         0.38538574    -0.89283488     1.86287057    -0.00423137    -0.00324680    -0.00072955
H        -0.93282958     0.23100098     2.12405826    -0.00014690     0.00125296     0.00074955
H        -0.91163503    -0.50364587    -0.84620310     0.00317750    -0.00285267     0.00011818
     6
  Step:    37            Position(A)                                  Velocity(au)
C        -0.03744075     0.00891219    -0.32323615    -0.00011366     0.00017817    -0.00003338
N        -0.00403082    -0.00775561     1.60536808     0.00031258     0.00015201     0.00007316
H         0.75769096     0.55220348    -0.70605410    -0.00242486     0.00090493    -0.00048293
H         0.33897736    -0.92995550     1.85504836    -0.00427932    -0.00347026    -0.00072292
H        -0.93219891     0.24400601     2.13025578     0.00027396     0.00111810     0.00036711
H        -0.87523625    -0.53446121    -0.84425913     0.00344091    -0.00278837     0.00021994
     6
  Step:    38            Position(A)                                  Velocity(au)
C        -0.03897180     0.01071200    -0.32291925    -0.00016611     0.00014886     0.00009592
N        -0.00073052    -0.00597447     1.60580205     0.00029296     0.00016739     0.00000740
H         0.73304262     0.56353314    -0.71256880    -0.00204370     0.00119817    -0.00072785
H         0.29176732    -0.96875337     1.84705529    -0.00437297    -0.00353060    -0.00076312
H        -0.92683614     0.25546162     2.13208952     0.00069929     0.00097327    -0.00003920
H        -0.83635850    -0.56464680    -0.84139149     0.00362569    -0.00274074     0.00028435
     6
  Step:    39            Position(A)                                  Velocity(au)
C        -0.04107462     0.01216875    -0.32113769    -0.00021510     0.00011739     0.00023283
N         0.00237817    -0.00409370     1.60552999     0.00027783     0.00016956    -0.00005649
H         0.71298121     0.57841581    -0.72197717    -0.00161868     0.00153058    -0.00099563
H         0.24331029    -1.00719408     1.83835372    -0.00449249    -0.00339797    -0.00084962
H        -0.91690052     0.26529811     2.12939812     0.00109096     0.00082510    -0.00045193
H        -0.79591741    -0.59442011    -0.83803834     0.00372252    -0.00271280     0.00030776
     6
  Step:    40            Position(A)                                  Velocity(au)
C        -0.04367755     0.01328018    -0.31782562    -0.00025434     0.00008774     0.00037258
N         0.00534762    -0.00226511     1.60456628     0.00026683     0.00015769    -0.00011942
H         0.69763084     0.59701747    -0.73435022    -0.00121311     0.00184955    -0.00124926
H         0.19348550    -1.04309042     1.82846813    -0.00459804    -0.00307018    -0.00097146
H        -0.90296920     0.27351228     2.12220264     0.00141136     0.00068240    -0.00085284
H        -0.75492126    -0.62399442    -0.83465874     0.00372257    -0.00269857     0.00029332
     6
  Step:    41            Position(A)                                  Velocity(au)
C        -0.04663887     0.01408822    -0.31298672    -0.00027788     0.00006427     0.00050619
N         0.00821567    -0.00064400     1.60291753     0.00025684     0.00013047    -0.00018185
H         0.68644222     0.61887828    -0.74930712    -0.00087977     0.00210327    -0.00144549
H         0.14271930    -1.07436007     1.81710121    -0.00463238    -0.00256500    -0.00110583
H        -0.88602429     0.28022700     2.11074053     0.00163332     0.00057048    -0.00121338
H        -0.71447913    -0.65345659    -0.83162145     0.00362099    -0.00268765     0.00025999
     6
  Step:    42            Position(A)                                  Velocity(au)
C        -0.04975676     0.01468626    -0.30675164    -0.00028270     0.00005141     0.00062408
N         0.01096647     0.00058909     1.60058788     0.00024428     0.00008617    -0.00024479
H         0.67838412     0.64303063    -0.76597300    -0.00065455     0.00226025    -0.00154831
H         0.09214332    -1.09920466     1.80427600    -0.00455592    -0.00192008    -0.00122817
H        -0.86723718     0.28599269     2.09565763     0.00174850     0.00053199    -0.00149503
H        -0.67570515    -0.68279187    -0.82897099     0.00343603    -0.00268213     0.00023659
     6
  Step:    43            Position(A)                                  Velocity(au)
C        -0.05282340     0.01521281    -0.29933373    -0.00027064     0.00005087     0.00072331
N         0.01355973     0.00124107     1.59756234     0.00023006     0.00002610    -0.00031027
H         0.67212266     0.66832556    -0.78317934    -0.00055293     0.00231284    -0.00154534
H         0.04304994    -1.11636544     1.79023257    -0.00437586    -0.00118679    -0.00132902
H        -0.84777242     0.29186526     2.07803397     0.00174821     0.00059315    -0.00167322
H        -0.63930931    -0.71213336    -0.82644555     0.00320864    -0.00268809     0.00024017
     6
  Step:    44            Position(A)                                  Velocity(au)
C        -0.05567763     0.01579904    -0.29092782    -0.00024623     0.00006061     0.00080604
N         0.01599946     0.00116017     1.59380020     0.00021791    -0.00004563    -0.00038002
H         0.66628768     0.69362834    -0.79978029    -0.00056792     0.00226667    -0.00144408
H        -0.00358704    -1.12516787     1.77520124    -0.00411746    -0.00041319    -0.00140967
H        -0.82899167     0.29896894     2.05905270     0.00161600     0.00075291    -0.00174608
H        -0.60550999    -0.74159897    -0.82371686     0.00297531    -0.00269444     0.00027599
     6