|===============================================================================
|
|  DFTB+ release 20.1
|
|  Copyright (C) 2006 - 2020  DFTB+ developers group
|
|===============================================================================
|
|  When publishing results obtained with DFTB+, please cite the following
|  reference:
|
|  * DFTB+, a software package for efficient approximate density functional
|    theory based atomistic simulations, J. Chem. Phys. 152, 124101 (2020).
|    [doi: 10.1063/1.5143190]
|
|  You should also cite additional publications crediting the parametrization
|  data you use. Please consult the documentation of the SK-files for the
|  references.
|
|===============================================================================

Reading input file 'dftb_in.hsd'
Parser version: 8

--------------------------------------------------------------------------------
Reading SK-files:
Done.


Processed input in HSD format written to 'dftb_pin.hsd'

Starting initialization...
--------------------------------------------------------------------------------
OpenMP threads:              1
Chosen random seed:          449649854
Mode:                        Static calculation
Self consistent charges:     Yes
SCC-tolerance:                 0.100000E-05
Max. scc iterations:                   1000
Shell resolved Hubbard:      No
Spin polarisation:           No
Nr. of up electrons:             6.000000
Nr. of down electrons:           6.000000
Periodic boundaries:         No
Electronic solver:           Relatively robust
Maximal SCC-cycles:                    1000
Initial charges:             Set automatically (system chrg:   0.100E+01)
Included shells:             C:  s, p
                             N:  s, p
                             H:  s
Spin coupling constants:     C   1(s)-1(s):  -0.455900E-01
                             C   1(s)-2(p):  -0.293000E-01
                             C   2(p)-1(s):  -0.293000E-01
                             C   2(p)-2(p):  -0.275500E-01
                             N   1(s)-1(s):  -0.468700E-01
                             N   1(s)-2(p):  -0.317000E-01
                             N   2(p)-1(s):  -0.317000E-01
                             N   2(p)-2(p):  -0.307200E-01
                             H   1(s)-1(s):  -0.792500E-01
Range separated hybrid:      Yes
  Screening parameter omega:   0.300000E+00
  Range separated algorithm:   MatrixBased
Extra options:
                             Mulliken analysis
                             Force calculation
Force type                   original
                             Eigenvector printing


REKS Calcuation:             Yes
SSR(2,2) Calcuation:         Yes
Energy Functional:           (PPS+OSS)/2
Number of Core Orbitals:                  5
Number of Active Orbitals:                2
Number of Basis:                         12
Number of States:                         2
State-Averaging Weight:          0.500000
                                 0.500000
State of Interest:                        2
Initial Guess:               Diagonalize H0 matrix
Newton-Raphson for FON opt:  Yes
NR max. Iterations:                      50
Level Shifting:              Yes
Shift Value:                     0.300000
W Scale Factor:              C  =    3.200000
                             N  =    3.200000
                             H  =    3.200000
Transition Dipole:           No
Gradient of Microstate:      No
CP-REKS Solver:              Preconditioned Conjugate-Gradient
CG max. Iterations:                     100
CG Tolerance:                  0.100000E-07
Memory for A and Hxc:        Direct Updating Without Saving
Non-Adiabatic Coupling:      Yes

--------------------------------------------------------------------------------

***  Geometry step: 0

  iSCC       reks energy        Diff energy         x_a       SCC error   
    1       -6.1662320202       0.0000000000     0.875667    0.91480580
    2       -6.1701734296      -0.0039414093     0.891578    0.02780420
    3       -6.1713884830      -0.0012150535     0.909365    0.01415576
    4       -6.1719335643      -0.0005450813     0.927605    0.00994341
    5       -6.1722882838      -0.0003547194     0.947199    0.01045079
    6       -6.1726127286      -0.0003244449     0.968961    0.01153135
    7       -6.1729810567      -0.0003683281     0.988272    0.01083866
    8       -6.1733394396      -0.0003583829     0.996385    0.00672743
    9       -6.1735730572      -0.0002336176     0.998483    0.00451166
   10       -6.1737080753      -0.0001350181     0.999137    0.00362262
   11       -6.1737885630      -0.0000804876     0.999410    0.00315611
   12       -6.1738381310      -0.0000495680     0.999548    0.00263674
   13       -6.1738692623      -0.0000311313     0.999628    0.00216545
   14       -6.1738890397      -0.0000197774     0.999678    0.00176335
   15       -6.1739016957      -0.0000126560     0.999712    0.00142895
   16       -6.1739098370      -0.0000081413     0.999736    0.00115451
   17       -6.1739150962      -0.0000052593     0.999753    0.00093106
   18       -6.1739185064      -0.0000034101     0.999765    0.00075002
   19       -6.1739207251      -0.0000022188     0.999775    0.00060382
   20       -6.1739221735      -0.0000014484     0.999782    0.00048601
   21       -6.1739231219      -0.0000009484     0.999787    0.00039121
   22       -6.1739237448      -0.0000006229     0.999792    0.00031497
   23       -6.1739241551      -0.0000004103     0.999795    0.00025368
   24       -6.1739244262      -0.0000002710     0.999798    0.00020442
   25       -6.1739246057      -0.0000001795     0.999800    0.00016482
   26       -6.1739247248      -0.0000001192     0.999801    0.00013298
   27       -6.1739248042      -0.0000000793     0.999803    0.00010736
   28       -6.1739248571      -0.0000000529     0.999804    0.00008861
   29       -6.1739248924      -0.0000000354     0.999804    0.00007356
   30       -6.1739249161      -0.0000000237     0.999805    0.00006103
   31       -6.1739249320      -0.0000000159     0.999806    0.00005063
   32       -6.1739249427      -0.0000000107     0.999806    0.00004198
   33       -6.1739249499      -0.0000000072     0.999807    0.00003480
   34       -6.1739249548      -0.0000000048     0.999807    0.00002884
   35       -6.1739249580      -0.0000000033     0.999807    0.00002390
   36       -6.1739249602      -0.0000000022     0.999807    0.00001980
   37       -6.1739249617      -0.0000000015     0.999807    0.00001640
   38       -6.1739249627      -0.0000000010     0.999807    0.00001358
   39       -6.1739249634      -0.0000000007     0.999808    0.00001124
   40       -6.1739249639      -0.0000000005     0.999808    0.00000931
   41       -6.1739249642      -0.0000000003     0.999808    0.00000770
   42       -6.1739249644      -0.0000000002     0.999808    0.00000638
   43       -6.1739249646      -0.0000000001     0.999808    0.00000528
   44       -6.1739249647      -0.0000000001     0.999808    0.00000437
   45       -6.1739249647      -0.0000000001     0.999808    0.00000361
   46       -6.1739249648      -0.0000000000     0.999808    0.00000299
   47       -6.1739249648      -0.0000000000     0.999808    0.00000247
   48       -6.1739249648      -0.0000000000     0.999808    0.00000205
   49       -6.1739249649      -0.0000000000     0.999808    0.00000169
   50       -6.1739249649      -0.0000000000     0.999808    0.00000140
   51       -6.1739249649      -0.0000000000     0.999808    0.00000116
   52       -6.1739249649      -0.0000000000     0.999808    0.00000096
  
--------------------------------------------------
 Final SA-REKS(2,2) energy:      -6.17392496
  
 State     Energy      FON(1)    FON(2)   Spin
  PPS   -6.17473618   1.999616  0.000384  0.00
  OSS   -6.17311375   1.000000  1.000000  0.00
 Trip   -6.20600803   1.000000  1.000000  1.00
--------------------------------------------------

 Lagrangian Wab:  -0.00205764 -0.00205792

--------------------------------------------------
 SSR: 2SI-2SA-REKS(2,2) Hamiltonian matrix
               PPS           OSS
   PPS    -6.17473618   -0.00286934
   OSS    -0.00286934   -6.17311375
--------------------------------------------------

----------------------------------------------------------------
 SSR: 2SI-2SA-REKS(2,2) states
                    E_n       C_{PPS}    C_{OSS}
 SSR state  1   -6.17690677  -0.797513  -0.603302
 SSR state  2   -6.17094316   0.603302  -0.797513
----------------------------------------------------------------

 unrelaxed SSR FONs for S1:  1.363833  0.636167

Total Energy:                       -6.1709431561 H         -167.9199 eV
Extrapolated to 0:                  -6.1709431561 H         -167.9199 eV

----------------------------------------------------------------------------------
 Solving CP-REKS equation for  1 state vector...
----------------------------------------------------------------------------------
  CG solver: Constructing Y initial guess
  CG solver: Iteration    1    eps =    0.000219127564
  CG solver: Iteration    2    eps =    0.000005389632
  CG solver: Iteration    3    eps =    0.000002729172
  CG solver: Iteration    4    eps =    0.000000762508
  CG solver: Iteration    5    eps =    0.000000143530
  CG solver: Iteration    6    eps =    0.000000017814
  CG solver: Iteration    7    eps =    0.000000001107
  Convergence reached in CG solver after    7 iterations
  CG solver: Calculating converged R, Z, Q2 matrix
----------------------------------------------------------------------------------

----------------------------------------------------------------------------------
 Solving CP-REKS equation for SI between  1 and  2 state vectors...
----------------------------------------------------------------------------------
  CG solver: Constructing Y initial guess
  CG solver: Iteration    1    eps =    0.001517182262
  CG solver: Iteration    2    eps =    0.000886776131
  CG solver: Iteration    3    eps =    0.000123476915
  CG solver: Iteration    4    eps =    0.000004345124
  CG solver: Iteration    5    eps =    0.000000662693
  CG solver: Iteration    6    eps =    0.000000042395
  CG solver: Iteration    7    eps =    0.000000006059
  Convergence reached in CG solver after    7 iterations
  CG solver: Calculating converged R, Z, Q2 matrix
----------------------------------------------------------------------------------

--------------------------------------------------
 Gradient Information
--------------------------------------------------
           1 st state (SSR)
    -0.13826913    -0.05685638    -0.02062079
     0.05153209     0.10505042    -0.01041017
     0.07684421    -0.00334933     0.01261001
    -0.00896038    -0.07811602     0.06064448
    -0.02291325    -0.00350362    -0.02841093
     0.04176646     0.03677493    -0.01381261

           2 st state (SSR)
    -0.10996481    -0.05218813    -0.03762318
     0.05073044     0.10655339     0.01237817
     0.07205779     0.02124191     0.00532876
    -0.02115010    -0.05963954     0.06363712
    -0.01570954    -0.03553616    -0.01973867
     0.02403622     0.01956854    -0.02398221
--------------------------------------------------
 Coupling Information
--------------------------------------------------
 between  1 and  2 states
--------------------------------------------------
 g vector - difference gradient
    -0.04156820    -0.01006028    -0.02006745
     0.04483171    -0.01790583     0.00296840
     0.00527801     0.00447101     0.00689103
    -0.00903518     0.00296655     0.00048354
    -0.01075555     0.01851843     0.00575384
     0.01124921     0.00201013     0.00397064

 h vector - derivative coupling
    -0.00295480     0.00041861     0.01450784
    -0.01225819     0.00428136    -0.01268000
     0.00099483    -0.01404160     0.00183511
     0.00888816    -0.01043904    -0.00169168
    -0.00070224     0.01140856    -0.00613280
     0.00603225     0.00837211     0.00416153

 G vector - GDV
    -0.01415216    -0.00233413     0.00850120
     0.00040083    -0.00075148    -0.01139417
     0.00239321    -0.01229562     0.00364062
     0.00609486    -0.00923824    -0.00149632
    -0.00360185     0.01601627    -0.00433613
     0.00886512     0.00860320     0.00508480

 H vector - DCV - non-adiabatic coupling
     6.57259678     1.64241123     3.89989153
    -7.79319510     3.08457425    -1.05742583
    -0.80626994    -1.36200008    -1.02821178
     1.86337508    -0.95489672    -0.15519620
     1.70346610    -2.46766335    -1.20820460
    -1.53997292     0.05757466    -0.45085312
--------------------------------------------------


--------------------------------------------------------------------------------
DFTB+ running times                          cpu [s]             wall clock [s]
--------------------------------------------------------------------------------
SCC                                    +     0.02  ( 66.5%)      0.03  ( 60.5%)
Post-SCC processing                    +     0.01  ( 29.6%)      0.01  ( 27.9%)
  Force calculation                          0.01  ( 28.9%)      0.01  ( 25.6%)
--------------------------------------------------------------------------------
Missing                                +     0.00  (  4.0%)      0.01  ( 11.6%)
Total                                  =     0.04  (100.0%)      0.04  (100.0%)
--------------------------------------------------------------------------------
