 Fermi distribution function

Calculation with static geometry


********************************************************************************
 iSCC Total electronic   Diff electronic      SCC error    
   13   -0.52625063E+01   -0.15749180E-10    0.17025883E-06
********************************************************************************

 Total charge:     1.00000000

 Atomic gross charges (e)
 Atom           Charge
    1       0.30390048
    2      -0.18557038
    3       0.18603540
    4       0.25972960
    5       0.25458257
    6       0.18132233

Nr. of electrons (up):     12.00000000
Atom populations (up)
 Atom       Population
    1       3.69609952
    2       5.18557038
    3       0.81396460
    4       0.74027040
    5       0.74541743
    6       0.81867767

l-shell populations (up)
 Atom Sh.   l       Population
    1   1   0       1.41813201
    1   2   1       2.27796750
    2   1   0       1.54006908
    2   2   1       3.64550131
    3   1   0       0.81396460
    4   1   0       0.74027040
    5   1   0       0.74541743
    6   1   0       0.81867767

Orbital populations (up)
 Atom Sh.   l   m       Population  Label
    1   1   0   0       1.41813201  s
    1   2   1  -1       0.38513364  p_y
    1   2   1   0       0.87727454  p_z
    1   2   1   1       1.01555932  p_x
    2   1   0   0       1.54006908  s
    2   2   1  -1       1.37092184  p_y
    2   2   1   0       1.10432799  p_z
    2   2   1   1       1.17025148  p_x
    3   1   0   0       0.81396460  s
    4   1   0   0       0.74027040  s
    5   1   0   0       0.74541743  s
    6   1   0   0       0.81867767  s

Fermi level:                        -0.5216161831 H          -14.1939 eV
Band energy:                        -8.6561484133 H         -235.5458 eV
TS:                                  0.0000000000 H            0.0000 eV
Band free energy (E-TS):            -8.6561484133 H         -235.5458 eV
Extrapolated E(0K):                 -8.6561484133 H         -235.5458 eV
Input / Output electrons (q):     12.0000000000     12.0000000000

Energy H0:                          -5.3994546656 H         -146.9266 eV
Energy SCC:                          0.1369483242 H            3.7266 eV
Total Electronic energy:            -5.2625063415 H         -143.2001 eV
Repulsive energy:                    0.1324189976 H            3.6033 eV
Total energy:                       -5.1300873438 H         -139.5968 eV
Extrapolated to 0:                  -5.1300873438 H         -139.5968 eV
Total Mermin free energy:           -5.1300873438 H         -139.5968 eV
Force related energy:               -5.1300873438 H         -139.5968 eV

SCC converged

Excitation Energy:                   0.1081108508 H            2.9418 eV

Total Forces
    1     -0.007309986041      0.002982787957      0.009498844677
    2      0.011630745041     -0.020711088555     -0.015629065307
    3      0.004927127099      0.002284969803     -0.003755105395
    4     -0.009442170623      0.010204401878     -0.002363837951
    5     -0.006476088171      0.006756012538      0.008849101500
    6      0.006670372694     -0.001517083621      0.003400062477

Maximal derivative component:        0.207111E-01 au


