     6
  Step:     0            Position(A)                                  Velocity(au)
C        -0.03699402     0.01770471     0.00674739     0.00006443    -0.00002467    -0.00025019
N        -0.05038646    -0.04527667     1.30225070    -0.00004420    -0.00006675     0.00015469
H         0.91834431    -0.03515998    -0.48463518     0.00001945     0.00036225     0.00001554
H         0.88378967    -0.15031787     1.88368272     0.00050397     0.00024492    -0.00024904
H        -0.88327104    -0.11287390     1.84721671    -0.00070745     0.00044819     0.00075779
H        -0.99078931     0.04678339    -0.53115911     0.00003049     0.00016620     0.00030741
     6
  Step:     1            Position(A)                                  Velocity(au)
C        -0.03631035     0.01745448     0.00370300     0.00006045    -0.00002135    -0.00030160
N        -0.05061153    -0.04601935     1.30438309    -0.00000028    -0.00006924     0.00023334
H         0.91975267    -0.03128149    -0.48595549     0.00023826     0.00034793    -0.00025591
H         0.88695898    -0.14741325     1.87963758     0.00007439     0.00028507    -0.00048514
H        -0.89259234    -0.10823928     1.85685814    -0.00094407     0.00040504     0.00097042
H        -0.99106478     0.04866801    -0.52878995    -0.00008494     0.00017861     0.00012199
     6
  Step:     2            Position(A)                                  Velocity(au)
C        -0.03567166     0.01723757     0.00014924     0.00005640    -0.00001865    -0.00034310
N        -0.05039264    -0.04679146     1.30735552     0.00003556    -0.00007198     0.00030711
H         0.92355668    -0.02754824    -0.49023372     0.00044625     0.00033615    -0.00051845
H         0.88541711    -0.14408138     1.87306925    -0.00034281     0.00032159    -0.00070100
H        -0.90392436    -0.10401290     1.86844648    -0.00106785     0.00037341     0.00110741
H        -0.99264743     0.05069088    -0.52849027    -0.00020186     0.00019127    -0.00006720
     6
  Step:     3            Position(A)                                  Velocity(au)
C        -0.03507650     0.01704658    -0.00380294     0.00005263    -0.00001665    -0.00037441
N        -0.04983352    -0.04759402     1.31110165     0.00006099    -0.00007462     0.00037341
H         0.92951517    -0.02392749    -0.49729756     0.00062240     0.00032761    -0.00075930
H         0.87945945    -0.14037785     1.86430185    -0.00071710     0.00035162    -0.00087760
H        -0.91595350    -0.10007019     1.88108479    -0.00107281     0.00035238     0.00116208
H        -0.99548086     0.05285242    -0.53026011    -0.00030722     0.00020372    -0.00025276
     6
  Step:     4            Position(A)                                  Velocity(au)
C        -0.03452019     0.01687333    -0.00804163     0.00004936    -0.00001541    -0.00039558
N        -0.04905839    -0.04842388     1.31552464     0.00007439    -0.00007677     0.00042938
H         0.93717295    -0.02038111    -0.50684490     0.00074987     0.00032257    -0.00096813
H         0.86972918    -0.13638895     1.85387005    -0.00101511     0.00037240    -0.00099539
H        -0.92739406    -0.09630394     1.89386925    -0.00096756     0.00034005     0.00113827
H        -0.99936849     0.05514757    -0.53401983    -0.00038920     0.00021544    -0.00042786
     6
  Step:     5            Position(A)                                  Velocity(au)
C        -0.03399657     0.01670955    -0.01245696     0.00004651    -0.00000934    -0.00052816
N        -0.04820609    -0.04927360     1.32049526     0.00007598    -0.00008250     0.00057187
H         0.94592009    -0.01687066    -0.51847730     0.00074140     0.00026873    -0.00106174
H         0.85725206    -0.13223078     1.84252587    -0.00125671     0.00043977    -0.00107551
H        -0.93712080    -0.09263088     1.90598659    -0.00073348     0.00027822     0.00098962
H        -1.00399533     0.05756562    -0.53962038    -0.00036138     0.00027094    -0.00050561
     6
  Step:     6            Position(A)                                  Velocity(au)
C        -0.03350262     0.01666910    -0.01959612     0.00004470     0.00000158    -0.00076824
N        -0.04739610    -0.05022866     1.32803530     0.00006417    -0.00009139     0.00079466
H         0.95339242    -0.01450209    -0.53007253     0.00060104     0.00019166    -0.00104067
H         0.84223634    -0.12676818     1.83034125    -0.00139979     0.00052264    -0.00109915
H        -0.94344030    -0.09021741     1.91551903    -0.00039626     0.00019309     0.00073919
H        -1.00727441     0.06107497    -0.54508105    -0.00022937     0.00034379    -0.00048782
     6
  Step:     7            Position(A)                                  Velocity(au)
C        -0.03301864     0.01674405    -0.02926374     0.00004449     0.00001143    -0.00098471
N        -0.04680229    -0.05127288     1.33788000     0.00003633    -0.00009844     0.00098714
H         0.95906907    -0.01267778    -0.54124390     0.00042208     0.00015077    -0.00099094
H         0.82662895    -0.12079712     1.81847980    -0.00134203     0.00055196    -0.00100265
H        -0.94578973    -0.08840662     1.92215790    -0.00002768     0.00014752     0.00047482
H        -1.00901326     0.06508663    -0.55029236    -0.00008740     0.00038154    -0.00046493
     6
  Step:     8            Position(A)                                  Velocity(au)
C        -0.03252935     0.01691911    -0.04113860     0.00004557     0.00001977    -0.00116962
N        -0.04660126    -0.05238222     1.34963084    -0.00000680    -0.00010323     0.00114095
H         0.96262630    -0.01120370    -0.55175133     0.00022219     0.00012260    -0.00092486
H         0.81287697    -0.11469310     1.80840646    -0.00105344     0.00055318    -0.00077068
H        -0.94404593    -0.08699009     1.92590672     0.00033304     0.00011512     0.00022403
H        -1.00918641     0.06942185    -0.55525232     0.00004976     0.00040813    -0.00044620
     6
  Step:     9            Position(A)                                  Velocity(au)
C        -0.03202179     0.01717652    -0.05485142     0.00004771     0.00002647    -0.00132036
N        -0.04695111    -0.05353133     1.36284040    -0.00006177    -0.00010587     0.00125411
H         0.96392991    -0.00999568    -0.56147706     0.00001855     0.00010007    -0.00085322
H         0.80358302    -0.10869531     1.80161975    -0.00054383     0.00053736    -0.00041414
H        -0.93850389    -0.08588812     1.92705895     0.00064682     0.00008739     0.00001312
H        -1.00792467     0.07401534    -0.56005376     0.00016833     0.00043092    -0.00043973
     6
  Step:    10            Position(A)                                  Velocity(au)
C        -0.03148554     0.01749821    -0.07002403     0.00005064     0.00003156    -0.00143732
N        -0.04795268    -0.05469823     1.37706680    -0.00012129    -0.00010679     0.00132906
H         0.96303220    -0.00901455    -0.57041720    -0.00017199     0.00008002    -0.00078606
H         0.80097966    -0.10293741     1.79934643     0.00012550     0.00051440     0.00002858
H        -0.92989551    -0.08507835     1.92619373     0.00087260     0.00006015    -0.00013207
H        -1.00550385     0.07884897    -0.56487232     0.00025599     0.00045331    -0.00045231
     6
  Step:    11            Position(A)                                  Velocity(au)
C        -0.03091394     0.01786701    -0.08629558     0.00005391     0.00003516    -0.00152278
N        -0.04960461    -0.05586754     1.39191613    -0.00017473    -0.00010663     0.00137130
H         0.96016726    -0.00824508    -0.57867356    -0.00033325     0.00006068    -0.00073255
H         0.80632850    -0.09744180     1.80224495     0.00084691     0.00049383     0.00049846
H        -0.91941419    -0.08457221     1.92416968     0.00096920     0.00003089    -0.00018764
H        -1.00232451     0.08393233    -0.56994889     0.00030283     0.00047736    -0.00048883
     6
  Step:    12            Position(A)                                  Velocity(au)
C        -0.03030618     0.01826749    -0.10333776     0.00005687     0.00003745    -0.00157999
N        -0.05177517    -0.05703097     1.40706671    -0.00021057    -0.00010595     0.00138762
H         0.95574182    -0.00768703    -0.58644306    -0.00045012     0.00004085    -0.00070077
H         0.81950737    -0.09213395     1.81025114     0.00149403     0.00048268     0.00093258
H        -0.90869238    -0.08440259     1.92208865     0.00090199    -0.00000193    -0.00013558
H        -0.99887896     0.08929224    -0.57556644     0.00030255     0.00050441    -0.00055184
     6
  Step:    13            Position(A)                                  Velocity(au)
C        -0.02966975     0.01868632    -0.12086090     0.00005868     0.00003862    -0.00161247
N        -0.05421122    -0.05818533     1.42227302    -0.00021998    -0.00010507     0.00138455
H         0.95032011    -0.00735139    -0.59400418    -0.00050962     0.00001967    -0.00069725
H         0.83901322    -0.08688221     1.82264684     0.00195979     0.00048390     0.00128234
H        -0.89968145    -0.08461438     1.92120363     0.00065395    -0.00003892     0.00003014
H        -0.99570559     0.09496728    -0.58202135     0.00025353     0.00053520    -0.00064111
     6
  Step:    14            Position(A)                                  Velocity(au)
C        -0.02902238     0.01911238    -0.13861361     0.00005837     0.00003888    -0.00162357
N        -0.05658768    -0.05932950     1.43735637    -0.00019971    -0.00010408     0.00136768
H         0.94459299    -0.00725668    -0.60169669    -0.00050254    -0.00000348    -0.00072626
H         0.86238161    -0.08154778     1.83830468     0.00218405     0.00049639     0.00152361
H        -0.89438587    -0.08525401     1.92274812     0.00023857    -0.00007963     0.00029701
H        -0.99333244     0.10100074    -0.58959200     0.00015968     0.00056988    -0.00075354
     6
  Step:    15            Position(A)                                  Velocity(au)
C        -0.02839286     0.01953679    -0.15637957     0.00005496     0.00003842    -0.00161627
N        -0.05858028    -0.06046237     1.45219363    -0.00015297    -0.00010298     0.00134173
H         0.93932599    -0.00742746    -0.60989259    -0.00042535    -0.00002898    -0.00078913
H         0.88679349    -0.07602267     1.85597871     0.00215853     0.00051665     0.00165561
H        -0.89446232    -0.08635647     1.92770125    -0.00029301    -0.00012243     0.00063121
H        -0.99221238     0.10743451    -0.59850642     0.00003068     0.00060792    -0.00088326
     6
  Step:    16            Position(A)                                  Velocity(au)
C        -0.02782004     0.01995295    -0.17397252     0.00004774     0.00003746    -0.00159318
N        -0.05993422    -0.06158229     1.46670923    -0.00008805    -0.00010171     0.00131077
H         0.93528761    -0.00789078    -0.61896036    -0.00028218    -0.00005704    -0.00088340
H         0.90960362    -0.07024514     1.87452436     0.00191347     0.00054058     0.00169272
H        -0.90079606    -0.08793241     1.93655703    -0.00085767    -0.00016469     0.00098252
H        -0.99266124     0.11430021    -0.60891509    -0.00011889     0.00064817    -0.00102240
     6
  Step:    17            Position(A)                                  Velocity(au)
C        -0.02734851     0.02035640    -0.19123337     0.00003648     0.00003620    -0.00155685
N        -0.06050652    -0.06268754     1.48086932    -0.00001550    -0.00010033     0.00127833
H         0.93315270    -0.00867541    -0.62921875    -0.00008609    -0.00008760    -0.00100258
H         0.92865422    -0.06419644     1.89301026     0.00149848     0.00056481     0.00165563
H        -0.91322557    -0.08995933     1.94919577    -0.00136016    -0.00020331     0.00129646
H        -0.99481342     0.12161446    -0.62087338    -0.00027152     0.00068893    -0.00116205
     6
  Step:    18            Position(A)                                  Velocity(au)
C        -0.02702204     0.02074499    -0.20803167     0.00002159     0.00003485    -0.00150997
N        -0.06027328    -0.06377722     1.49467513     0.00005480    -0.00009892     0.00124701
H         0.93340427    -0.00980714    -0.64089377     0.00014173    -0.00012021    -0.00113665
H         0.94238567    -0.05788887     1.91074449     0.00096766     0.00058710     0.00156545
H        -0.93055222    -0.09238026     1.96491966    -0.00171894    -0.00023546     0.00152865
H        -0.99860123     0.12937177    -0.63433705    -0.00040916     0.00072803    -0.00129346
     6
  Step:    19            Position(A)                                  Velocity(au)
C        -0.02687627     0.02111871    -0.22426680     0.00000410     0.00003357    -0.00145519
N        -0.05930772    -0.06485168     1.50815007     0.00011555    -0.00009760     0.00121809
H         0.93625321    -0.01130523    -0.65408522     0.00037448    -0.00015414    -0.00127337
H         0.94982355    -0.05135241     1.92725756     0.00037202     0.00060639     0.00144133
H        -0.95083069    -0.09511055     1.98263781    -0.00188520    -0.00025915     0.00165426
H        -1.00376452     0.13754148    -0.64917032    -0.00051587     0.00076320    -0.00140912
     6
  Step:    20            Position(A)                                  Velocity(au)
C        -0.02693235     0.02147944    -0.23986665    -0.00001451     0.00003253    -0.00139495
N        -0.05774544    -0.06591249     1.52132319     0.00016250    -0.00009648     0.00119140
H         0.94159680    -0.01317935    -0.66875125     0.00058407    -0.00018845    -0.00140013
H         0.95052425    -0.04462289     1.94227623    -0.00024195     0.00062261     0.00130041
H        -0.97179465    -0.09804959     2.00110984    -0.00184758    -0.00027346     0.00166928
H        -1.00988680     0.14606813    -0.66516416    -0.00057981     0.00079232    -0.00150341
     6
  Step:    21            Position(A)                                  Velocity(au)
C        -0.02719380     0.02183040    -0.25478400    -0.00003266     0.00003182    -0.00133129
N        -0.05575264    -0.06696228     1.53421432     0.00019377    -0.00009564     0.00116565
H         0.94903085    -0.01542791    -0.68471576     0.00074569    -0.00022209    -0.00150589
H         0.94453033    -0.03773154     1.95570658    -0.00083043     0.00063668     0.00115909
H        -0.99124998    -0.10109298     2.01915661    -0.00162456    -0.00027848     0.00158524
H        -1.01644901     0.15487507    -0.68206024    -0.00059434     0.00081375    -0.00157297
     6
  Step:    22            Position(A)                                  Velocity(au)
C        -0.02764675     0.02217563    -0.26899124    -0.00004890     0.00003150    -0.00126574
N        -0.05350627    -0.06800481     1.54682408     0.00020873    -0.00009522     0.00113883
H         0.95791017    -0.01803797    -0.70169553     0.00084151    -0.00025411    -0.00158264
H         0.93235708    -0.03069427     1.96763347    -0.00134951     0.00065056     0.00103433
H        -1.00733500    -0.10414187     2.03578994    -0.00125200    -0.00027497     0.00142194
H        -1.02288922     0.16387044    -0.69957583    -0.00055798     0.00082640    -0.00161654
     6
  Step:    23            Position(A)                                  Velocity(au)
C        -0.02826347     0.02251951    -0.28247450    -0.00006220     0.00003158    -0.00119929
N        -0.05118623    -0.06904542     1.55912840     0.00020714    -0.00009540     0.00110858
H         0.96744049    -0.02098703    -0.71933906     0.00086252    -0.00028377    -0.00162604
H         0.91500711    -0.02349919     1.97833445    -0.00175387     0.00066750     0.00094459
H        -1.01863995    -0.10710849     2.05026434    -0.00077231    -0.00026406     0.00120166
H        -1.02865597     0.17295412    -0.71742509    -0.00047367     0.00082984    -0.00163461
     6
  Step:    24            Position(A)                                  Velocity(au)
C        -0.02900742     0.02286640    -0.29522799    -0.00007197     0.00003203    -0.00113247
N        -0.04897474    -0.07009193     1.57107640     0.00018882    -0.00009646     0.00107247
H         0.97677941    -0.02424594    -0.73726819     0.00080816    -0.00031061    -0.00163519
H         0.89398775    -0.01609145     1.98829822    -0.00199852     0.00069213     0.00090936
H        -1.02423068    -0.10991871     2.06207858    -0.00022828    -0.00024705     0.00094596
H        -1.03325155     0.18202479    -0.73533605    -0.00034776     0.00082427    -0.00162903
     6
  Step:    25            Position(A)                                  Velocity(au)
C        -0.02983785     0.02322032    -0.30724938    -0.00007800     0.00003284    -0.00106544
N        -0.04705538    -0.07115568     1.58259080     0.00015407    -0.00009875     0.00102824
H         0.98512045    -0.02778227    -0.75511194     0.00068463    -0.00033449    -0.00161191
H         0.87128559    -0.00835748     1.99822849    -0.00204562     0.00073032     0.00094649
H        -1.02363409    -0.11251322     2.07095895     0.00033838    -0.00022534     0.00067501
H        -1.03626390     0.19098666    -0.75306324    -0.00018898     0.00081045    -0.00160258
     6
  Step:    26            Position(A)                                  Velocity(au)
C        -0.03071379     0.02358474    -0.31853644    -0.00008041     0.00003392    -0.00099810
N        -0.04560418    -0.07225218     1.59357117     0.00010458    -0.00010262     0.00097412
H         0.99175709    -0.03156348    -0.77253183     0.00050288    -0.00035553    -0.00155991
H         0.84923589    -0.00011435     2.00900440    -0.00187637     0.00078822     0.00106686
H        -1.01682801    -0.11484837     2.07684571     0.00088571    -0.00020049     0.00040842
H        -1.03738577     0.19975484    -0.77039550    -0.00000733     0.00078959    -0.00155864
     6
  Step:    27            Position(A)                                  Velocity(au)
C        -0.03159689     0.02396248    -0.32908463    -0.00007950     0.00003523    -0.00093018
N        -0.04476759    -0.07340068     1.60390146     0.00004462    -0.00010831     0.00090922
H         0.99612197    -0.03556006    -0.78923790     0.00027646    -0.00037410    -0.00148394
H         0.83023646     0.00888623     2.02156801    -0.00150460     0.00087037     0.00126757
H        -1.00425744    -0.11689923     2.07989394     0.00136881    -0.00017437     0.00016665
H        -1.03642429     0.20826053    -0.78716144     0.00018657     0.00076334    -0.00150098
     6
  Step:    28            Position(A)                                  Velocity(au)
C        -0.03245301     0.02435554    -0.33888591    -0.00007571     0.00003668    -0.00086133
N        -0.04462800    -0.07462160     1.61346204    -0.00001823    -0.00011571     0.00083386
H         0.99780524    -0.03974767    -0.80499594     0.00002017    -0.00039078    -0.00138930
H         0.81631987     0.01892669     2.03673499    -0.00098459     0.00097720     0.00152677
H        -0.98688270    -0.11866314     2.08049155     0.00173793    -0.00014924    -0.00002783
H        -1.03330414     0.21645434    -0.80323228     0.00038205     0.00073359    -0.00143357
     6
  Step:    29            Position(A)                                  Velocity(au)
C        -0.03325330     0.02476502    -0.34792783    -0.00006957     0.00003819    -0.00079112
N        -0.04516642    -0.07593197     1.62214372    -0.00007366    -0.00012426     0.00074952
H         0.99656322    -0.04410920    -0.81963155    -0.00025076    -0.00040632    -0.00128153
H         0.80869662     0.03026442     2.05496912    -0.00040518     0.00110314     0.00180427
H        -0.96623691    -0.12016414     2.07928509     0.00193990    -0.00012764    -0.00015086
H        -1.02806626     0.22430923    -0.81852353     0.00056870     0.00070249    -0.00136048
     6
  Step:    30            Position(A)                                  Velocity(au)
C        -0.03397497     0.02519104    -0.35619312    -0.00006164     0.00003967    -0.00071908
N        -0.04623955    -0.07734001     1.62985929    -0.00011069    -0.00013300     0.00065846
H         0.99231944    -0.04863679    -0.83303184    -0.00052110    -0.00042167    -0.00116632
H         0.80745567     0.04306003     2.07620683     0.00013160     0.00123692     0.00205013
H        -0.94444375    -0.12145544     2.07719129     0.00192541    -0.00011206    -0.00017961
H        -1.02086267     0.23182265    -0.83299536     0.00073676     0.00067233    -0.00128575
     6
  Step:    31            Position(A)                                  Velocity(au)
C        -0.03460177     0.02563291    -0.36365914    -0.00005255     0.00004105    -0.00064474
N        -0.04758795    -0.07884163     1.63654884    -0.00012074    -0.00014083     0.00056320
H         0.98516321    -0.05333405    -0.84514701    -0.00077583    -0.00043796    -0.00104949
H         0.81157558     0.05732443     2.09981959     0.00053878     0.00136448     0.00221831
H        -0.92411497    -0.12261574     2.07535567     0.00166361    -0.00010411    -0.00009935
H        -1.01194819     0.23901772    -0.84665182     0.00087746     0.00064546    -0.00121317
     6
  Step:    32            Position(A)                                  Velocity(au)
C        -0.03512466     0.02608912    -0.37029800    -0.00004299     0.00004228    -0.00056761
N        -0.04888090    -0.08042096     1.64218045    -0.00010053    -0.00014689     0.00046639
H         0.97534665    -0.05821792    -0.85599149    -0.00100026    -0.00045652    -0.00093702
H         0.81924250     0.07291061     2.12473668     0.00076495     0.00147310     0.00227829
H        -0.90804900    -0.12373298     2.07501780     0.00116112    -0.00010335     0.00008739
H        -1.00166646     0.24594336    -0.85953586     0.00098346     0.00062419    -0.00114605
     6
  Step:    33            Position(A)                                  Velocity(au)
C        -0.03554237     0.02655785    -0.37607665    -0.00003371     0.00004335    -0.00048726
N        -0.04978714    -0.08205508     1.64675194    -0.00005340    -0.00015084     0.00037098
H         0.96328062    -0.06332134    -0.86564601    -0.00118032    -0.00047894    -0.00083494
H         0.82831033     0.08955121     2.14966154     0.00079892     0.00155462     0.00221950
H        -0.89871330    -0.12487670     2.07726748     0.00047590    -0.00010661     0.00035335
H        -0.99043307     0.25267297    -0.87172376     0.00104925     0.00061060    -0.00108697
     6
  Step:    34            Position(A)                                  Velocity(au)
C        -0.03586207     0.02703738    -0.38095766    -0.00002548     0.00004429    -0.00040336
N        -0.05004918    -0.08372092     1.65029636     0.00001154    -0.00015296     0.00028043
H         0.94952480    -0.06869572    -0.87425749    -0.00130334    -0.00050698    -0.00074911
H         0.83672051     0.10692093     2.17329244     0.00066094     0.00160654     0.00204868
H        -0.89763769    -0.12606527     2.08274806    -0.00028619    -0.00010820     0.00064745
H        -0.97871213     0.25930132    -0.88331532     0.00107179     0.00060639    -0.00103744
     6
  Step:    35            Position(A)                                  Velocity(au)
C        -0.03609983     0.02752681    -0.38490090    -0.00001914     0.00004522    -0.00031578
N        -0.04953458    -0.08540127     1.65288683     0.00008239    -0.00015390     0.00019822
H         0.93476748    -0.07441256    -0.88203430    -0.00135905    -0.00054249    -0.00068464
H         0.84276971     0.12469730     2.19448032     0.00038846     0.00163111     0.00178348
H        -0.90497415    -0.12724368     2.09143175    -0.00099740    -0.00010151     0.00090703
H        -0.96698565     0.26593894    -0.89441982     0.00105109     0.00061265    -0.00099753
     6
  Step:    36            Position(A)                                  Velocity(au)
C        -0.03628072     0.02802673    -0.38786592    -0.00001543     0.00004630    -0.00022465
N        -0.04824674    -0.08708776     1.65463282     0.00014797    -0.00015448     0.00012698
H         0.91979293    -0.08056377    -0.88923531    -0.00134125    -0.00058719    -0.00064505
H         0.84521883     0.14260463     2.21230940     0.00002400     0.00163379     0.00144627
H        -0.91945764    -0.12828593     2.10259117    -0.00154565    -0.00008128     0.00107671
H        -0.95571757     0.27270428    -0.90513830     0.00099052     0.00062967    -0.00096558
     6
  Step:    37            Position(A)                                  Velocity(au)
C        -0.03643730     0.02853965    -0.38981553    -0.00001489     0.00004770    -0.00013047
N        -0.04629754    -0.08878072     1.65566486     0.00020046    -0.00015540     0.00006766
H         0.90542504    -0.08725854    -0.89614592    -0.00124973    -0.00064235    -0.00063114
H         0.84329476     0.16043951     2.22612025    -0.00039180     0.00162182     0.00106033
H        -0.93878825    -0.12902186     2.11498689    -0.00186344    -0.00004519     0.00112344
H        -0.94531623     0.27971415    -0.91554367     0.00089671     0.00065683    -0.00093811
     6
  Step:    38            Position(A)                                  Velocity(au)
C        -0.03660641     0.02907022    -0.39072014    -0.00001769     0.00004960    -0.00003415
N        -0.04386133    -0.09048742     1.65611297     0.00023610    -0.00015723     0.00001931
H         0.89245279    -0.09461634    -0.90304273    -0.00109165    -0.00070837    -0.00064005
H         0.83664737     0.17808499     2.23550610    -0.00082260     0.00160355     0.00064825
H        -0.96022395    -0.12927447     2.12716847    -0.00193492     0.00000596     0.00104058
H        -0.93610028     0.28707377    -0.92566130     0.00077909     0.00069267    -0.00091004
     6
  Step:    39            Position(A)                                  Velocity(au)
C        -0.03682437     0.02962479    -0.39056267    -0.00002352     0.00005212     0.00006294
N        -0.04113246    -0.09222033     1.65608720     0.00025428    -0.00016040    -0.00002046
H         0.88154314    -0.10275543    -0.91014824    -0.00088209    -0.00078445    -0.00066461
H         0.82529890     0.19552031     2.24030197    -0.00123600     0.00158834     0.00023192
H        -0.98111832    -0.12889151     2.13775149    -0.00178407     0.00006907     0.00084205
H        -0.92827225     0.29486756    -0.93545258     0.00064887     0.00073497    -0.00087507
     6
  Step:    40            Position(A)                                  Velocity(au)
C        -0.03712106     0.03021051    -0.38934318    -0.00003156     0.00005528     0.00015910
N        -0.03829842    -0.09399653     1.65566546     0.00025613    -0.00016539    -0.00005479
H         0.87315535    -0.11177779    -0.91758237    -0.00064283    -0.00086842    -0.00069367
H         0.80960756     0.21283302     2.24057970    -0.00160230     0.00158685    -0.00016695
H        -0.99925394    -0.12776350     2.14559000    -0.00145591     0.00013998     0.00055260
H        -0.92190506     0.30315261    -0.94480504     0.00051784     0.00078115    -0.00082637
     6
  Step:    41            Position(A)                                  Velocity(au)
C        -0.03751484     0.03083412    -0.38708205    -0.00004061     0.00005896     0.00025245
N        -0.03552912    -0.09583844     1.65488850     0.00024332    -0.00017271    -0.00008709
H         0.86748002    -0.12175387    -0.92532357    -0.00039927    -0.00095679    -0.00071350
H         0.79024550     0.23023561     2.23664969    -0.00189380     0.00161143    -0.00052658
H        -1.01296921    -0.12582917     2.14984072    -0.00100112     0.00021433     0.00019967
H        -0.91694356     0.31195678    -0.95353091     0.00039688     0.00082859    -0.00075754
     6
  Step:    42            Position(A)                                  Velocity(au)
C        -0.03800952     0.03150027    -0.38382036    -0.00004935     0.00006291     0.00034120
N        -0.03297538    -0.09777493     1.65376023     0.00021756    -0.00018302    -0.00012054
H         0.86442047    -0.13270933    -0.93319149    -0.00017646    -0.00104520    -0.00070999
H         0.76817700     0.24808604     2.22905979    -0.00208587     0.00167595    -0.00082619
H        -1.02115533    -0.12307460     2.14995806    -0.00046779     0.00028799    -0.00019101
H        -0.91322256     0.32127950    -0.96137762     0.00029484     0.00087497    -0.00066340
     6
  Step:    43            Position(A)                                  Velocity(au)
C        -0.03859449     0.03221045    -0.37961766    -0.00005660     0.00006683     0.00042387
N        -0.03076950    -0.09984246     1.65225137     0.00018074    -0.00019699    -0.00015791
H         0.86361965    -0.14461961    -0.94085587     0.00000481    -0.00112914    -0.00067098
H         0.74461303     0.26690028     2.21857530    -0.00216024     0.00179436    -0.00104863
H        -1.02320308    -0.11952875     2.14566192     0.00010035     0.00035725    -0.00059645
H        -0.91049336     0.33109837    -0.96804400     0.00021793     0.00091867    -0.00054046
     6
  Step:    44            Position(A)                                  Velocity(au)
C        -0.03924774     0.03296222    -0.37454728    -0.00006151     0.00007032     0.00049951
N        -0.02902143    -0.10208445     1.65030568     0.00013539    -0.00021507    -0.00020124
H         0.86452564    -0.15741140    -0.94787044     0.00013061    -0.00120467    -0.00058821
H         0.72091763     0.28734120     2.20611902    -0.00211030     0.00197781    -0.00118469
H        -1.01896001    -0.11525912     2.13690965     0.00066183     0.00041871    -0.00099544
H        -0.90845482     0.34137723    -0.97320130     0.00016944     0.00095893    -0.00038731
     6