    14
  Step:   600            Position(A)                                  Velocity(au)
C        -6.10368951    -0.53877419    -0.01813415    -0.00084064     0.00011246     0.00003888
C        -4.71073010    -0.86138828     0.01344102     0.00032703     0.00012055    -0.00008254
H        -6.29448230     0.43051231     0.05704270     0.00111651     0.00357725     0.00055079
H        -6.71867666    -1.50208935    -0.06628579    -0.00193068    -0.00393284    -0.00098217
H        -4.11947941    -1.93094489    -0.06213517     0.00178913     0.00060497    -0.00042187
C        -3.85565482     0.33511919    -0.07579012    -0.00089028    -0.00095221    -0.00021165
C        -2.44563716     0.29630413     0.19392027     0.00016697    -0.00052366     0.00034176
H        -4.31386332     1.38733181    -0.28483697    -0.00114002     0.00096091    -0.00052307
H        -1.89605208    -0.59443655     0.47188858     0.00005055     0.00329165    -0.00029683
C        -1.85120986     1.72627045     0.07739146     0.00052848     0.00012863     0.00031239
H        -2.38934988     2.58836952    -0.11615715     0.00213244     0.00169136    -0.00016825
N        -0.57663915     1.92026572     0.14429734     0.00032014     0.00035130    -0.00016009
H        -0.15852347     2.86466268    -0.05326667     0.00015606     0.00129977    -0.00072847
H        -0.05748856     1.30332976     0.78922455     0.00181920     0.00090268     0.00004214
