    14
  Step:     0            Position(A)                                  Velocity(au)
C        -5.93687497    -0.86082700    -0.06745012     0.00019267    -0.00020451    -0.00002331
C        -4.64827750    -0.69589205     0.22068585    -0.00044753    -0.00015582     0.00011491
H        -6.52305882    -0.08280910    -0.53015568     0.00087947     0.00016396     0.00024065
H        -6.55984968    -1.73217852     0.21306408    -0.00079836     0.00203804    -0.00097456
H        -4.02810691    -1.49543620     0.67722614     0.00006293     0.00035413    -0.00042649
C        -3.95234536     0.52336757    -0.19640762     0.00024206     0.00015746     0.00005876
C        -2.64216079     0.63163881     0.16244503     0.00005129     0.00000048    -0.00011613
H        -4.52953624     1.28793804    -0.73808630    -0.00043247    -0.00089150    -0.00006310
H        -2.12025761    -0.22743218     0.59818388    -0.00008677    -0.00021477     0.00069383
C        -1.82539292     1.76374169    -0.04332456    -0.00033200    -0.00004405     0.00014559
H        -2.17244390     2.69737149    -0.56634774    -0.00005583     0.00052951     0.00025785
N        -0.54099398     1.63890264     0.25650455     0.00033469     0.00000293    -0.00015557
H         0.12879389     2.38619498     0.13068127     0.00012773     0.00163519    -0.00087577
H        -0.18578612     0.80245174     0.75972346    -0.00084999    -0.00071859     0.00116683
    14
  Step:     1            Position(A)                                  Velocity(au)
C        -5.93521804    -0.86318483    -0.06771305     0.00010890    -0.00022249    -0.00002688
C        -4.65277134    -0.69749275     0.22193944    -0.00036915    -0.00013505     0.00011456
H        -6.51349689    -0.08048899    -0.52783246     0.00086442     0.00026851     0.00017895
H        -6.56777790    -1.70972592     0.20219182    -0.00067479     0.00201417    -0.00099583
H        -4.02796718    -1.49100401     0.67255953    -0.00003303     0.00044338    -0.00041798
C        -3.95015007     0.52490120    -0.19580172     0.00015738     0.00012042     0.00005253
C        -2.64123333     0.63172086     0.16123329     0.00011792     0.00001253    -0.00010430
H        -4.53378439     1.27801509    -0.73853724    -0.00034561    -0.00090755    -0.00002649
H        -2.12151530    -0.22979779     0.60578092    -0.00014764    -0.00020537     0.00068694
C        -1.82925656     1.76335613    -0.04184223    -0.00036936    -0.00002467     0.00012579
H        -2.17263268     2.70201917    -0.56273628     0.00001936     0.00031254     0.00040385
N        -0.53703755     1.63888216     0.25490220     0.00038782    -0.00000500    -0.00013782
H         0.13022267     2.40427024     0.12102896     0.00009859     0.00161433    -0.00087443
H        -0.19563819     0.79560987     0.77185292    -0.00094824    -0.00050015     0.00103353
    14
  Step:     2            Position(A)                                  Velocity(au)
C        -5.93449268    -0.86569450    -0.06803808     0.00002409    -0.00023149    -0.00003466
C        -4.65635344    -0.69884659     0.22319213    -0.00028270    -0.00011082     0.00011442
H        -6.50414797    -0.07693490    -0.52624079     0.00084200     0.00038604     0.00010877
H        -6.57461197    -1.68811469     0.19127834    -0.00060514     0.00188035    -0.00098103
H        -4.02882945    -1.48573637     0.66808201    -0.00011665     0.00050378    -0.00039041
C        -3.94890242     0.52600207    -0.19525846     0.00006977     0.00007853     0.00004754
C        -2.63958116     0.63191293     0.16016319     0.00018317     0.00002082    -0.00009048
H        -4.53709712     1.26808358    -0.73866575    -0.00026425    -0.00089174    -0.00000594
H        -2.12348755    -0.23192501     0.61321203    -0.00021518    -0.00017316     0.00066444
C        -1.83347330     1.76320202    -0.04057271    -0.00039585    -0.00000264     0.00010716
H        -2.17202039     2.70420886    -0.55751278     0.00008745     0.00008847     0.00054810
N        -0.53250972     1.63879317     0.25348941     0.00043782    -0.00000912    -0.00012144
H         0.13095072     2.42151147     0.11155154     0.00000714     0.00148993    -0.00084462
H        -0.20653071     0.79151006     0.78233389    -0.00103471    -0.00023015     0.00087275
    14
  Step:     3            Position(A)                                  Velocity(au)
C        -5.93469100    -0.86824913    -0.06847138    -0.00005838    -0.00023028    -0.00004651
C        -4.65895598    -0.69991710     0.22444252    -0.00019204    -0.00008345     0.00011380
H        -6.49507658    -0.07204373    -0.52545297     0.00081521     0.00050886     0.00003402
H        -6.58101654    -1.66858968     0.18072989    -0.00059996     0.00163364    -0.00092955
H        -4.03051904    -1.47998278     0.66401854    -0.00018110     0.00052989    -0.00034126
C        -3.94862371     0.52661909    -0.19476168    -0.00001882     0.00003223     0.00004422
C        -2.63722616     0.63217624     0.15925392     0.00024583     0.00002588    -0.00007518
H        -4.53956531     1.25850660    -0.73866729    -0.00019343    -0.00084234    -0.00000441
H        -2.12622267    -0.23358594     0.62031678    -0.00028465    -0.00012269     0.00062864
C        -1.83791661     1.76329834    -0.03949796    -0.00041041     0.00002016     0.00009059
H        -2.17071960     2.70395466    -0.55074546     0.00014228    -0.00012586     0.00068172
N        -0.52745936     1.63868265     0.25224556     0.00048213    -0.00000869    -0.00010738
H         0.13037878     2.43686542     0.10255134    -0.00012945     0.00127979    -0.00078884
H        -0.21827439     0.79057485     0.79094607    -0.00109902     0.00006532     0.00069968
    14
  Step:     4            Position(A)                                  Velocity(au)
C        -5.93576987    -0.87073226    -0.06905567    -0.00013569    -0.00021852    -0.00006193
C        -4.66055468    -0.70067223     0.22568181    -0.00010110    -0.00005341     0.00011207
H        -6.48631364    -0.06580262    -0.52549661     0.00078690     0.00062854    -0.00004119
H        -6.58773730    -1.65237575     0.17094256    -0.00066145     0.00128240    -0.00084442
H        -4.03279137    -1.47414409     0.66061637    -0.00022088     0.00051812    -0.00026914
C        -3.94931422     0.52670726    -0.19429100    -0.00010663    -0.00001783     0.00004288
C        -2.63420326     0.63247906     0.15851841     0.00030484     0.00002848    -0.00005901
H        -4.54132870     1.24965588    -0.73876228    -0.00013680    -0.00075970    -0.00002338
H        -2.12971474    -0.23460902     0.62696474    -0.00035103    -0.00005954     0.00058250
C        -1.84245175     1.76364308    -0.03859094    -0.00041263     0.00004175     0.00007685
H        -2.16890767     2.70145534    -0.54259887     0.00017822    -0.00031364     0.00079606
N        -0.52196227     1.63860296     0.25114025     0.00051850    -0.00000340    -0.00009647
H         0.12811872     2.44950932     0.09429424    -0.00029112     0.00100678    -0.00071105
H        -0.23057391     0.79293897     0.79764063    -0.00113232     0.00036022     0.00053018
    14
  Step:     5            Position(A)                                  Velocity(au)
C        -5.93765951    -0.87302969    -0.06982611    -0.00020599    -0.00019706    -0.00008002
C        -4.66116772    -0.70108554     0.22689437    -0.00001356    -0.00002126     0.00010867
H        -6.47786166    -0.05829312    -0.52635399     0.00075923     0.00073665    -0.00011285
H        -6.59548710    -1.64053469     0.16225663    -0.00078019     0.00084860    -0.00073284
H        -4.03535120    -1.46864791     0.65813068    -0.00023261     0.00046754    -0.00017414
C        -3.95095645     0.52622902    -0.19382351    -0.00019225    -0.00007094     0.00004366
C        -2.63055716     0.63279938     0.15796302     0.00035953     0.00002964    -0.00004255
H        -4.54255812     1.24188668    -0.73917879    -0.00009620    -0.00064660    -0.00006262
H        -2.13390208    -0.23488848     0.63306008    -0.00040927     0.00001001     0.00052929
C        -1.84694360     1.76421179    -0.03781677    -0.00040281     0.00006005     0.00006660
H        -2.16682071     2.69709323    -0.53333022     0.00019026    -0.00045845     0.00088296
N        -0.51611617     1.63860826     0.25013503     0.00054520     0.00000680    -0.00008937
H         0.12401003     2.45889056     0.08699585    -0.00045710     0.00069651    -0.00061632
H        -0.24304615     0.79845529     0.80254484    -0.00112754     0.00062942     0.00038034
    14
  Step:     6            Position(A)                                  Velocity(au)
C        -5.94027633    -0.87504336    -0.07080631    -0.00026867    -0.00016794    -0.00009962
C        -4.66085128    -0.70113731     0.22805917     0.00006745     0.00001233     0.00010319
H        -6.46970401    -0.04968703    -0.52796544     0.00073342     0.00082549    -0.00017747
H        -6.60480550    -1.63381097     0.15491021    -0.00093443     0.00036696    -0.00060576
H        -4.03788012    -1.46391575     0.65680667    -0.00021573     0.00038049    -0.00005813
C        -3.95352011     0.52515534    -0.19333578    -0.00027476    -0.00012626     0.00004650
C        -2.62633778     0.63312739     0.15758761     0.00040960     0.00003051    -0.00002638
H        -4.54343337     1.23551036    -0.74013220    -0.00007131    -0.00050834    -0.00011991
H        -2.13866821    -0.23439002     0.63854389    -0.00045449     0.00007932     0.00047239
C        -1.85126396     1.76495676    -0.03713402    -0.00038187     0.00007297     0.00006036
H        -2.16474545     2.69142588    -0.52328243     0.00017432    -0.00054524     0.00093520
N        -0.51003490     1.63875180     0.24918511     0.00056104     0.00002169    -0.00008655
H         0.11811877     2.46474686     0.08081096    -0.00060711     0.00037600    -0.00051062
H        -0.25524092     0.80670879     0.80596128    -0.00107964     0.00084975     0.00026565
    14
  Step:     7            Position(A)                                  Velocity(au)
C        -5.94353709    -0.87670375    -0.07200557    -0.00032425    -0.00013409    -0.00011940
C        -4.65969201    -0.70081581     0.22915190     0.00013961     0.00004655     0.00009547
H        -6.46181674    -0.04023402    -0.53023646     0.00070957     0.00088880    -0.00023231
H        -6.61592961    -1.63250683     0.14900442    -0.00109336    -0.00011982    -0.00047615
H        -4.04007069    -1.46032392     0.65685900    -0.00017301     0.00026308     0.00007507
C        -3.95696739     0.52346681    -0.19280615    -0.00035360    -0.00018286     0.00005116
C        -2.62159642     0.63346678     0.15738592     0.00045493     0.00003228    -0.00001104
H        -4.54411825     1.23076569    -0.74180205    -0.00005961    -0.00035273    -0.00019092
H        -2.14384501    -0.23315329     0.64339450    -0.00048224     0.00014170     0.00041518
C        -1.85529768     1.76580814    -0.03649633    -0.00035111     0.00007874     0.00005847
H        -2.16300723     2.68516516    -0.51287102     0.00012776    -0.00056210     0.00094731
N        -0.50384226     1.63908286     0.24824152     0.00056531     0.00004072    -0.00008828
H         0.11072828     2.46711622     0.07582501    -0.00072194     0.00007287    -0.00040057
H        -0.26666543     0.81704519     0.80835642    -0.00098611     0.00100170     0.00019977
    14
  Step:     8            Position(A)                                  Velocity(au)
C        -5.94736990    -0.87797689    -0.07341838    -0.00037402    -0.00009874    -0.00013809
C        -4.65779702    -0.70011892     0.23014784     0.00020152     0.00008042     0.00008562
H        -6.45418080    -0.03024291    -0.53304768     0.00068677     0.00092220    -0.00027561
H        -6.62872489    -1.63643222     0.14449353    -0.00122377    -0.00056865    -0.00035660
H        -4.04166514    -1.45816029     0.65844900    -0.00011063     0.00012515     0.00021967
C        -3.96125586     0.52115499    -0.19221664    -0.00042829    -0.00023962     0.00005722
C        -2.61638531     0.63383350     0.15734601     0.00049524     0.00003584     0.00000298
H        -4.54473737     1.22779366    -0.74430893    -0.00005677    -0.00018953    -0.00026937
H        -2.14921817    -0.23129004     0.64762684    -0.00048871     0.00019089     0.00036093
C        -1.85894521     1.76667932    -0.03585497    -0.00031189     0.00007630     0.00006098
H        -2.16195040     2.67912893    -0.50255811     0.00005009    -0.00050274     0.00091677
N        -0.49766768     1.63964257     0.24725372     0.00055761     0.00006287    -0.00009454
H         0.10232505     2.46634102     0.07204767    -0.00078399    -0.00018540    -0.00029319
H        -0.27681391     0.82862280     0.81033163    -0.00084728     0.00107198     0.00019256
    14
  Step:     9            Position(A)                                  Velocity(au)
C        -5.95171948    -0.87886395    -0.07502648    -0.00041942    -0.00006480    -0.00015469
C        -4.65528341    -0.69905656     0.23102503     0.00025267     0.00011271     0.00007402
H        -6.44679233    -0.02005924    -0.53626591     0.00066326     0.00092340    -0.00030665
H        -6.64270198    -1.64494718     0.14120313    -0.00129760    -0.00094389    -0.00025709
H        -4.04249085    -1.45758608     0.66166468    -0.00003746    -0.00002053     0.00036829
C        -3.96633712     0.51822470    -0.19155428    -0.00049810    -0.00029523     0.00006422
C        -2.61076206     0.63425089     0.15745105     0.00052969     0.00004151     0.00001528
H        -4.54536023     1.22661929    -0.74769493    -0.00005746    -0.00002960    -0.00034756
H        -2.15453653    -0.22897716     0.65129052    -0.00047107     0.00022156     0.00031263
C        -1.86212083     1.76747725    -0.03516236    -0.00026524     0.00006576     0.00006757
H        -2.16191150     2.67416680    -0.49281500    -0.00005642    -0.00036908     0.00084507
N        -0.49164349     1.64045826     0.24617321     0.00053779     0.00008659    -0.00010493
H         0.09357698     2.46306033     0.06941091    -0.00077838    -0.00037303    -0.00019533
H        -0.28520125     0.84049679     0.81256905    -0.00066677     0.00105665     0.00024761
    14
  Step:    10            Position(A)                                  Velocity(au)
C        -5.95654554    -0.87939440    -0.07680241    -0.00046154    -0.00003436    -0.00016855
C        -4.65226934    -0.69765324     0.23176726     0.00029323     0.00014201     0.00006130
H        -6.43967069    -0.01004181    -0.53975625     0.00063673     0.00089227    -0.00032571
H        -6.65711238    -1.65708155     0.13886921    -0.00129737    -0.00122249    -0.00018367
H        -4.04248472    -1.45860934     0.66650602     0.00003614    -0.00015960     0.00051270
C        -3.97215271     0.51469631    -0.19081178    -0.00056190    -0.00034818     0.00007161
C        -2.60479742     0.63474171     0.15768037     0.00055683     0.00004890     0.00002560
H        -4.54599436     1.22714617    -0.75191250    -0.00005622     0.00011621    -0.00041735
H        -2.15952377    -0.22644299     0.65446625    -0.00042774     0.00022991     0.00027278
C        -1.86474781     1.76811796    -0.03437674    -0.00021181     0.00004866     0.00007749
H        -2.16318466     2.67105470    -0.48407059    -0.00018615    -0.00017317     0.00073868
N        -0.48590257     1.64153695     0.24495813     0.00050595     0.00010980    -0.00011861
H         0.08529657     2.45818034     0.06777436    -0.00069455    -0.00046867    -0.00011289
H        -0.29140074     0.85173894     0.81574851    -0.00045145     0.00096344     0.00036015
    14
  Step:    11            Position(A)                                  Velocity(au)
C        -5.96181657    -0.87961559    -0.07871374    -0.00050083    -0.00000861    -0.00017937
C        -4.64886854    -0.69594989     0.23236613     0.00032369     0.00016682     0.00004821
H        -6.43286259    -0.00053906    -0.54339144     0.00060462     0.00083068    -0.00033389
H        -6.67108441    -1.67169157     0.13718494    -0.00121771    -0.00139519    -0.00013839
H        -4.04170028    -1.46107755     0.67288089     0.00010000    -0.00027801     0.00064475
C        -3.97862984     0.51060757    -0.18998770    -0.00061838    -0.00039690     0.00007887
C        -2.59858044     0.63532074     0.15801105     0.00057502     0.00005706     0.00003380
H        -4.54659015     1.22916169    -0.75682522    -0.00004845     0.00023809    -0.00047116
H        -2.16389422    -0.22394748     0.65725808    -0.00035866     0.00021419     0.00024295
C        -1.86675462     1.76854170    -0.03346718    -0.00015211     0.00002772     0.00008955
H        -2.16598383     2.67037844    -0.47665494    -0.00033031     0.00006297     0.00060884
N        -0.48057476     1.64286039     0.24357833     0.00046274     0.00013016    -0.00013430
H         0.07838241     2.45280727     0.06694116    -0.00052873    -0.00045956    -0.00004974
H        -0.29507763     0.86157395     0.82044800    -0.00021097     0.00081222     0.00051635
    14
  Step:    12            Position(A)                                  Velocity(au)
C        -5.96750224    -0.87958273    -0.08072654    -0.00053715     0.00001208    -0.00018714
C        -4.64518804    -0.69400373     0.23282193     0.00034471     0.00018577     0.00003552
H        -6.42644354     0.00813092    -0.54706080     0.00056430     0.00074215    -0.00033299
H        -6.68375203    -1.68760410     0.13584173    -0.00106354    -0.00146429    -0.00012008
H        -4.04029694    -1.46469138     0.68061108     0.00014561    -0.00036384     0.00075732
C        -3.98568087     0.50601337    -0.18908646    -0.00066623    -0.00043991     0.00008549
C        -2.59221775     0.63598997     0.15841991     0.00058289     0.00006473     0.00003997
H        -4.54705419     1.23235488    -0.76222003    -0.00003104     0.00032826    -0.00050296
H        -2.16737022    -0.22175715     0.65978126    -0.00026538     0.00017509     0.00022345
C        -1.86807545     1.76872435    -0.03241759    -0.00008680     0.00000642     0.00010231
H        -2.17041082     2.67243233    -0.47075102    -0.00047776     0.00031006     0.00047017
N        -0.47577919     1.64438441     0.24201999     0.00040959     0.00014557    -0.00015040
H         0.07372950     2.44812659     0.06668619    -0.00028647    -0.00034614    -0.00000670
H        -0.29601603     0.86950780     0.82704468     0.00004322     0.00063241     0.00069452
    14
  Step:    13            Position(A)                                  Velocity(au)
C        -5.97356785    -0.87935140    -0.08280788    -0.00056998     0.00002787    -0.00019202
C        -4.64132745    -0.69188579     0.23314327     0.00035691     0.00019774     0.00002395
H        -6.42051753     0.01569691    -0.55067625     0.00051333     0.00063152    -0.00032526
H        -6.69435130    -1.70372569     0.13455792    -0.00084669    -0.00144010    -0.00012555
H        -4.03851482    -1.46903724     0.68944866     0.00016717    -0.00040869     0.00084512
C        -3.99320480     0.50098376    -0.18811751    -0.00070432    -0.00047593     0.00009105
C        -2.58582871     0.63673676     0.15888540     0.00057955     0.00007056     0.00004431
H        -4.54726923     1.23634311    -0.76782851    -0.00000282     0.00038162    -0.00050885
H        -2.16969997    -0.22011713     0.66214644    -0.00015104     0.00011584     0.00021308
C        -1.86865345     1.76868220    -0.03122886    -0.00001685    -0.00001164     0.00011425
H        -2.17643571     2.67716161    -0.46636917    -0.00061642     0.00053648     0.00033815
N        -0.47161412     1.64604511     0.24028814     0.00034889     0.00015484    -0.00016522
H         0.07211530     2.44523486     0.06679450     0.00001579    -0.00014539     0.00001912
H        -0.29413221     0.87540913     0.83564198     0.00029908     0.00045763     0.00086855
    14
  Step:    14            Position(A)                                  Velocity(au)
C        -5.97997170    -0.87897306    -0.08492727    -0.00059865     0.00003923    -0.00019424
C        -4.63737999    -0.68967771     0.23334595     0.00036078     0.00020190     0.00001410
H        -6.41521349     0.02194652    -0.55417659     0.00044964     0.00050451    -0.00031328
H        -6.70227491    -1.71910895     0.13309500    -0.00058236    -0.00133732    -0.00015061
H        -4.03663975    -1.47363231     0.69909968     0.00016211    -0.00040842     0.00090511
C        -4.00108911     0.49560153    -0.18709454    -0.00073166    -0.00050389     0.00009522
C        -2.57953901     0.63753370     0.15938932     0.00056472     0.00007327     0.00004721
H        -4.54711584     1.24070359    -0.77335218     0.00003554     0.00039593    -0.00048723
H        -2.17067460    -0.21922296     0.66444290    -0.00002022     0.00004212     0.00020921
C        -1.86844399     1.76846977    -0.02991806     0.00005654    -0.00002336     0.00012405
H        -2.18389622     2.68416887    -0.46335324    -0.00073506     0.00071407     0.00022639
N        -0.46814661     1.64777192     0.23840538     0.00028382     0.00015810    -0.00017740
H         0.07407495     2.44494595     0.06710458     0.00035117     0.00010931     0.00003423
H        -0.28947316     0.87951940     0.84604581     0.00054529     0.00031911     0.00101262
    14
  Step:    15            Position(A)                                  Velocity(au)
C        -5.98666448    -0.87849324    -0.08705716    -0.00062248     0.00004673    -0.00019407
C        -4.63343479    -0.68746880     0.23345164     0.00035659     0.00019768     0.00000642
H        -6.41068086     0.02673395    -0.55752982     0.00037158     0.00036739    -0.00029972
H        -6.70709159    -1.73298206     0.13126309    -0.00028674    -0.00117254    -0.00019077
H        -4.03496833    -1.47797216     0.70924977     0.00013081    -0.00036302     0.00093653
C        -4.00921125     0.48996019    -0.18603447    -0.00074744    -0.00052293     0.00009773
C        -2.57347433     0.63833975     0.15991823     0.00053869     0.00007173     0.00004913
H        -4.54649182     1.24500490    -0.77848763     0.00008173     0.00037177    -0.00043875
H        -2.17014242    -0.21919576     0.66672329     0.00012143    -0.00003853     0.00020797
C        -1.86741642     1.76817118    -0.02851494     0.00013208    -0.00002661     0.00013078
H        -2.19251648     2.69278320    -0.46141651    -0.00082472     0.00082268     0.00014442
N        -0.46540499     1.64950395     0.23640726     0.00021805     0.00015687    -0.00018601
H         0.07979776     2.44762625     0.06754325     0.00068579     0.00037342     0.00004730
H        -0.28220304     0.88239025     0.85779506     0.00077212     0.00024004     0.00110574
    14
  Step:    16            Position(A)                                  Velocity(au)
C        -5.99358957    -0.87795075    -0.08917295    -0.00064081     0.00005100    -0.00019178
C        -4.62957890    -0.68535301     0.23348635     0.00034443     0.00018477     0.00000125
H        -6.40708440     0.02998388    -0.56073346     0.00027803     0.00022661    -0.00028724
H        -6.70854784    -1.74476056     0.12892148     0.00002436    -0.00096290    -0.00024166
H        -4.03377806    -1.48157409     0.71958796     0.00007607    -0.00027617     0.00094061
C        -4.01744073     0.48416147    -0.18495653    -0.00075103    -0.00053239     0.00009842
C        -2.56775422     0.63910296     0.16046417     0.00050225     0.00006513     0.00005058
H        -4.54532787     1.24883670    -0.78295065     0.00013227     0.00031221    -0.00036609
H        -2.16801811    -0.22006598     0.66899265     0.00026769    -0.00011760     0.00020482
C        -1.86555450     1.76788772    -0.02705693     0.00020845    -0.00002044     0.00013399
H        -2.20193855     2.70216663    -0.46019370    -0.00087960     0.00085242     0.00009692
N        -0.46337627     1.65120382     0.23433596     0.00015522     0.00015360    -0.00019074
H         0.08907798     2.45311517     0.06813933     0.00098463     0.00060041     0.00006706
H        -0.27258147     0.88477069     0.87023607     0.00097202     0.00023260     0.00113464
    14
  Step:    17            Position(A)                                  Velocity(au)
C        -6.00068347    -0.87737746    -0.09125268    -0.00065302     0.00005270    -0.00018759
C        -4.62589976    -0.68342655     0.23347892     0.00032418     0.00016309    -0.00000123
H        -6.40459834     0.03169158    -0.56381364     0.00016841     0.00008847    -0.00027834
H        -6.70655874    -1.75404734     0.12597639     0.00033597    -0.00072549    -0.00029906
H        -4.03330407    -1.48401386     0.72982743     0.00000246    -0.00015443     0.00092030
C        -4.02564142     0.47831316    -0.18388143    -0.00074205    -0.00053185     0.00009718
C        -2.56248657     0.63976451     0.16102472     0.00045671     0.00005307     0.00005203
H        -4.54359811     1.25183504    -0.78649654     0.00018295     0.00022241    -0.00027358
H        -2.16428609    -0.22176859     0.67120410     0.00041231    -0.00018672     0.00019515
C        -1.86285622     1.76772398    -0.02558371     0.00028436    -0.00000513     0.00013367
H        -2.21175951     2.71143151    -0.45929619    -0.00089716     0.00080331     0.00008393
N        -0.46200926     1.65286429     0.23223449     0.00009844     0.00015096    -0.00019168
H         0.10133840     2.46076144     0.06901022     0.00121783     0.00075180     0.00009997
H        -0.26093822     0.88747882     0.88261744     0.00113974     0.00029792     0.00109459
    14
  Step:    18            Position(A)                                  Velocity(au)
C        -6.00787571    -0.87679781    -0.09327684    -0.00065846     0.00005256    -0.00018172
C        -4.62248682    -0.68178520     0.23345946     0.00029562     0.00013278    -0.00000096
H        -6.40340000     0.03191930    -0.56682265     0.00004276    -0.00004127    -0.00027523
H        -6.70119779    -1.76063197     0.12237888     0.00063399    -0.00047749    -0.00035894
H        -4.03372433    -1.48495252     0.73972119    -0.00008449    -0.00000638     0.00087972
C        -4.03367460     0.47252620    -0.18283044    -0.00072041    -0.00052116     0.00009403
C        -2.55776276     0.64026397     0.16160236     0.00040372     0.00003567     0.00005387
H        -4.54132538     1.25370238    -0.78893566     0.00022928     0.00010912    -0.00016675
H        -2.15899801    -0.22415085     0.67326189     0.00054947    -0.00023871     0.00017492
C        -1.85933360     1.76777541    -0.02413270     0.00035852     0.00001805     0.00013017
H        -2.22156554     2.71974057    -0.45835754    -0.00087758     0.00068313     0.00010204
N        -0.46122279     1.65450644     0.23014262     0.00004995     0.00015119    -0.00018923
H         0.11572038     2.46956232     0.07032636     0.00136553     0.00080426     0.00014887
H        -0.24764745     0.89128830     0.89418230     0.00127235     0.00042804     0.00098860
    14
  Step:    19            Position(A)                                  Velocity(au)
C        -6.01508859    -0.87622769    -0.09522823    -0.00065645     0.00005142    -0.00017440
C        -4.61943240    -0.68052182     0.23345788     0.00025850     0.00009427     0.00000194
H        -6.40366287     0.03078875    -0.56983489    -0.00009822    -0.00015769    -0.00027967
H        -6.69268903    -1.76449326     0.11812392     0.00090492    -0.00023646    -0.00041727
H        -4.03515248    -1.48415346     0.74907300    -0.00017876     0.00015811     0.00082390
C        -4.04140185     0.46691171    -0.18182441    -0.00068628    -0.00050049     0.00008905
C        -2.55365447     0.64054483     0.16220312     0.00034516     0.00001352     0.00005635
H        -4.53858218     1.25422229    -0.79014457     0.00026678    -0.00001977    -0.00005199
H        -2.15226538    -0.22699080     0.67503090     0.00067418    -0.00026841     0.00014120
C        -1.85501282     1.76811896    -0.02273590     0.00042965     0.00004715     0.00012409
H        -2.23095828     2.72637627    -0.45706384    -0.00082319     0.00050479     0.00014561
N        -0.46091656     1.65617185     0.22809463     0.00001102     0.00015572    -0.00018395
H         0.13121192     2.47835626     0.07226698     0.00141951     0.00075169     0.00021278
H        -0.23310316     0.89684306     0.90424502     0.00136900     0.00060875     0.00082561
    14
  Step:    20            Position(A)                                  Velocity(au)
C        -6.02223674    -0.87567279    -0.09709214    -0.00064627     0.00005034    -0.00016586
C        -4.61683168    -0.67972280     0.23350189     0.00021260     0.00004835     0.00000719
H        -6.40554875     0.02846958    -0.57294096    -0.00025313    -0.00025708    -0.00029279
H        -6.68140088    -1.76580487     0.11325039     0.00113582    -0.00002059    -0.00047000
H        -4.03763495    -1.48149363     0.75774563    -0.00027418     0.00032835     0.00075851
C        -4.04868827     0.46157696    -0.18088236    -0.00064012    -0.00047040     0.00008248
C        -2.55021181     0.64055976     0.16283506     0.00028304    -0.00001233     0.00005957
H        -4.53548903     1.25326986    -0.79007312     0.00029129    -0.00015558     0.00006381
H        -2.14424894    -0.23002279     0.67635084     0.00078251    -0.00027312     0.00009238
C        -1.84993426     1.76880687    -0.02141801     0.00049641     0.00007974     0.00011611
H        -2.23957442     2.73078386    -0.45517211    -0.00073772     0.00028396     0.00020787
N        -0.46098176     1.65791303     0.22611845    -0.00001798     0.00016515    -0.00017641