 Fermi distribution function

Calculation with static geometry


********************************************************************************
 iSCC Total electronic   Diff electronic      SCC error    
   10   -0.54122665E+01   -0.52224891E-12    0.20704914E-06
********************************************************************************

 Total charge:     1.00000000

 Atomic gross charges (e)
 Atom           Charge
    1       0.18880532
    2      -0.07526321
    3       0.18209337
    4       0.28187483
    5       0.27056918
    6       0.15192052

Nr. of electrons (up):     12.00000000
Atom populations (up)
 Atom       Population
    1       3.81119468
    2       5.07526321
    3       0.81790663
    4       0.71812517
    5       0.72943082
    6       0.84807948

l-shell populations (up)
 Atom Sh.   l       Population
    1   1   0       1.32099815
    1   2   1       2.49019654
    2   1   0       1.43040763
    2   2   1       3.64485559
    3   1   0       0.81790663
    4   1   0       0.71812517
    5   1   0       0.72943082
    6   1   0       0.84807948

Orbital populations (up)
 Atom Sh.   l   m       Population  Label
    1   1   0   0       1.32099815  s
    1   2   1  -1       0.58443532  p_y
    1   2   1   0       0.87792472  p_z
    1   2   1   1       1.02783649  p_x
    2   1   0   0       1.43040763  s
    2   2   1  -1       1.34966798  p_y
    2   2   1   0       1.09633510  p_z
    2   2   1   1       1.19885251  p_x
    3   1   0   0       0.81790663  s
    4   1   0   0       0.71812517  s
    5   1   0   0       0.72943082  s
    6   1   0   0       0.84807948  s

Fermi level:                        -0.4944705820 H          -13.4552 eV
Band energy:                        -8.9169735875 H         -242.6432 eV
TS:                                  0.0000000000 H            0.0000 eV
Band free energy (E-TS):            -8.9169735875 H         -242.6432 eV
Extrapolated E(0K):                 -8.9169735875 H         -242.6432 eV
Input / Output electrons (q):     12.0000000000     12.0000000000

Energy H0:                          -5.5451019713 H         -150.8899 eV
Energy SCC:                          0.1328354917 H            3.6146 eV
Total Electronic energy:            -5.4122664796 H         -147.2753 eV
Repulsive energy:                    0.1843962925 H            5.0177 eV
Total energy:                       -5.2278701871 H         -142.2576 eV
Extrapolated to 0:                  -5.2278701871 H         -142.2576 eV
Total Mermin free energy:           -5.2278701871 H         -142.2576 eV
Force related energy:               -5.2278701871 H         -142.2576 eV

SCC converged

Excitation Energy:                   0.1461124737 H            3.9759 eV

Total Forces
    1      0.011525411367     -0.006231716844      0.044417678994
    2      0.012092412927      0.010688239862     -0.056511308297
    3     -0.012356279041     -0.005288399027      0.003084271306
    4     -0.011905328528      0.004382583412      0.003610063281
    5      0.000066533297     -0.008635246602      0.006274061765
    6      0.000577249977      0.005084539199     -0.000874767048

Maximal derivative component:        0.565113E-01 au


