    14
  Step:     0            Position(A)                                  Velocity(au)
C        -6.00692579    -0.68412430    -0.20498403    -0.00013352     0.00010774    -0.00011077
C        -4.70253375    -0.76081156     0.20771576     0.00035045     0.00010012     0.00017943
H        -6.36053274     0.17739904    -0.84874390    -0.00011890     0.00014523     0.00005070
H        -6.66163162    -1.56142702    -0.00404588     0.00017148    -0.00105676     0.00088952
H        -4.34992036    -1.59118802     0.83240329    -0.00027290    -0.00059140    -0.00001946
C        -3.85395456     0.34956098    -0.07091092     0.00004816     0.00006898    -0.00014089
C        -2.54806968     0.49045031     0.32778442    -0.00018264    -0.00010814    -0.00013859
H        -4.40059265     1.16873595    -0.63960132     0.00037385    -0.00007843     0.00003913
H        -2.02012457    -0.23994838     1.00308964    -0.00112319     0.00075904    -0.00076726
C        -1.83143042     1.70387261    -0.02401846     0.00007052    -0.00001702     0.00016201
H        -2.39466132     2.51050814    -0.45306204    -0.00087297    -0.00054754     0.00075520
N        -0.57595374     1.81384990     0.13459394    -0.00005146    -0.00009533    -0.00012963
H        -0.13176431     2.73959248    -0.09674835    -0.00004620     0.00099287    -0.00042648
H         0.07436325     1.13618602     0.54285406     0.00078124    -0.00010572     0.00186177
    14
  Step:     1            Position(A)                                  Velocity(au)
C        -6.00858592    -0.68300885    -0.20629990    -0.00016768     0.00009364    -0.00012746
C        -4.69855737    -0.75964864     0.20975461     0.00037259     0.00011191     0.00019215
H        -6.36153442     0.17778365    -0.84717937    -0.00006827    -0.00007225     0.00023128
H        -6.65974064    -1.57194992     0.00542291     0.00018592    -0.00084279     0.00083148
H        -4.35292055    -1.59759105     0.83180539    -0.00027307    -0.00056936    -0.00009273
C        -3.85393844     0.35027093    -0.07260322    -0.00004477     0.00006017    -0.00016800
C        -2.54956397     0.48945855     0.32640121    -0.00009117    -0.00007060    -0.00011609
H        -4.39522886     1.16709070    -0.63848007     0.00059701    -0.00021372     0.00015791
H        -2.03320222    -0.23106337     0.99368486    -0.00124237     0.00083111    -0.00092269
C        -1.83135895     1.70335551    -0.02224041    -0.00005805    -0.00007818     0.00016346
H        -2.40429656     2.50509837    -0.44521434    -0.00088414    -0.00043431     0.00067546
N        -0.57581836     1.81306424     0.13321677     0.00007975    -0.00004880    -0.00012104
H        -0.13280323     2.74872734    -0.10093651    -0.00015498     0.00064585    -0.00033037
H         0.08214380     1.13505065     0.56302713     0.00060157    -0.00005991     0.00179817
    14
  Step:     2            Position(A)                                  Velocity(au)
C        -6.01059409    -0.68207579    -0.20777235    -0.00019645     0.00007447    -0.00013908
C        -4.69438258    -0.75836342     0.21191948     0.00038656     0.00012263     0.00020225
H        -6.36202628     0.17581841    -0.84368412    -0.00002842    -0.00027728     0.00039841
H        -6.65756428    -1.57986475     0.01414434     0.00021893    -0.00058727     0.00075462
H        -4.35589421    -1.60364397     0.83037455    -0.00026709    -0.00052888    -0.00017017
C        -3.85493389     0.35087733    -0.07458633    -0.00013591     0.00004951    -0.00019346
C        -2.55006409     0.48890589     0.32524484    -0.00000206    -0.00002751    -0.00009787
H        -4.38753199     1.16406037    -0.63614665     0.00079452    -0.00032503     0.00025595
H        -2.04730373    -0.22176624     0.98290413    -0.00130394     0.00082683    -0.00101115
C        -1.83270046     1.70216234    -0.02044241    -0.00018471    -0.00013971     0.00016577
H        -2.41400356     2.50100684    -0.43828496    -0.00088439    -0.00031132     0.00058938
N        -0.57420911     1.81278236     0.13194604     0.00021391    -0.00000408    -0.00011047
H        -0.13515489     2.75372162    -0.10397575    -0.00027677     0.00025503    -0.00022120
H         0.08752370     1.13487533     0.58219249     0.00035438     0.00005855     0.00168290
    14
  Step:     3            Position(A)                                  Velocity(au)
C        -6.01288361    -0.68137978    -0.20934260    -0.00021866     0.00005042    -0.00014514
C        -4.69010056    -0.75696582     0.21417921     0.00039235     0.00013273     0.00020931
H        -6.36215606     0.17171761    -0.83846333    -0.00000464    -0.00045574     0.00054171
H        -6.65495123    -1.58479750     0.02193170     0.00026107    -0.00030526     0.00066274
H        -4.35876363    -1.60916125     0.82808252    -0.00025311    -0.00047322    -0.00024851
C        -3.85691178     0.35135401    -0.07683548    -0.00022380     0.00003578    -0.00021606
C        -2.54960906     0.48885675     0.32426002     0.00008263     0.00002173    -0.00008529
H        -4.37784721     1.15998000    -0.63288075     0.00095480    -0.00039907     0.00032371
H        -2.06172837    -0.21297488     0.97156392    -0.00129677     0.00073303    -0.00101930
C        -1.83539981     1.70029911    -0.01861384    -0.00030343    -0.00019985     0.00016913
H        -2.42364433     2.49828769    -0.43232052    -0.00087038    -0.00018815     0.00050090
N        -0.57113870     1.81297505     0.13080001     0.00034293     0.00003720    -0.00009859
H        -0.13885805     2.75430667    -0.10577571    -0.00039312    -0.00014134    -0.00010854
H         0.08989655     1.13633164     0.59984387     0.00006491     0.00022643     0.00152818
    14
  Step:     4            Position(A)                                  Velocity(au)
C        -6.01537767    -0.68097281    -0.21094754    -0.00023372     0.00002180    -0.00014539
C        -4.68579907    -0.75545964     0.21649851     0.00039071     0.00014293     0.00021301
H        -6.36212769     0.16584825    -0.83183312    -0.00000177    -0.00059415     0.00065153
H        -6.65185289    -1.58654285     0.02864304     0.00030310    -0.00001232     0.00056016
H        -4.36143151    -1.61399664     0.82493800    -0.00022947    -0.00040618    -0.00032436
C        -3.85982985     0.35166012    -0.07931307    -0.00030766     0.00001751    -0.00023470
C        -2.54825636     0.48938138     0.32337906     0.00016183     0.00007744    -0.00007905
H        -4.36664390     1.15532985    -0.62906484     0.00106712    -0.00042303     0.00035223
H        -2.07567301    -0.20572971     0.96060503    -0.00121483     0.00054267    -0.00093997
C        -1.83933864     1.69779032    -0.01674234    -0.00040898    -0.00025707     0.00017366
H        -2.43304485     2.49689075    -0.42732679    -0.00083914    -0.00007394     0.00041334
N        -0.56670695     1.81359609     0.12978930     0.00045930     0.00007349    -0.00008605
H        -0.14375525     2.75062947    -0.10635019    -0.00048652    -0.00050523    -0.00000196
H         0.08894375     1.13982881     0.61562438    -0.00024060     0.00041986     0.00134849
    14
  Step:     5            Position(A)                                  Velocity(au)
C        -6.01799669    -0.68090284    -0.21252318    -0.00024176    -0.00001093    -0.00013994
C        -4.68155299    -0.75383891     0.21883913     0.00038324     0.00015426     0.00021315
H        -6.36219470     0.15871942    -0.82420984    -0.00002384    -0.00068045     0.00071956
H        -6.64832027    -1.58506709     0.03418633     0.00033607     0.00027573     0.00045167
H        -4.36378363    -1.61804720     0.82098663    -0.00019475    -0.00033179    -0.00039440
C        -3.86364251     0.35173699    -0.08196997    -0.00038755    -0.00000695    -0.00024841
C        -2.54606862     0.49055094     0.32253058     0.00023565     0.00013918    -0.00007894
H        -4.35450190     1.15072550    -0.62517500     0.00112277    -0.00038602     0.00033403
H        -2.08830507    -0.20110286     0.95100018    -0.00106024     0.00025943    -0.00077679
C        -1.84434695     1.69467518    -0.01481470    -0.00049739    -0.00031018     0.00017936
H        -2.44200213     2.49667008    -0.42327798    -0.00078855     0.00002323     0.00032910
N        -0.56109066     1.81458269     0.12891750     0.00055674     0.00010329    -0.00007344
H        -0.14950168     2.74325387    -0.10581855    -0.00054032    -0.00079846     0.00008878
H         0.08463291     1.14551683     0.62934474    -0.00053654     0.00061554     0.00115978
    14
  Step:     6            Position(A)                                  Velocity(au)
C        -6.02066670    -0.68121191    -0.21400906    -0.00024353    -0.00004707    -0.00012932
C        -4.67741494    -0.75208493     0.22116168     0.00037206     0.00016777     0.00020977
H        -6.36264928     0.15096201    -0.81609138    -0.00007352    -0.00070547     0.00073992
H        -6.64450072    -1.58051075     0.03852426     0.00035120     0.00054285     0.00034246
H        -4.36569204    -1.62125517     0.81630970    -0.00014792    -0.00025422    -0.00045557
C        -3.86830822     0.35150804    -0.08474753    -0.00046349    -0.00003881    -0.00025644
C        -2.54310111     0.49242624     0.32165206     0.00030465     0.00020504    -0.00008355
H        -4.34208124     1.14688487    -0.62175726     0.00111671    -0.00028168     0.00026466
H        -2.09886780    -0.20005416     0.94361116    -0.00084528    -0.00009834    -0.00054749
C        -1.85022004     1.69100443    -0.01281854    -0.00056633    -0.00035802     0.00018600
H        -2.45029585     2.49739902    -0.42012712    -0.00071775     0.00009691     0.00024982
N        -0.55452721     1.81585577     0.12818274     0.00063070     0.00012522    -0.00006120
H        -0.15557578     2.73316163    -0.10440800    -0.00053955    -0.00098419     0.00015403
H         0.07720593     1.15329486     0.64099675    -0.00079870     0.00079105     0.00097917
    14
  Step:     7            Position(A)                                  Velocity(au)
C        -6.02332434    -0.68193266    -0.21535236    -0.00023980    -0.00008557    -0.00011431
C        -4.67341343    -0.75016853     0.22342819     0.00035866     0.00018387     0.00020309
H        -6.36380315     0.14328588    -0.80802261    -0.00015133    -0.00066480     0.00071050
H        -6.64063719    -1.57319128     0.04167835     0.00033987     0.00077283     0.00023805
H        -4.36701967    -1.62360867     0.81102009    -0.00008831    -0.00017762    -0.00050521
C        -3.87378216     0.35088800    -0.08758009    -0.00053390    -0.00007777    -0.00025833
C        -2.53940392     0.49503663     0.32070272     0.00036823     0.00027084    -0.00009051
H        -4.33007164     1.14456327    -0.61938504     0.00104938    -0.00011117     0.00014455
H        -2.10679715    -0.20325433     0.93902286    -0.00059163    -0.00049717    -0.00028334
C        -1.85673645     1.68684291    -0.01074563    -0.00061486    -0.00039878     0.00019297
H        -2.45770432     2.49879017    -0.41781279    -0.00062743     0.00014264     0.00017688
N        -0.54729287     1.81732207     0.12757861     0.00067873     0.00013822    -0.00004980
H        -0.16130530     2.72172282    -0.10244891    -0.00047277    -0.00103097     0.00018533
H         0.06715974     1.16282252     0.65076606    -0.00100513     0.00092535     0.00082479
    14
  Step:     8            Position(A)                                  Velocity(au)
C        -6.02591268    -0.68308393    -0.21650974    -0.00023068    -0.00012489    -0.00009578
C        -4.66956866    -0.74806246     0.22560465     0.00034271     0.00020166     0.00019353
H        -6.36595988     0.13641821    -0.80054784    -0.00025491    -0.00056067     0.00063409
H        -6.63706544    -1.56360359     0.04373205     0.00029383     0.00094980     0.00014415
H        -4.36762405    -1.62514096     0.80525717    -0.00001567    -0.00010586    -0.00054125
C        -3.87998820     0.34980674    -0.09039905    -0.00059495    -0.00012124    -0.00025418
C        -2.53504536     0.49835129     0.31967202     0.00042380     0.00033017    -0.00009692
H        -4.31912397     1.14445290    -0.61859488     0.00092768     0.00011431    -0.00001925
H        -2.11181089    -0.21093067     0.93741250    -0.00032635    -0.00089304    -0.00002357
C        -1.86367119     1.68228045    -0.00859700    -0.00064287    -0.00042975     0.00019927
H        -2.46402201     2.50051965    -0.41625752    -0.00051981     0.00015833     0.00011179
N        -0.53967878     1.81887963     0.12709336     0.00070037     0.00014201    -0.00003984
H        -0.16591857     2.71060709    -0.10035361    -0.00033491    -0.00091983     0.00017739
H         0.05521681     1.17353875     0.65904054    -0.00113744     0.00099989     0.00071475
    14
  Step:     9            Position(A)                                  Velocity(au)
C        -6.02837083    -0.68466487    -0.21744777    -0.00021565    -0.00016296    -0.00007478
C        -4.66591610    -0.74575674     0.22766201     0.00032239     0.00021932     0.00018152
H        -6.36937977     0.13102009    -0.79415062    -0.00037859    -0.00040332     0.00051914
H        -6.63420903    -1.55241269     0.04483200     0.00020562     0.00105920     0.00006645
H        -4.36736254    -1.62592463     0.79917931     0.00006971    -0.00004200    -0.00056233
C        -3.88679786     0.34823573    -0.09314068    -0.00064241    -0.00016485    -0.00024488
C        -2.53013244     0.50225970     0.31858246     0.00046809     0.00037596    -0.00009988
H        -4.30977683     1.14706395    -0.61980616     0.00076458     0.00037313    -0.00021249
H        -2.11393672    -0.22279118     0.93850718    -0.00007566    -0.00124031     0.00019350
C        -1.87080048     1.67744132    -0.00638628    -0.00065063    -0.00044794     0.00020378
H        -2.46907606     2.50225389    -0.41536724    -0.00039843     0.00014426     0.00005560
N        -0.53197086     1.82042890     0.12670709     0.00069688     0.00013758    -0.00003220
H        -0.16863210     2.70159988    -0.09856815    -0.00013015    -0.00065266     0.00013044
H         0.04227612     1.18469693     0.66640264    -0.00118278     0.00100036     0.00066525
    14
  Step:    10            Position(A)                                  Velocity(au)
C        -6.03063045    -0.68664902    -0.21814563    -0.00019434    -0.00019732    -0.00005262
C        -4.66251586    -0.74326440     0.22957582     0.00029571     0.00023484     0.00016750
H        -6.37424218     0.12759476    -0.78919077    -0.00051349    -0.00021071     0.00037924
H        -6.63256706    -1.54043155     0.04518582     0.00006972     0.00108989     0.00000997
H        -4.36609890    -1.62605981     0.79295519     0.00016692     0.00001213    -0.00056795
C        -3.89404211     0.34620033    -0.09575633    -0.00067378    -0.00020371    -0.00023219
C        -2.52480500     0.50657612     0.31748706     0.00049886     0.00040233    -0.00009697
H        -4.30239722     1.15261574    -0.62324341     0.00057712     0.00063557    -0.00041513
H        -2.11346615    -0.23806482     0.94164560     0.00014081    -0.00150171     0.00033874
C        -1.87790503     1.67248093    -0.00413898    -0.00063876    -0.00045100     0.00020555
H        -2.47273854     2.50367558    -0.41504113    -0.00026781     0.00010293     0.00000828
N        -0.52443320     1.82188939     0.12638884     0.00067101     0.00012744    -0.00002792
H        -0.16876587     2.69632893    -0.09750002     0.00012636    -0.00025849     0.00005177
H         0.02934127     1.19542346     0.67359418    -0.00113642     0.00091973     0.00068719
    14
  Step:    11            Position(A)                                  Velocity(au)
C        -6.03262233    -0.68898171    -0.21859901    -0.00016710    -0.00022553    -0.00003090
C        -4.65944687    -0.74061909     0.23132639     0.00026135     0.00024649     0.00015193
H        -6.38061336     0.12641036    -0.78585397    -0.00064841    -0.00000629     0.00023149
H        -6.63268372    -1.52856932     0.04505002    -0.00011574     0.00103669    -0.00002190
H        -4.36371084    -1.62565929     0.78675423     0.00027433     0.00005604    -0.00055849
C        -3.90153801     0.34377922    -0.09822023    -0.00068858    -0.00023324    -0.00021828
C        -2.51921889     0.51106146     0.31646109     0.00051512     0.00040557    -0.00008673
H        -4.29715115     1.16096824    -0.62888799     0.00038318     0.00086881    -0.00060499
H        -2.11085619    -0.25564390     0.94591767     0.00031293    -0.00165508     0.00039701
C        -1.88477449     1.66757483    -0.00188944    -0.00060829    -0.00043758     0.00020392
H        -2.47493492     2.50450568    -0.41518606    -0.00013302     0.00003868    -0.00003137
N        -0.51729113     1.82321681     0.12609629     0.00062707     0.00011537    -0.00002785
H        -0.16586771     2.69594492    -0.09743553     0.00040951     0.00020710    -0.00004446
H         0.01741470     1.20481778     0.68143618    -0.00100432     0.00076178     0.00078219
    14
  Step:    12            Position(A)                                  Velocity(au)
C        -6.03428600    -0.69158298    -0.21882170    -0.00013514    -0.00024573    -0.00001114
C        -4.65679839    -0.73787194     0.23289967     0.00021867     0.00025280     0.00013538
H        -6.38842742     0.12745708    -0.78412645    -0.00077131     0.00018483     0.00009368
H        -6.63509905    -1.51775204     0.04470677    -0.00034702     0.00090316    -0.00002846
H        -4.36009745    -1.62483390     0.78073717     0.00038966     0.00009052    -0.00053514
C        -3.90910616     0.34109779    -0.10053168    -0.00068750    -0.00024969    -0.00020531
C        -2.51353573     0.51544871     0.31558971     0.00051661     0.00038418    -0.00006878
H        -4.29401435     1.17162270    -0.63647864     0.00019813     0.00104339    -0.00076209
H        -2.10662020    -0.27427294     0.95033102     0.00043934    -0.00169468     0.00036717
C        -1.89121263     1.66290807     0.00032208    -0.00056067    -0.00040725     0.00019847
H        -2.47564856     2.50452178    -0.41572747     0.00000059    -0.00004266    -0.00006538
N        -0.51071489     1.82441333     0.12577967     0.00057053     0.00010548    -0.00003227
H        -0.15980702     2.70085968    -0.09847261     0.00068857     0.00067194    -0.00013987
H         0.00736988     1.21208896     0.69070614    -0.00080421     0.00054355     0.00093934
    14
  Step:    13            Position(A)                                  Velocity(au)
C        -6.03557874    -0.69435744    -0.21884274    -0.00010042    -0.00025716     0.00000555
C        -4.65466313    -0.73508862     0.23428804     0.00016762     0.00025259     0.00011843
H        -6.39748721     0.13045382    -0.78380445    -0.00087113     0.00034028    -0.00001868
H        -6.64027535    -1.50881096     0.04442743    -0.00061320     0.00070338    -0.00001259
H        -4.35518620    -1.62367910     0.77504711     0.00051006     0.00011748    -0.00049984
C        -3.91657838     0.33831675    -0.10271189    -0.00067168    -0.00025053    -0.00019499
C        -2.50791700     0.51946622     0.31495631     0.00050359     0.00033863    -0.00004369
H        -4.29281674     1.18379447    -0.64556015     0.00003262     0.00113854    -0.00087220
H        -2.10124484    -0.29271825     0.95395030     0.00052457    -0.00162783     0.00025841
C        -1.89704033     1.65866544     0.00245248    -0.00049758    -0.00036048     0.00018910
H        -2.47492193     2.50357234    -0.41661637     0.00012770    -0.00013416    -0.00009627
N        -0.50480960     1.82552450     0.12539041     0.00050741     0.00010101    -0.00004055
H        -0.15080387     2.71064488    -0.10049545     0.00093368     0.00106408    -0.00021623
H        -0.00017890     1.21670894     0.70198599    -0.00056402     0.00029462     0.00113444
    14
  Step:    14            Position(A)                                  Velocity(au)
C        -6.03648277    -0.69720880    -0.21870020    -0.00006543    -0.00026044     0.00001870
C        -4.65313149    -0.73234599     0.23549052     0.00010864     0.00024504     0.00010167
H        -6.40748512     0.13490133    -0.78453514    -0.00093934     0.00044383    -0.00009465
H        -6.64851406    -1.50236431     0.04443131    -0.00089609     0.00046135     0.00001925
H        -4.34893889    -1.62226390     0.76980224     0.00063216     0.00013969    -0.00045511
C        -3.92380040     0.33561697    -0.10479747    -0.00064244    -0.00023465    -0.00018837
C        -2.50251874     0.52285681     0.31463395     0.00047685     0.00027094    -0.00001262
H        -4.29330068     1.19653053    -0.65555979    -0.00010786     0.00114480    -0.00092836
H        -2.09514423    -0.30988485     0.95598420     0.00057596    -0.00147007     0.00008565
C        -1.90209807     1.65502187     0.00445897    -0.00042087    -0.00029864     0.00017599
H        -2.47285497     2.50158681    -0.41783352     0.00024323    -0.00022814    -0.00012687
N        -0.49961430     1.82662322     0.12489255     0.00044332     0.00010346    -0.00005109
H        -0.13938091     2.72413840    -0.10320306     0.00112191     0.00132842    -0.00025978
H        -0.00496908     1.21853444     0.71552409    -0.00031695     0.00005227     0.00133350
    14
  Step:    15            Position(A)                                  Velocity(au)
C        -6.03701006    -0.70005516    -0.21843358    -0.00003294    -0.00025743     0.00002848
C        -4.65228645    -0.72972792     0.23651236     0.00004263     0.00022974     0.00008563
H        -6.41803699     0.14016340    -0.78587506    -0.00097074     0.00048705    -0.00012879
H        -6.65987908    -1.49871802     0.04484852    -0.00117194     0.00020771     0.00005797
H        -4.34135646    -1.62062307     0.76509068     0.00075224     0.00016045    -0.00040381
C        -3.93063301     0.33318325    -0.10683274    -0.00060123    -0.00020238    -0.00018582
C        -2.49748504     0.52539349     0.31468012     0.00043777     0.00018443     0.00002285
H        -4.29517635     1.20883919    -0.66586983    -0.00022213     0.00106348    -0.00093041
H        -2.08864467    -0.32487881     0.95582407     0.00060138    -0.00124075    -0.00013418
C        -1.90624765     1.65213210     0.00630257    -0.00033259    -0.00022403     0.00015964
H        -2.46960089     2.49858133    -0.41939181     0.00034261    -0.00031663    -0.00016014
N        -0.49511121     1.82778779     0.12427261     0.00038272     0.00011243    -0.00006165
H        -0.12626003     2.73970665    -0.10617864     0.00124055     0.00143625    -0.00026370
H        -0.00711288     1.21785235     0.73115886    -0.00009481    -0.00014651     0.00149974
    14
  Step:    16            Position(A)                                  Velocity(au)
C        -6.03720340    -0.70284060    -0.21807707    -0.00000564    -0.00025070     0.00003556
C        -4.65219887    -0.72731999     0.23736386    -0.00002910     0.00020681     0.00007068
H        -6.42872193     0.14555639    -0.78735258    -0.00096365     0.00046909    -0.00012091
H        -6.67415256    -1.49782016     0.04569955    -0.00141525    -0.00002597     0.00009372
H        -4.33248218    -1.61875372     0.76096812     0.00086637     0.00018313    -0.00034889
C        -3.93695341     0.33118948    -0.10886267    -0.00054962    -0.00015526    -0.00018716
C        -2.49294174     0.52689160     0.31513388     0.00038826     0.00008342     0.00006098
H        -4.29816030     1.21979608    -0.67591419    -0.00031180     0.00090407    -0.00088330
H        -2.08198787    -0.33702863     0.95304880     0.00060809    -0.00096019    -0.00038443
C        -1.90937409     1.65012077     0.00795144    -0.00023493    -0.00013981     0.00014085
H        -2.46535975     2.49465991    -0.42133679     0.00042194    -0.00039179    -0.00019898
N        -0.49124153     1.82908285     0.12354379     0.00032853     0.00012623    -0.00006992
H        -0.11224159     2.75555919    -0.10897191     0.00128713     0.00138538    -0.00022806
H        -0.00704325     1.21532916     0.74833387     0.00007814    -0.00027289     0.00160169
    14
  Step:    17            Position(A)                                  Velocity(au)
C        -6.03713335    -0.70553971    -0.21765561     0.00001428    -0.00024292     0.00004083
C        -4.65292316    -0.72520365     0.23805870    -0.00010492     0.00017688     0.00005705
H        -6.43911871     0.15042575    -0.78852013    -0.00091935     0.00039512    -0.00007481
H        -6.69084045    -1.49928615     0.04689888    -0.00160332    -0.00021329     0.00011794
H        -4.32240290    -1.61661670     0.75745810     0.00097059     0.00021079    -0.00029314
C        -3.94265709     0.32978667    -0.11092722    -0.00048941    -0.00009577    -0.00019176
C        -2.48899106     0.52721845     0.31601422     0.00033066    -0.00002701     0.00009989
H        -4.30199766     1.22861741    -0.68519374    -0.00037982     0.00068113    -0.00079515
H        -2.07534143    -0.34588487     0.94741389     0.00060251    -0.00064850    -0.00064954
C        -1.91138719     1.64907358     0.00938392    -0.00013019    -0.00004981     0.00012064
H        -2.46037018     2.49001021    -0.42374490     0.00047821    -0.00044647    -0.00024605
N        -0.48792403     1.83054937     0.12274305     0.00028199     0.00014264    -0.00007408
H        -0.09810167     2.77001456    -0.11116797     0.00126711     0.00119379    -0.00015812
H        -0.00540345     1.21188229     0.76619883     0.00018855    -0.00031126     0.00161925
    14
  Step:    18            Position(A)                                  Velocity(au)
C        -6.03689091    -0.70815487    -0.21718393     0.00002537    -0.00023632     0.00004516
C        -4.65449412    -0.72345035     0.23861203    -0.00018290     0.00014112     0.00004479
H        -6.44883455     0.15420042    -0.78898916    -0.00084142     0.00027436     0.00000304
H        -6.70922835    -1.50248628     0.04827977    -0.00171998    -0.00033714     0.00012490
H        -4.31124865    -1.61414220     0.75455523     0.00106106     0.00024580    -0.00023900
C        -3.94766011     0.32909434    -0.11305786    -0.00042254    -0.00002706    -0.00019873
C        -2.48570784     0.52630062     0.31731909     0.00026753    -0.00014124     0.00013761
H        -4.30646953     1.23469717    -0.69330959    -0.00042952     0.00041168    -0.00067558
H        -2.06880683    -0.35121575     0.93883890     0.00059050    -0.00032551    -0.00091493
C        -1.91222235     1.64903106     0.01059070    -0.00002077     0.00004169     0.00010019
H        -2.45489797     2.48489261    -0.42671957     0.00050959    -0.00047487    -0.00030342
N        -0.48507250     1.83220337     0.12192323     0.00024299     0.00015956    -0.00007311
H        -0.08452118     2.78167554    -0.11243110     0.00119089     0.00089119    -0.00006199
H        -0.00291832     1.20851965     0.78375802     0.00023397    -0.00025988     0.00154581
    14
  Step:    19            Position(A)                                  Velocity(au)
C        -6.03657834    -0.71070958    -0.21666769     0.00002703    -0.00023244     0.00004929
C        -4.65692434    -0.72211631     0.23903858    -0.00026095     0.00010112     0.00003377
H        -6.45752639     0.15642789    -0.78845362    -0.00073498     0.00011837     0.00010468
H        -6.72846821    -1.50666175     0.04963126    -0.00175736    -0.00039104     0.00011226
H        -4.29919024    -1.61123929     0.75222962     0.00113424     0.00028959    -0.00018843
C        -3.95190098     0.32919467    -0.11527490    -0.00035112     0.00004730    -0.00020698
C        -2.48313833     0.52412853     0.31902462     0.00020141    -0.00025337     0.00017214
H        -4.31139418     1.23762377    -0.69997327    -0.00046425     0.00011367    -0.00053483
H        -2.06242319    -0.35300596     0.92739804     0.00057789    -0.00001127    -0.00116666
C        -1.91184147     1.64998569     0.01157573     0.00009096     0.00013039     0.00008068
H        -2.44922200     2.47962159    -0.43038286     0.00051567    -0.00047326    -0.00037227
N        -0.48260819     1.83404010     0.12114356     0.00021047     0.00017535    -0.00006682
H        -0.07204865     2.78951103    -0.11252418     0.00107129     0.00051214     0.00005110
H        -0.00028488     1.20619696     0.80001644     0.00022041    -0.00012822     0.00138672
    14
  Step:    20            Position(A)                                  Velocity(au)
C        -6.03629956    -0.71323994    -0.21610571     0.00001948    -0.00023213     0.00005374
C        -4.66020301    -0.72123825     0.23935081    -0.00033696     0.00005875     0.00002373
H        -6.46491371     0.15678991    -0.78669910    -0.00060615    -0.00006027     0.00022157
H        -6.74767394    -1.51104108     0.05073578    -0.00171564    -0.00037782     0.00008074
H        -4.28643506    -1.60780696     0.75043291     0.00118704     0.00034252    -0.00014284
C        -3.95534157     0.33012903    -0.11758588    -0.00027729     0.00012351    -0.00021529
C        -2.48130169     0.52075762     0.32108502     0.00013460    -0.00035755     0.00020152
H        -4.31662594     1.23718386    -0.70501003    -0.00048729    -0.00019486    -0.00038334
H        -2.05616448    -0.35146226     0.91331593     0.00057104     0.00027340    -0.00139103
C        -1.91023247     1.65188366     0.01235582     0.00020264     0.00021232     0.00006321
H        -2.44361663     2.47453910    -0.43486364     0.00049782    -0.00044065    -0.00045248
N        -0.48046801     1.83603947     0.12046149     0.00018283     0.00018880    -0.00005560