     6
  Step:     0            Position(A)                                  Velocity(au)
C        -0.03897296     0.02567369     0.00912648     0.00008983    -0.00010742    -0.00020813
N        -0.03747699    -0.06527098     1.30971859    -0.00018869     0.00009423     0.00013113
H         0.91311809    -0.03025655    -0.55303674    -0.00091565     0.00054542     0.00050583
H         0.83881160    -0.09972919     1.85321537     0.00189121    -0.00055196     0.00088449
H        -0.98981233     0.03428161     1.79107325     0.00072330    -0.00030597    -0.00096318
H        -0.98985773     0.02702565    -0.50827289    -0.00014726     0.00028311     0.00023077
     6
  Step:     1            Position(A)                                  Velocity(au)
C        -0.03846732     0.02509814     0.00791591     0.00009452    -0.00010305    -0.00023305
N        -0.03853471    -0.06476451     1.31052728    -0.00019562     0.00009084     0.00016418
H         0.90817561    -0.02727871    -0.55044644    -0.00088214     0.00054288     0.00043502
H         0.84909194    -0.10273016     1.85816833     0.00184378    -0.00054419     0.00091157
H        -0.98542935     0.03260286     1.78577268     0.00086681    -0.00030639    -0.00096594
H        -0.99090581     0.02854789    -0.50732796    -0.00023654     0.00027344     0.00011492
     6
  Step:     2            Position(A)                                  Velocity(au)
C        -0.03793845     0.02454583     0.00657587     0.00009802    -0.00009872    -0.00025483
N        -0.03961789    -0.06427685     1.31151546    -0.00019759     0.00008716     0.00019602
H         0.90346367    -0.02431510    -0.54827568    -0.00082972     0.00053911     0.00035182
H         0.85899063    -0.10568495     1.86319189     0.00175015    -0.00053388     0.00090972
H        -0.98032570     0.03092832     1.78050170     0.00098260    -0.00030362    -0.00094943
H        -0.99244651     0.03001832    -0.50701518    -0.00032543     0.00026359     0.00000047
     6
  Step:     3            Position(A)                                  Velocity(au)
C        -0.03739335     0.02401655     0.00512397     0.00010017    -0.00009446    -0.00027327
N        -0.04069952    -0.06380959     1.31267495    -0.00019470     0.00008320     0.00022597
H         0.89908504    -0.02137206    -0.54659177    -0.00075924     0.00053431     0.00025701
H         0.86826698    -0.10857948     1.86813537     0.00161572    -0.00052109     0.00088207
H        -0.97466379     0.02927638     1.77537049     0.00106658    -0.00029738    -0.00091224
H        -0.99447128     0.03143578    -0.50732284    -0.00041125     0.00025354    -0.00011067
     6
  Step:     4            Position(A)                                  Velocity(au)
C        -0.03683976     0.02350983     0.00357872     0.00010089    -0.00009032    -0.00028831
N        -0.04175328    -0.06336429     1.31399386    -0.00018714     0.00007900     0.00025343
H         0.89513647    -0.01845485    -0.54545680    -0.00067227     0.00052876     0.00015179
H         0.87671153    -0.11140010     1.87286629     0.00144666    -0.00050599     0.00083226
H        -0.96862772     0.02766668     1.77049640     0.00111545    -0.00028755    -0.00085350
H        -0.99695698     0.03279911    -0.50822902    -0.00049150     0.00024334    -0.00021677
     6
  Step:     5            Position(A)                                  Velocity(au)
C        -0.03628579     0.02302495     0.00195881     0.00010013    -0.00008637    -0.00029999
N        -0.04275403    -0.06294233     1.31545721    -0.00017521     0.00007458     0.00027794
H         0.89170461    -0.01556719    -0.54492533    -0.00057099     0.00052277     0.00003770
H         0.88414899    -0.11413440     1.87727217     0.00124943    -0.00048890     0.00076407
H        -0.96241792     0.02611950     1.76600047     0.00112706    -0.00027411    -0.00077296
H        -0.99986710     0.03410729    -0.50970258    -0.00056398     0.00023303    -0.00031635
     6
  Step:     6            Position(A)                                  Velocity(au)
C        -0.03573960     0.02256090     0.00028258     0.00009794    -0.00008263    -0.00030847
N        -0.04367835    -0.06254486     1.31704767    -0.00015925     0.00007000     0.00029917
H         0.88886277    -0.01271098    -0.54504262    -0.00045811     0.00051673    -0.00008348
H         0.89043944    -0.11677184     1.88126139     0.00103034    -0.00047021     0.00068129
H        -0.95624433     0.02465496     1.76200363     0.00110047    -0.00025714    -0.00067103
H        -1.00315364     0.03535948    -0.51170489    -0.00062689     0.00022264    -0.00040830
     6
  Step:     7            Position(A)                                  Velocity(au)
C        -0.03520898     0.02211644    -0.00143265     0.00009442    -0.00007917    -0.00031398
N        -0.04450487    -0.06217277     1.31874638    -0.00013968     0.00006530     0.00031694
H         0.88666803    -0.00988610    -0.54584318    -0.00033670     0.00051099    -0.00020976
H         0.89547694    -0.11930409     1.88476255     0.00079528    -0.00045034     0.00058748
H        -0.95031895     0.02329239     1.75862290     0.00103616    -0.00023687    -0.00054878
H        -1.00675939     0.03655507    -0.51419161    -0.00067884     0.00021221    -0.00049184
     6
  Step:     8            Position(A)                                  Velocity(au)
C        -0.03470108     0.02169008    -0.00317093     0.00008970    -0.00007601    -0.00031679
N        -0.04521473    -0.06182660     1.32053377    -0.00011698     0.00006055     0.00033120
H         0.88515930    -0.00709049    -0.54734982    -0.00021012     0.00050589    -0.00033903
H         0.89918688    -0.12172519     1.88772317     0.00054953    -0.00042969     0.00048586
H        -0.94484744     0.02204960     1.75596746     0.00093607    -0.00021361    -0.00040794
H        -1.01062036     0.03769364    -0.51711473    -0.00071884     0.00020177    -0.00056651
     6
  Step:     9            Position(A)                                  Velocity(au)
C        -0.03422210     0.02128019    -0.00491794     0.00008397    -0.00007317    -0.00031720
N        -0.04579189    -0.06150662     1.32239027    -0.00009168     0.00005579     0.00034201
H         0.88435625    -0.00432035    -0.54957320    -0.00008181     0.00050168    -0.00046913
H         0.90152281    -0.12403148     1.89010797     0.00029777    -0.00040864     0.00037935
H        -0.94002030     0.02094231     1.75413471     0.00080365    -0.00018777    -0.00025090
H        -1.01466799     0.03877489    -0.52042429    -0.00074623     0.00019131    -0.00063211
     6
  Step:    10            Position(A)                                  Velocity(au)
C        -0.03377718     0.02088504    -0.00666110     0.00007741    -0.00007065    -0.00031551
N        -0.04622349    -0.06121273     1.32429685    -0.00006438     0.00005108     0.00034946
H         0.88425912    -0.00157052    -0.55251170     0.00004480     0.00049853    -0.00059787
H         0.90246328    -0.12622146     1.89189714     0.00004421    -0.00038753     0.00027054
H        -0.93600489     0.01998359     1.75320678     0.00064370    -0.00015986    -0.00008067
H        -1.01883114     0.03979857    -0.52406982    -0.00076066     0.00018081    -0.00068864
     6
  Step:    11            Position(A)                                  Velocity(au)
C        -0.03337033     0.02050289    -0.00838945     0.00007024    -0.00006844    -0.00031196
N        -0.04650021    -0.06094454     1.32623539    -0.00003573     0.00004648     0.00035373
H         0.88484916     0.00116497    -0.55615147     0.00016637     0.00049651    -0.00072300
H         0.90200922    -0.12829547     1.89308475    -0.00020730    -0.00036665     0.00016184
H        -0.93293769     0.01918342     1.75324714     0.00046238    -0.00013045     0.00009913
H        -1.02303748     0.04076430    -0.52800128    -0.00076194     0.00017023    -0.00073616
     6
  Step:    12            Position(A)                                  Velocity(au)
C        -0.03300440     0.02013207    -0.01009348     0.00006263    -0.00006651    -0.00030678
N        -0.04661663    -0.06070136     1.32818880    -0.00000649     0.00004202     0.00035497
H         0.88608963     0.00389236    -0.56046653     0.00027974     0.00049555    -0.00084228
H         0.90018245    -0.13025552     1.89367773    -0.00045295    -0.00034624     0.00005551
H        -0.93091762     0.01854837     1.75429748     0.00026693    -0.00010017     0.00028427
H        -1.02721438     0.04167150    -0.53216940    -0.00075000     0.00015950    -0.00077476
     6
  Step:    13            Position(A)                                  Velocity(au)
C        -0.03268121     0.01977106    -0.01176481     0.00005477    -0.00006483    -0.00030009
N        -0.04657157    -0.06048219     1.33014106     0.00002255     0.00003777     0.00035333
H         0.88792709     0.00661742    -0.56541881     0.00038196     0.00049547    -0.00095339
H         0.89702559    -0.13210503     1.89369550    -0.00068872    -0.00032652    -0.00004612
H        -0.93000071     0.01808128     1.75637492     0.00006551    -0.00006972     0.00047002
H        -1.03128950     0.04251924    -0.53652569    -0.00072489     0.00014854    -0.00080447
     6
  Step:    14            Position(A)                                  Velocity(au)
C        -0.03240164     0.01941859    -0.01339589     0.00004683    -0.00006335    -0.00029201
N        -0.04636847    -0.06028575     1.33207699     0.00005049     0.00003376     0.00034889
H         0.89029296     0.00934480    -0.57095813     0.00047037     0.00049593    -0.00105401
H         0.89260335    -0.13384869     1.89317024    -0.00091022    -0.00030771    -0.00014059
H        -0.93019669     0.01778118     1.75946986    -0.00013314    -0.00003978     0.00065121
H        -1.03519143     0.04330614    -0.54102222    -0.00068680     0.00013730    -0.00082528
     6
  Step:    15            Position(A)                                  Velocity(au)
C        -0.03216565     0.01907364    -0.01497957     0.00003895    -0.00006200    -0.00028257
N        -0.04601569    -0.06011050     1.33398203     0.00007643     0.00003006     0.00034174
H         0.89310539     0.01207718    -0.57702244     0.00054266     0.00049654    -0.00114184
H         0.88700495    -0.13549261     1.89214770    -0.00111252    -0.00029005    -0.00022527
H        -0.93146649     0.01764332     1.76354411    -0.00032029    -0.00001108     0.00082248
H        -1.03885049     0.04403074    -0.54561125    -0.00063611     0.00012569    -0.00083714
     6
  Step:    16            Position(A)                                  Velocity(au)
C        -0.03197255     0.01873555    -0.01650899     0.00003125    -0.00006072    -0.00027181
N        -0.04552648    -0.05995459     1.33584195     0.00009944     0.00002671     0.00033191
H         0.89627142     0.01481516    -0.58353775     0.00059700     0.00049684    -0.00121469
H         0.88034682    -0.13704414     1.89068847    -0.00129024    -0.00027379    -0.00029731
H        -0.93372529     0.01765908     1.76853108    -0.00048770     0.00001569     0.00097855
H        -1.04219938     0.04469082    -0.55024492    -0.00057340     0.00011362    -0.00083997
     6
  Step:    17            Position(A)                                  Velocity(au)
C        -0.03182101     0.01840401    -0.01797733     0.00002384    -0.00005944    -0.00025974
N        -0.04491895    -0.05981592     1.33764263     0.00011867     0.00002376     0.00031942
H         0.89968965     0.01755674    -0.59041911     0.00063212     0.00049634    -0.00127065
H         0.87277506    -0.13851222     1.88886876    -0.00143778    -0.00025925    -0.00035378
H        -0.93684528     0.01781637     1.77433642    -0.00062806     0.00003992     0.00111450
H        -1.04517442     0.04528382    -0.55487515    -0.00049958     0.00010106    -0.00083379
     6
  Step:    18            Position(A)                                  Velocity(au)
C        -0.03170921     0.01807906    -0.01937781     0.00001682    -0.00005811    -0.00024642
N        -0.04421575    -0.05969213     1.33936998     0.00013336     0.00002126     0.00030433
H         0.90325317     0.02029724    -0.59757203     0.00064742     0.00049460    -0.00130828
H         0.86446669    -0.13990758     1.88678098    -0.00154967    -0.00024680    -0.00039187
H        -0.94066220     0.01810004     1.78084068    -0.00073560     0.00006111     0.00122618
H        -1.04771723     0.04580704    -0.55945401    -0.00041595     0.00008803    -0.00081876
     6
  Step:    19            Position(A)                                  Velocity(au)
C        -0.03163486     0.01776105    -0.02070390     0.00001027    -0.00005669    -0.00023194
N        -0.04344332    -0.05958063     1.34101002     0.00014295     0.00001926     0.00028674
H         0.90685334     0.02302949    -0.60489510     0.00064313     0.00049128    -0.00132683
H         0.85562817    -0.14124306     1.88453277    -0.00162128    -0.00023685    -0.00040914
H        -0.94498461     0.01849256     1.78790399    -0.00080657     0.00007890     0.00131062
H        -1.04977686     0.04625784    -0.56393467    -0.00032420     0.00007458    -0.00079536
     6
  Step:    20            Position(A)                                  Velocity(au)
C        -0.03159530     0.01745054    -0.02194955     0.00000425    -0.00005515    -0.00021649
N        -0.04263079    -0.05947862     1.34254926     0.00014710     0.00001777     0.00026683
H         0.91038409     0.02574449    -0.61228374     0.00062031     0.00048620    -0.00132644
H         0.84649014    -0.14253370     1.88224447    -0.00164942    -0.00022981    -0.00040384
H        -0.94960530     0.01897488     1.79537268    -0.00083951     0.00009312     0.00136635
H        -1.05131187     0.04663397    -0.56827289    -0.00022636     0.00006082    -0.00076440
     6
  Step:    21            Position(A)                                  Velocity(au)
C        -0.03158760     0.01714819    -0.02310958    -0.00000297    -0.00005209    -0.00023460
N        -0.04180864    -0.05938321     1.34397518     0.00014594     0.00001537     0.00026994
H         0.91374648     0.02843233    -0.61963499     0.00056731     0.00054744    -0.00127043
H         0.83729916    -0.14379675     1.88004509    -0.00164672    -0.00029785    -0.00038010
H        -0.95431355     0.01952739     1.80308744    -0.00081829     0.00018112     0.00139482
H        -1.05229224     0.04693373    -0.57242896    -0.00009505    -0.00002360    -0.00069988
     6
  Step:    22            Position(A)                                  Velocity(au)
C        -0.03162835     0.01687041    -0.02456237    -0.00001118    -0.00004710    -0.00029352
N        -0.04100545    -0.05930742     1.34555560     0.00013942     0.00001186     0.00030266
H         0.91670232     0.03184137    -0.62643260     0.00048426     0.00065597    -0.00115778
H         0.82815049    -0.14585083     1.87801130    -0.00161581    -0.00042110    -0.00034344
H        -0.95871870     0.02099199     1.81090693    -0.00074210     0.00032074     0.00139224
H        -1.05237041     0.04637117    -0.57606753     0.00006937    -0.00015915    -0.00059935
     6
  Step:    23            Position(A)                                  Velocity(au)
C        -0.03171243     0.01662248    -0.02638559    -0.00001837    -0.00004159    -0.00035918
N        -0.04025248    -0.05925084     1.34735329     0.00012769     0.00000870     0.00034065
H         0.91915143     0.03575385    -0.63255728     0.00038775     0.00073565    -0.00102960
H         0.81926465    -0.14849677     1.87621184    -0.00154405    -0.00051966    -0.00029120
H        -0.96259631     0.02310732     1.81862664    -0.00063229     0.00042554     0.00135885
H        -1.05151800     0.04515745    -0.57911851     0.00023300    -0.00026684    -0.00049178
     6
  Step:    24            Position(A)                                  Velocity(au)
C        -0.03183383     0.01640528    -0.02857946    -0.00002445    -0.00003607    -0.00042307
N        -0.03957734    -0.05921011     1.34936543     0.00011148     0.00000621     0.00037679
H         0.92103891     0.04006885    -0.63794767     0.00028421     0.00079965    -0.00089384
H         0.81088183    -0.15166273     1.87475449    -0.00143164    -0.00060762    -0.00022011
H        -0.96579023     0.02575127     1.82610433    -0.00049902     0.00051110     0.00130348
H        -1.04976452     0.04338678    -0.58156756     0.00038858    -0.00035956    -0.00038424
     6
  Step:    25            Position(A)                                  Velocity(au)
C        -0.03198634     0.01621838    -0.03112542    -0.00002942    -0.00003073    -0.00048289
N        -0.03900355    -0.05918130     1.35157466     0.00009160     0.00000444     0.00040939
H         0.92233557     0.04471263    -0.64257126     0.00017782     0.00085215    -0.00075524
H         0.80322542    -0.15530420     1.87374591    -0.00128318    -0.00068898    -0.00013134
H        -0.96818706     0.02883333     1.83323005    -0.00034973     0.00058218     0.00123201
H        -1.04716459     0.04112919    -0.58342326     0.00053260    -0.00044085    -0.00028029
     6
  Step:    26            Position(A)                                  Velocity(au)
C        -0.03216380     0.01606058    -0.03399635    -0.00003331    -0.00002568    -0.00053777
N        -0.03854978    -0.05916032     1.35395783     0.00006896     0.00000339     0.00043795
H         0.92303363     0.04962786    -0.64641963     0.00007190     0.00089609    -0.00061763
H         0.79648768    -0.15939138     1.87328112    -0.00110518    -0.00076627    -0.00002750
H        -0.96971336     0.03228191     1.83992441    -0.00019099     0.00064210     0.00114983
H        -1.04379003     0.03844155    -0.58471170     0.00066289    -0.00051304    -0.00018254
     6
  Step:    27            Position(A)                                  Velocity(au)
C        -0.03236026     0.01593013    -0.03716187    -0.00003619    -0.00002099    -0.00058756
N        -0.03822950    -0.05914322     1.35649067     0.00004443     0.00000303     0.00046260
H         0.92314263     0.05477121    -0.64950420    -0.00003106     0.00093400    -0.00048392
H         0.79081982    -0.16390559     1.87343724    -0.00090518    -0.00084144     0.00008806
H        -0.97033088     0.03604095     1.84613688    -0.00002823     0.00069363     0.00106173
H        -1.03972370     0.03537027    -0.58547229     0.00077823    -0.00057815    -0.00009287
     6
  Step:    28            Position(A)                                  Velocity(au)
C        -0.03257006     0.01582499    -0.04059176    -0.00003811    -0.00001669    -0.00063250
N        -0.03805101    -0.05912634     1.35915053     0.00001887     0.00000328     0.00048376
H         0.92268503     0.06011212    -0.65185170    -0.00012923     0.00096805    -0.00035614
H         0.78632687    -0.16883662     1.87426965    -0.00069106    -0.00091592     0.00021153
H        -0.97003028     0.04006796     1.85184246     0.00013419     0.00073914     0.00097165
H        -1.03505432     0.03195179    -0.58575421     0.00087799    -0.00063796    -0.00001258
     6
  Step:    29            Position(A)                                  Velocity(au)
C        -0.03278785     0.01574295    -0.04425765    -0.00003912    -0.00001277    -0.00067291
N        -0.03801780    -0.05910646     1.36191777    -0.00000695     0.00000405     0.00050194
H         0.92169287     0.06563142    -0.65349956    -0.00022127     0.00099995    -0.00023557
H         0.78306711    -0.17418096     1.87581032    -0.00047046    -0.00099062     0.00033885
H        -0.96882547     0.04433305     1.85703740     0.00029281     0.00078064     0.00088261
H        -1.02987391     0.02821325    -0.58561343     0.00096161    -0.00069401     0.00005743
     6
  Step:    30            Position(A)                                  Velocity(au)
C        -0.03300853     0.01568184    -0.04813330    -0.00003924    -0.00000923    -0.00070893
N        -0.03812888    -0.05908096     1.36477596    -0.00003229     0.00000524     0.00051752
H         0.92020524     0.07131888    -0.65449184    -0.00030603     0.00103077    -0.00012302
H         0.78105426    -0.17993885     1.87806726    -0.00025071    -0.00106569     0.00046577
H        -0.96674865     0.04881679     1.86173413     0.00044469     0.00081959     0.00079677
H        -1.02427723     0.02417375    -0.58511061     0.00102825    -0.00074743     0.00011641
     6
  Step:    31            Position(A)                                  Velocity(au)
C        -0.03322710     0.01563959    -0.05219349    -0.00003845    -0.00000604    -0.00074038
N        -0.03837921    -0.05904782     1.36771102    -0.00005643     0.00000672     0.00053067
H         0.91826715     0.07717004    -0.65487670    -0.00038234     0.00106097    -0.00001908
H         0.78026058    -0.18611045     1.88102422    -0.00003886    -0.00114045     0.00058783
H        -0.96384753     0.05350763     1.86595654     0.00058701     0.00085690     0.00071564
H        -1.01836357     0.01984646    -0.58431027     0.00107653    -0.00079883     0.00016366
     6
  Step:    32            Position(A)                                  Velocity(au)
C        -0.03343851     0.01561427    -0.05641232    -0.00003674    -0.00000318    -0.00076679
N        -0.03875988    -0.05900577     1.37070998    -0.00007866     0.00000837     0.00054132
H         0.91592980     0.08318279    -0.65470521    -0.00044887     0.00109041     0.00007563
H         0.78061970    -0.19269156     1.88464048     0.00015828    -0.00121346     0.00070045
H        -0.96018464     0.05839882     1.86973648     0.00071679     0.00089298     0.00064035
H        -1.01223936     0.01524114    -0.58328059     0.00110465    -0.00084837     0.00019839
     6
  Step:    33            Position(A)                                  Velocity(au)
C        -0.03363767     0.01560411    -0.06076155    -0.00003410    -0.00000061    -0.00078747
N        -0.03925812    -0.05895432     1.37375965    -0.00009826     0.00001003     0.00054923
H         0.91325147     0.08935426    -0.65403158    -0.00050410     0.00111859     0.00016034
H         0.78202924    -0.19966951     1.88885100     0.00033426    -0.00128264     0.00079912
H        -0.95583820     0.06348573     1.87311171     0.00083083     0.00092783     0.00057188
H        -1.00602026     0.01036678    -0.58209349     0.00111065    -0.00089584     0.00021985
     6
  Step:    34            Position(A)                                  Velocity(au)
C        -0.03381940     0.01560746    -0.06520928    -0.00003051     0.00000167    -0.00080166
N        -0.03985751    -0.05889378     1.37684557    -0.00011456     0.00001155     0.00055411
H         0.91029844     0.09567871    -0.65291397    -0.00054645     0.00114478     0.00023414
H         0.78435384    -0.20702012     1.89356760     0.00048330    -0.00134565     0.00087977
H        -0.95090333     0.06876380     1.87612505     0.00092587     0.00096127     0.00051122
H        -0.99983204     0.00523361    -0.58082462     0.00109277    -0.00094076     0.00022739
     6
  Step:    35            Position(A)                                  Velocity(au)
C        -0.03397857     0.01562279    -0.06971972    -0.00002602     0.00000368    -0.00080876
N        -0.04053830    -0.05882530     1.37995157    -0.00012702     0.00001278     0.00055568
H         0.90714522     0.10214656    -0.65141514    -0.00057450     0.00116833     0.00029611
H         0.78742985    -0.21470639     1.89868196     0.00060075    -0.00140019     0.00093917
H        -0.94549207     0.07422745     1.87882433     0.00099894     0.00099307     0.00045937
H        -0.99380914    -0.00014570    -0.57955250     0.00104995    -0.00098265     0.00022070
     6
  Step:    36            Position(A)                                  Velocity(au)
C        -0.03411040     0.01564859    -0.07425390    -0.00002074     0.00000542    -0.00080843
N        -0.04127801    -0.05875082     1.38305989    -0.00013524     0.00001361     0.00055377
H         0.90387357     0.10874451    -0.64960251    -0.00058722     0.00118880     0.00034545
H         0.79107226    -0.22267899     1.90407067     0.00068357    -0.00144442     0.00097528
H        -0.93973180     0.07986967     1.88126232     0.00104774     0.00102315     0.00041726
H        -0.98809013    -0.00575572    -0.57835641     0.00098225    -0.00102116     0.00019996
     6
  Step:    37            Position(A)                                  Velocity(au)
C        -0.03421074     0.01568343    -0.07877133    -0.00001481     0.00000690    -0.00080074
N        -0.04205247    -0.05867294     1.38615186    -0.00013904     0.00001392     0.00054841
H         0.90057043     0.11545699    -0.64754732    -0.00058407     0.00120613     0.00038170
H         0.79508347    -0.23087896     1.90960178     0.00073059    -0.00147719     0.00098749
H        -0.93376097     0.08568322     1.88349624     0.00107102     0.00105169     0.00038567
H        -0.98281130    -0.01157912    -0.57731359     0.00089104    -0.00105619     0.00016593
     6
  Step:    38            Position(A)                                  Velocity(au)
C        -0.03427641     0.01572592    -0.08323204    -0.00000844     0.00000813    -0.00078617
N        -0.04283698    -0.05859479     1.38920882    -0.00013850     0.00001364     0.00053982
H         0.89732483     0.12226804    -0.64532276    -0.00056521     0.00122067     0.00040485
H         0.79926383    -0.23924170     1.91514264     0.00074261    -0.00149816     0.00097659
H        -0.92772326     0.09166154     1.88558662     0.00106873     0.00107908     0.00036509
H        -0.97809956    -0.01759800    -0.57649598     0.00077896    -0.00108796     0.00011995
     6
  Step:    39            Position(A)                                  Velocity(au)
C        -0.03430546     0.01577469    -0.08759886    -0.00000186     0.00000912    -0.00076556
N        -0.04360758    -0.05851979     1.39221327    -0.00013388     0.00001275     0.00052841
H         0.89422394     0.12916337    -0.64300140    -0.00053146     0.00123314     0.00041538
H         0.80342188    -0.24770115     1.92056745     0.00072213    -0.00150790     0.00094463
H        -0.92176067     0.09779973     1.88759564     0.00104212     0.00110601     0.00035561
H        -0.97406474    -0.02379537    -0.57596673     0.00064981    -0.00111704     0.00006391
     6
  Step:    40            Position(A)                                  Velocity(au)
C        -0.03429733     0.01582847    -0.09183953     0.00000466     0.00000989    -0.00074001
N        -0.04434224    -0.05845149     1.39514991    -0.00012564     0.00001124     0.00051469
H         0.89134936     0.13613268    -0.64065248    -0.00048423     0.00124453     0.00041421
H         0.80738300    -0.25619565     1.92576354     0.00067291    -0.00150773     0.00089453
H        -0.91600628     0.10409691     1.88958490     0.00099356     0.00113339     0.00035692
H        -0.97079351    -0.03015733    -0.57577742     0.00050816    -0.00114423     0.00000005
     6
  Step:    41            Position(A)                                  Velocity(au)
C        -0.03425298     0.01588606    -0.09592793     0.00001088     0.00001046    -0.00071072
N        -0.04502174    -0.05839332     1.39800629    -0.00011435     0.00000915     0.00049925
H         0.88877385     0.14317092    -0.63833938    -0.00042529     0.00125594     0.00040260
H         0.81099567    -0.26467107     1.93063564     0.00059946    -0.00149935     0.00082963
H        -0.91057786     0.11055636     1.89161292     0.00092629     0.00116206     0.00036825
H        -0.96834525    -0.03667398    -0.57596622     0.00035894    -0.00117040    -0.00006923
     6
  Step:    42            Position(A)                                  Velocity(au)
C        -0.03417478     0.01594631    -0.09984457     0.00001656     0.00001084    -0.00067881
N        -0.04563022    -0.05834848     1.40077309    -0.00010062     0.00000653     0.00048260
H         0.88655924     0.15027876    -0.63611785    -0.00035668     0.00126838     0.00038204
H         0.81413485    -0.27308323     1.93510795     0.00050650    -0.00148461     0.00075337
H        -0.90557323     0.11718556     1.89373265     0.00084408     0.00119274     0.00038841
H        -0.96675068    -0.04333987    -0.57655721     0.00020706    -0.00119635    -0.00014150
     6
  Step:    43            Position(A)                                  Velocity(au)
C        -0.03406640     0.01600815    -0.10357629     0.00002149     0.00001103    -0.00064528
N        -0.04615549    -0.05831977     1.40344394    -0.00008508     0.00000346     0.00046521
H         0.88475507     0.15746211    -0.63403487    -0.00028056     0.00128262     0.00035408
H         0.81670252    -0.28139857     1.93912404     0.00039861    -0.00146528     0.00066893
H        -0.90106742     0.12399532     1.89598923     0.00075097     0.00122587     0.00041584
H        -0.96601221    -0.05015357    -0.57756056     0.00005722    -0.00122267    -0.00021443
     6
  Step:    44            Position(A)                                  Velocity(au)
C        -0.03393263     0.01607056    -0.10711540     0.00002550     0.00001104    -0.00061092
N        -0.04658891    -0.05830951     1.40601499    -0.00006833     0.00000002     0.00044742
H         0.88339792     0.16473088    -0.63212819    -0.00019919     0.00129912     0.00032032
H         0.81862625    -0.28959357     1.94264524     0.00028000    -0.00144289     0.00057916
H        -0.89711156     0.13099829     1.89841826     0.00065105     0.00126154     0.00044874
H        -0.96610591    -0.05711657    -0.57897339    -0.00008629    -0.00124968    -0.00028587
     6