     6
  Step:     0            Position(A)                                  Velocity(au)
C        -0.03937401     0.02285881     0.00276456    -0.00001837     0.00008925     0.00008975
N        -0.05137565    -0.06277214     1.30930744     0.00022504    -0.00002437    -0.00020365
H         0.96764682    -0.04678217    -0.52735960    -0.00075759    -0.00041718     0.00055597
H         0.89860532    -0.04410286     1.84158227    -0.00134737     0.00004463    -0.00002706
H        -0.92032341    -0.03410876     1.89660013    -0.00121807     0.00003833     0.00108624
H        -0.97574879     0.05513274    -0.54632126     0.00041468    -0.00039071     0.00014537
     6
  Step:     1            Position(A)                                  Velocity(au)
C        -0.03946195     0.02386650     0.00347936     0.00000073     0.00009547     0.00004033
N        -0.04880421    -0.06307532     1.30748050     0.00023741    -0.00003126    -0.00012690
H         0.95863055    -0.05138789    -0.52150499    -0.00086432    -0.00042731     0.00050040
H         0.88171749    -0.04351043     1.84052606    -0.00169090     0.00006531    -0.00014082
H        -0.93288439    -0.03366608     1.90823786    -0.00101827     0.00004089     0.00099420
H        -0.97196962     0.05090791    -0.54588729     0.00026565    -0.00038221    -0.00007096
     6
  Step:     2            Position(A)                                  Velocity(au)
C        -0.03935795     0.02494737     0.00364684     0.00001582     0.00010262    -0.00000934
N        -0.04618193    -0.06345596     1.30653135     0.00023429    -0.00003853    -0.00004599
H         0.94873821    -0.05613033    -0.51641248    -0.00091422    -0.00044283     0.00041475
H         0.86161358    -0.04267413     1.83850166    -0.00191710     0.00008982    -0.00019262
H        -0.94260001    -0.03321424     1.91835015    -0.00071630     0.00004045     0.00081957
H        -0.96993727     0.04677119    -0.54787362     0.00010326    -0.00037488    -0.00029139
     6
  Step:     3            Position(A)                                  Velocity(au)
C        -0.03911578     0.02611152     0.00327505     0.00002530     0.00011066    -0.00005733
N        -0.04367863    -0.06391829     1.30647448     0.00021566    -0.00004619     0.00003346
H         0.93863022    -0.06107566    -0.51243146    -0.00090221    -0.00046498     0.00029630
H         0.83977722    -0.04154552     1.83631206    -0.00199150     0.00011950    -0.00016046
H        -0.94855487    -0.03278120     1.92616749    -0.00034819     0.00003785     0.00058663
H        -0.96971065     0.04270660    -0.55226202    -0.00005643    -0.00036916    -0.00050435
     6
  Step:     4            Position(A)                                  Velocity(au)
C        -0.03880457     0.02736831     0.00239265     0.00002809     0.00011950    -0.00010188
N        -0.04146393    -0.06446656     1.30726341     0.00018188    -0.00005425     0.00010628
H         0.92900054    -0.06630261    -0.50993042    -0.00082787    -0.00049471     0.00014465
H         0.81804561    -0.04005975     1.83499119    -0.00188879     0.00015593    -0.00002725
H        -0.95021736    -0.03238631     1.93118391     0.00005270     0.00003381     0.00031859
H        -0.97117168     0.03869514    -0.55890734    -0.00019823    -0.00036515    -0.00069892
     6
  Step:     5            Position(A)                                  Velocity(au)
C        -0.03850136     0.02872575     0.00104615     0.00002392     0.00012897    -0.00014159
N        -0.03969957    -0.06510512     1.30879966     0.00013451    -0.00006270     0.00016850
H         0.92051889    -0.07189849    -0.50926704    -0.00069677    -0.00053249    -0.00003739
H         0.79845631    -0.03813414     1.83571600    -0.00160352     0.00020059     0.00021204
H        -0.94740203    -0.03204162     1.93313725     0.00045593     0.00002899     0.00003707
H        -0.97404737     0.03471817    -0.56755229    -0.00030983    -0.00036270    -0.00086604
     6
  Step:     6            Position(A)                                  Velocity(au)
C        -0.03828126     0.03018986    -0.00070492     0.00001346     0.00013888    -0.00017553
N        -0.03852134    -0.06583828     1.31094961     0.00007710    -0.00007153     0.00021789
H         0.91375736    -0.07795175    -0.51074836    -0.00052129    -0.00057793    -0.00024321
H         0.78296548    -0.03567149     1.83963007    -0.00115997     0.00025430     0.00054316
H        -0.94024313    -0.03175217     1.93199491     0.00083244     0.00002407    -0.00023693
H        -0.97794983     0.03076041    -0.57785358    -0.00038297    -0.00036139    -0.00099931
     6
  Step:     7            Position(A)                                  Velocity(au)
C        -0.03820685     0.03176401    -0.00279393    -0.00000175     0.00014894    -0.00020333
N        -0.03801293    -0.06667001     1.31356647     0.00001561    -0.00008067     0.00025423
H         0.90911473    -0.08454171    -0.51458764    -0.00031997    -0.00062967    -0.00046256
H         0.77307968    -0.03257086     1.84759858    -0.00061474     0.00031658     0.00092961
H        -0.92919080    -0.03151497     1.92795394     0.00115261     0.00001992    -0.00048176
H        -0.98242559     0.02681199    -0.58941410    -0.00041388    -0.00036070    -0.00109529
     6
  Step:     8            Position(A)                                  Velocity(au)
C        -0.03831960     0.03344831    -0.00515313    -0.00001959     0.00015885    -0.00022509
N        -0.03817993    -0.06760313     1.31651135    -0.00004217    -0.00008998     0.00027880
H         0.90675734    -0.09172708    -0.52086767    -0.00011529    -0.00068538    -0.00068254
H         0.76951680    -0.02874561     1.85996716    -0.00004749     0.00038522     0.00131776
H        -0.91502765    -0.03131637     1.92145544     0.00138492     0.00001768    -0.00067419
H        -0.98700420     0.02286942    -0.60181509    -0.00040273    -0.00036003    -0.00115317
     6
  Step:     9            Position(A)                                  Velocity(au)
C        -0.03863536     0.03523908    -0.00771831    -0.00003772     0.00016823    -0.00024125
N        -0.03893548    -0.06863848     1.31966584    -0.00008802    -0.00009925     0.00029351
H         0.90659249    -0.09953580    -0.52951944     0.00006978    -0.00074190    -0.00088929
H         0.77204085    -0.02414353     1.87642709     0.00045850     0.00045642     0.00164955
H        -0.89889301    -0.03112812     1.91320480     0.00149695     0.00001884    -0.00079002
H        -0.99123605     0.01893566    -0.61464198    -0.00035262    -0.00035883    -0.00117423
     6
  Step:    10            Position(A)                                  Velocity(au)
C        -0.03914474     0.03712873    -0.01043098    -0.00005403     0.00017676    -0.00025236
N        -0.04010554    -0.06977451     1.32293247    -0.00011512    -0.00010829     0.00029989
H         0.90828400    -0.10795747    -0.54032269     0.00021535    -0.00079579    -0.00106993
H         0.77954735    -0.01876058     1.89605430     0.00083752     0.00052571     0.00187782
H        -0.88227905    -0.03090421     1.90417230     0.00145937     0.00002517    -0.00080697
H        -0.99471854     0.01501922    -0.62750361    -0.00026862    -0.00035662    -0.00116119
     6
  Step:    11            Position(A)                                  Velocity(au)
C        -0.03981739     0.03910604    -0.01323920    -0.00006695     0.00018413    -0.00025897
N        -0.04145400    -0.07100750     1.32622655    -0.00011952    -0.00011692     0.00029876
H         0.91130366    -0.11694529    -0.55292620     0.00030741    -0.00084397    -0.00121418
H         0.79036320    -0.01264266     1.91750799     0.00105422     0.00058904     0.00197645
H        -0.86696651    -0.03057745     1.89555071     0.00125389     0.00003843    -0.00071042
H        -0.99711261     0.01113381    -0.64004519    -0.00015681    -0.00035295    -0.00111769
     6
  Step:    12            Position(A)                                  Velocity(au)
C        -0.04060939     0.04115686    -0.01609643    -0.00007560     0.00019012    -0.00026151
N        -0.04272032    -0.07233226     1.32946848    -0.00010091    -0.00012503     0.00029063
H         0.91500915    -0.12642083    -0.56688518     0.00033933    -0.00088399    -0.00131548
H         0.80261043    -0.00587421     1.93929295     0.00110381     0.00064370     0.00194186
H        -0.85484787    -0.03006346     1.88863046     0.00088369     0.00005966    -0.00050102
H        -0.99814902     0.00729783    -0.65195526    -0.00002366    -0.00034738    -0.00104787
     6
  Step:    13            Position(A)                                  Velocity(au)
C        -0.04147127     0.04326519    -0.01896017    -0.00007976     0.00019461    -0.00026029
N        -0.04366167    -0.07374284     1.33258453    -0.00006265    -0.00013257     0.00027646
H         0.91872721    -0.13628423    -0.58170479     0.00031142    -0.00091441    -0.00137101
H         0.81451126     0.00143959     1.95998983     0.00100391     0.00068866     0.00178765
H        -0.84763417    -0.02927219     1.88458986     0.00038155     0.00008848    -0.00020068
H        -0.99763019     0.00353427    -0.66296930     0.00012424    -0.00033950    -0.00095613
     6
  Step:    14            Position(A)                                  Velocity(au)
C        -0.04235436     0.04541427    -0.02179080    -0.00007972     0.00019758    -0.00025552
N        -0.04409100    -0.07523250     1.33551659    -0.00001105    -0.00013943     0.00025825
H         0.92182210    -0.14642540    -0.59687865     0.00022945    -0.00093485    -0.00138120
H         0.82457297     0.00919156     1.97840126     0.00078379     0.00072429     0.00153686
H        -0.84650073    -0.02812788     1.88424011    -0.00019002     0.00012259     0.00014742
H        -0.99543100    -0.00012942    -0.67287238     0.00028016    -0.00032887    -0.00084711
     6
  Step:    15            Position(A)                                  Velocity(au)
C        -0.04321519     0.04758764    -0.02455013    -0.00007602     0.00019910    -0.00024729
N        -0.04390330    -0.07679322     1.33823430     0.00004609    -0.00014549     0.00023880
H         0.92374685    -0.15673580    -0.61192108     0.00010282    -0.00094583    -0.00134887
H         0.83165806     0.01728486     1.99361169     0.00047596     0.00075202     0.00121550
H        -0.85179113    -0.02659025     1.88781506    -0.00075048     0.00015803     0.00048733
H        -0.99150120    -0.00366035    -0.68150152     0.00043713    -0.00031499    -0.00072569
     6
  Step:    16            Position(A)                                  Velocity(au)
C        -0.04401744     0.04976999    -0.02720078    -0.00006934     0.00019930    -0.00023564
N        -0.04308277    -0.07841540     1.34074080     0.00010114    -0.00015061     0.00022089
H         0.92407143    -0.16711730    -0.62638783    -0.00005727    -0.00094864    -0.00127840
H         0.83498542     0.02564338     2.00499268     0.00011170     0.00077405     0.00084890
H        -0.86291883    -0.02467073     1.89490148    -0.00122146     0.00018996     0.00076469
H        -0.98586800    -0.00702043    -0.68874814     0.00058786    -0.00029739    -0.00059695
     6
  Step:    17            Position(A)                                  Velocity(au)
C        -0.04473210     0.05194776    -0.02970514    -0.00006028     0.00019836    -0.00022048
N        -0.04169077    -0.08008814     1.34306677     0.00014816    -0.00015474     0.00020635
H         0.92249400    -0.17748903    -0.63988858    -0.00023908    -0.00094506    -0.00117503
H         0.83410164     0.03421867     2.01218303    -0.00028017     0.00079324     0.00046066
H        -0.87851291    -0.02243459     1.90454412    -0.00154597     0.00021400     0.00094037
H        -0.97864072    -0.01016640    -0.69456103     0.00072460    -0.00027563    -0.00046630
     6
  Step:    18            Position(A)                                  Velocity(au)
C        -0.04533621     0.05410948    -0.03202419    -0.00004931     0.00019647    -0.00020165
N        -0.03984142    -0.08180057     1.34525512     0.00018351    -0.00015796     0.00019545
H         0.91884110    -0.18779227    -0.65209385    -0.00043131    -0.00093725    -0.00104438
H         0.82885614     0.04299707     2.01507053    -0.00067230     0.00081322     0.00007329
H        -0.89673988    -0.01998912     1.91547386    -0.00169813     0.00022718     0.00099718
H        -0.97001594    -0.01305033    -0.69894945     0.00083923    -0.00024928    -0.00033935
     6
  Step:    19            Position(A)                                  Velocity(au)
C        -0.04581094     0.05624591    -0.03411660    -0.00003673     0.00019384    -0.00017892
N        -0.03767612    -0.08354385     1.34734270     0.00020553    -0.00016057     0.00018696
H         0.91305832    -0.19799318    -0.66273638    -0.00062356    -0.00092759    -0.00089216
H         0.81939382     0.05200948     2.01378648    -0.00103703     0.00083875    -0.00029042
H        -0.91566275    -0.01746451     1.92635928    -0.00168134     0.00022825     0.00093830
H        -0.96028106    -0.01561995    -0.70198491     0.00092346    -0.00021796    -0.00022173
     6
  Step:    20            Position(A)                                  Velocity(au)
C        -0.04613977     0.05835014    -0.03593847    -0.00002268     0.00019069    -0.00015209
N        -0.03534502    -0.08531337     1.34934521     0.00021383    -0.00016306     0.00017853
H         0.90519962    -0.20808511    -0.67161158    -0.00080645    -0.00091866    -0.00072409
H         0.80616904     0.06134626     2.00871713    -0.00134499     0.00087618    -0.00060626
H        -0.93352244    -0.01499569     1.93600090    -0.00151905     0.00021731     0.00078064
H        -0.94981349    -0.01781856    -0.70380027     0.00096934    -0.00018120    -0.00011888
     6
  Step:    21            Position(A)                                  Velocity(au)
C        -0.04630711     0.06041754    -0.03744379    -0.00000720     0.00018721    -0.00012103
N        -0.03299828    -0.08711109     1.35124829     0.00020846    -0.00016612     0.00016728
H         0.89541565    -0.21809072    -0.67857732    -0.00097181    -0.00091327    -0.00054581
H         0.78996965     0.07117768     2.00052331    -0.00156492     0.00093403    -0.00084850
H        -0.94889486    -0.01271043     1.94343728    -0.00124412     0.00019522     0.00054745
H        -0.93907498    -0.01958400    -0.70458571     0.00096983    -0.00013838    -0.00003550
     6
  Step:    22            Position(A)                                  Velocity(au)
C        -0.04629733     0.06244569    -0.03858619     0.00000962     0.00018360    -0.00008584
N        -0.03078457    -0.08894758     1.35300468     0.00018963    -0.00017061     0.00015038
H         0.88393940    -0.22806466    -0.68355227    -0.00111251    -0.00091441    -0.00036288
H         0.77193346     0.08178001     1.99015462    -0.00166637     0.00102287    -0.00099191
H        -0.96073990    -0.01072484     1.94797742    -0.00089102     0.00016302     0.00026278
H        -0.92859653    -0.02084580    -0.70457698     0.00092007    -0.00008846     0.00002515
     6
  Step:    23            Position(A)                                  Velocity(au)
C        -0.04609655     0.06443423    -0.03932165     0.00002760     0.00018004    -0.00004693
N        -0.02884982    -0.09084361     1.35453807     0.00015781    -0.00017749     0.00012563
H         0.87107736    -0.23809518    -0.68651608    -0.00122259    -0.00092530    -0.00018071
H         0.75351471     0.09355482     1.97882345    -0.00162570     0.00115452    -0.00101668
H        -0.96838760    -0.00914413     1.94918619    -0.00049191     0.00012150    -0.00005114
H        -0.91894664    -0.02151920    -0.70403557     0.00081828    -0.00002975     0.00006193
     6
  Step:    24            Position(A)                                  Velocity(au)
C        -0.04569354     0.06638449    -0.03961283     0.00004637     0.00017666    -0.00000517
N        -0.02733209    -0.09283049     1.35575306     0.00011436    -0.00018762     0.00009207
H         0.85719299    -0.24830748    -0.68750568    -0.00129758    -0.00094951    -0.00000430
H         0.73636812     0.10703737     1.96791272    -0.00143498     0.00134009    -0.00091564
H        -0.97150145    -0.00806674     1.94685861    -0.00007572     0.00007101    -0.00037438
H        -0.91069510    -0.02149668    -0.70322216     0.00066654     0.00004043     0.00007650
     6
  Step:    25            Position(A)                                  Velocity(au)
C        -0.04508208     0.06829898    -0.03943474     0.00006538     0.00017352     0.00003796
N        -0.02634801    -0.09494805     1.35655223     0.00006221    -0.00020154     0.00005052
H         0.84269027    -0.25886745    -0.68661016    -0.00133478    -0.00099091     0.00016205
H         0.72212175     0.12287183     1.95879200    -0.00111116     0.00158643    -0.00070179
H        -0.97004416    -0.00759071     1.94099587     0.00033082     0.00001121    -0.00068852
H        -0.90436481    -0.02063470    -0.70236202     0.00047150     0.00012625     0.00007381
     6
  Step:    26            Position(A)                                  Velocity(au)
C        -0.04426320     0.07018048    -0.03878229     0.00008390     0.00017058     0.00008020
N        -0.02597109    -0.09723956     1.35685829     0.00000639    -0.00021923     0.00000389
H         0.82799203    -0.26998556    -0.68396051    -0.00133383    -0.00105384     0.00031540
H         0.71205948     0.14174349     1.95255963    -0.00070038     0.00189268    -0.00041189
H        -0.96426402    -0.00782159     1.93179593     0.00070129    -0.00005919    -0.00097527
H        -0.90038003    -0.01873465    -0.70160740     0.00024435     0.00023407     0.00006213
     6
  Step:    27            Position(A)                                  Velocity(au)
C        -0.04324661     0.07203075    -0.03768028     0.00010113     0.00016767     0.00011807
N        -0.02620819    -0.09974404     1.35663722    -0.00004628    -0.00023997    -0.00004301
H         0.81351018    -0.28192222    -0.67971012    -0.00129744    -0.00114343     0.00045521
H         0.70679949     0.16427793     1.94978103    -0.00027259     0.00224946    -0.00010191
H        -0.95470200    -0.00888551     1.91965995     0.00100793    -0.00014328    -0.00121517
H        -0.89901917    -0.01551401    -0.70100283     0.00000018     0.00037395     0.00005262
     6
  Step:    28            Position(A)                                  Velocity(au)
C        -0.04205078     0.07384851    -0.03619935     0.00011635     0.00016435     0.00014563
N        -0.02698361    -0.10248934     1.35591740    -0.00008823    -0.00026266    -0.00008338
H         0.79960811    -0.29500017    -0.67400191    -0.00123290    -0.00126753     0.00058559
H         0.70609608     0.19095470     1.95033026     0.00009326     0.00264447     0.00016537
H        -0.94221372    -0.01095616     1.90521177     0.00122177    -0.00024955    -0.00138697
H        -0.90037617    -0.01055373    -0.70045630    -0.00024256     0.00056418     0.00005938
     6
  Step:    29            Position(A)                                  Velocity(au)
C        -0.04070120     0.07562621    -0.03449437     0.00012927     0.00015952     0.00014684
N        -0.02813830    -0.10549027     1.35481308    -0.00011245    -0.00028684    -0.00010397
H         0.78653816    -0.30965184    -0.66689922    -0.00115932    -0.00144639     0.00072590
H         0.70883963     0.22213082     1.95339880     0.00032265     0.00308676     0.00033198
H        -0.92797352    -0.01434485     1.88931733     0.00131787    -0.00041010    -0.00146783
H        -0.90432563    -0.00317140    -0.69970384    -0.00045887     0.00085481     0.00010496
     6
  Step:    30            Position(A)                                  Velocity(au)
C        -0.03922285     0.07733838    -0.03298686     0.00013996     0.00015426     0.00011628
N        -0.02944370    -0.10876452     1.35364283    -0.00011746    -0.00030772    -0.00009639
H         0.77424570    -0.32664274    -0.65812151    -0.00108283    -0.00165689     0.00086794
H         0.71315465     0.25848352     1.95759306     0.00038887     0.00350032     0.00035327
H        -0.91338274    -0.01992779     1.87310024     0.00129067    -0.00061685    -0.00146339
H        -0.91041485     0.00814677    -0.69816013    -0.00063225     0.00121138     0.00019604
     6
  Step:    31            Position(A)                                  Velocity(au)
C        -0.03763930     0.07900095    -0.03195063     0.00014733     0.00014919     0.00007210
N        -0.03070792    -0.11222224     1.35270445    -0.00010228    -0.00032137    -0.00007348
H         0.76284929    -0.34589944    -0.64791147    -0.00099094    -0.00187078     0.00098323
H         0.71734681     0.29870691     1.96112735     0.00029959     0.00381355     0.00023337
H        -0.89973761    -0.02783974     1.85730280     0.00111962    -0.00082915    -0.00137011
H        -0.91815730     0.02332982    -0.69541504    -0.00076263     0.00157437     0.00031543
     6
  Step:    32            Position(A)                                  Velocity(au)
C        -0.03599966     0.08060221    -0.03140949     0.00015039     0.00014275     0.00002641
N        -0.03168118    -0.11579503     1.35203531    -0.00006548    -0.00032831    -0.00004826
H         0.75256691    -0.36756953    -0.63661140    -0.00088422    -0.00209583     0.00106774
H         0.71970884     0.34191228     1.96269837     0.00006629     0.00404325     0.00000650
H        -0.88888894    -0.03806705     1.84312638     0.00078511    -0.00104129    -0.00117077
H        -0.92709894     0.04258918    -0.69125946    -0.00084926     0.00195507     0.00045242
     6
  Step:    33            Position(A)                                  Velocity(au)
C        -0.03434927     0.08212389    -0.03137289     0.00014960     0.00013430    -0.00001902
N        -0.03214046    -0.11940462     1.35164876    -0.00001085    -0.00032779    -0.00002282
H         0.74350539    -0.39174975    -0.62455270    -0.00077393    -0.00232623     0.00112332
H         0.71879697     0.38716080     1.96126950    -0.00028392     0.00418818    -0.00030034
H        -0.88256190    -0.05061993     1.83168995     0.00031455    -0.00125629    -0.00088227
H        -0.93673645     0.06610071    -0.68551747    -0.00088854     0.00234911     0.00060313
     6
  Step:    34            Position(A)                                  Velocity(au)
C        -0.03272697     0.08354021    -0.03182564     0.00014570     0.00012307    -0.00006217
N        -0.03191853    -0.12296613     1.35153598     0.00005542    -0.00031928     0.00000158
H         0.73563566    -0.41846034    -0.61203667    -0.00067344    -0.00255375     0.00115363
H         0.71349764     0.43353681     1.95612791    -0.00072103     0.00425233    -0.00065818
H        -0.88200745    -0.06555077     1.82382503    -0.00023331    -0.00147890    -0.00053939
H        -0.94653737     0.09398053    -0.67806487    -0.00087851     0.00275069     0.00076274
     6
  Step:    35            Position(A)                                  Velocity(au)
C        -0.03116184     0.08481619    -0.03273293     0.00013967     0.00010816    -0.00010150
N        -0.03092806    -0.12638958     1.35168336     0.00012557    -0.00030244     0.00002510
H         0.72877260    -0.44761799    -0.59931476    -0.00059697    -0.00276784     0.00116368
H         0.70302310     0.48018876     1.94687056    -0.00121691     0.00424230    -0.00104063
H        -0.88766600    -0.08297373     1.81988979    -0.00077676    -0.00171406    -0.00018891
H        -0.95595544     0.12627733    -0.66883104    -0.00081860     0.00315345     0.00092646
     6
  Step:    36            Position(A)                                  Velocity(au)
C        -0.02967138     0.08590645    -0.03404611     0.00013256     0.00008864    -0.00013598
N        -0.02917154    -0.12958252     1.35208515     0.00019179    -0.00027720     0.00004860
H         0.72257571    -0.47901205    -0.58657892    -0.00055779    -0.00295653     0.00115860
H         0.68687535     0.52634530     1.93336217    -0.00174712     0.00416530    -0.00142542
H        -0.89900066    -0.10304920     1.81969232    -0.00123040    -0.00196371     0.00012186
H        -0.96444587     0.16296822    -0.65779679    -0.00070948     0.00355067     0.00108990
     6
  Step:    37            Position(A)                                  Velocity(au)
C        -0.02826184     0.08675535    -0.03570779     0.00012532     0.00006361    -0.00016499
N        -0.02673227    -0.13245379     1.35274666     0.00024775    -0.00024387     0.00007281
H         0.71656981    -0.51229780    -0.57396820    -0.00056636    -0.00310793     0.00114247
H         0.66480143     0.57131263     1.91568680    -0.00229097     0.00402834    -0.00179433
H        -0.91458338    -0.12593356     1.82255575    -0.00152610    -0.00222504     0.00035670
H        -0.97147667     0.20395501    -0.64498742    -0.00055278     0.00393550     0.00124937
     6
  Step:    38            Position(A)                                  Velocity(au)
C        -0.02692978     0.08729812    -0.03765550     0.00011870     0.00003237    -0.00018816
N        -0.02375144    -0.13491773     1.35367797     0.00028946    -0.00020311     0.00009769
H         0.71018547    -0.54700405    -0.56158520    -0.00062898    -0.00321165     0.00111759
H         0.63675610     0.61447295     1.89410788    -0.00283067     0.00383845    -0.00213223
H        -0.93238712    -0.15172611     1.82749579    -0.00162635    -0.00249127     0.00049715
H        -0.97653897     0.24906485    -0.63046451    -0.00035091     0.00430122     0.00140200
     6
  Step:    39            Position(A)                                  Velocity(au)
C        -0.02566502     0.08746352    -0.03982406     0.00011317    -0.00000552    -0.00020535
N        -0.02039978    -0.13689730     1.35488382     0.00031529    -0.00015576     0.00012237
H         0.70280976    -0.58255882    -0.54951869    -0.00074719    -0.00326014     0.00108425
H         0.60287510     0.65528603     1.86904024    -0.00335042     0.00360306    -0.00242605
H        -0.95016290    -0.18043475     1.83343196    -0.00152562    -0.00275396     0.00054232
H        -0.97915360     0.29805233    -0.61431604    -0.00010675     0.00464118     0.00154592
     6
  Step:    40            Position(A)                                  Velocity(au)
C        -0.02445391     0.08717740    -0.04214789     0.00010892    -0.00005012    -0.00021661
N        -0.01685384    -0.13832520     1.35635504     0.00032539    -0.00010268     0.00014535
H         0.69383915    -0.61832591    -0.53786515    -0.00091816    -0.00324943     0.00104111
H         0.56345914     0.69329673     1.84103337    -0.00383552     0.00333050    -0.00266391
H        -0.96576294    -0.21197430     1.83936014    -0.00124255    -0.00300560     0.00050388
H        -0.97887438     0.35059960    -0.59664457     0.00017666     0.00494870     0.00168027
     6
  Step:    41            Position(A)                                  Velocity(au)
C        -0.02328228     0.08636695    -0.04456292     0.00010588    -0.00010109    -0.00022221
N        -0.01328129    -0.13914373     1.35806362     0.00032085    -0.00004471     0.00016490
H         0.68272322    -0.65364634    -0.52674246    -0.00113542    -0.00317919     0.00098599
H         0.51896574     0.72814711     1.81076214    -0.00427188     0.00302991    -0.00283471
H        -0.97734613    -0.24618809     1.84445539    -0.00080907    -0.00324131     0.00039999
H        -0.97528884     0.40631456    -0.57755702     0.00049614     0.00521644     0.00180508
     6
  Step:    42            Position(A)                                  Velocity(au)
C        -0.02213768     0.08496582    -0.04700919     0.00010386    -0.00015759    -0.00022273
N        -0.00983474    -0.13930333     1.35996256     0.00030301     0.00001752     0.00017946
H         0.66899975    -0.68787683    -0.51629482    -0.00138953    -0.00305213     0.00091663
H         0.47000368     0.75958187     1.77901867    -0.00464521     0.00271020    -0.00292809
H        -0.98346292    -0.28288411     1.84811073    -0.00026156    -0.00345924     0.00025046
H        -0.96802032     0.46471930    -0.55715500     0.00084792     0.00543538     0.00192129
     6
  Step:    43            Position(A)                                  Velocity(au)
C        -0.02101005     0.08291943    -0.04943567     0.00010270    -0.00021822    -0.00021935
N        -0.00665240    -0.13876034     1.36198962     0.00027300     0.00008362     0.00018798
H         0.65232451    -0.72041747    -0.50668932    -0.00166814    -0.00287253     0.00083153
H         0.41734295     0.78743788     1.74670451    -0.00493873     0.00237769    -0.00293437
H        -0.98306836    -0.32186550     1.84993473     0.00036339    -0.00365963     0.00007387
H        -0.95673899     0.52522396    -0.53552523     0.00122605     0.00559266     0.00203057
     6
  Step:    44            Position(A)                                  Velocity(au)
C        -0.01989099     0.08019191    -0.05180789     0.00010223    -0.00028077    -0.00021408
N        -0.00386239    -0.13747396     1.36407487     0.00023149     0.00015330     0.00019031
H         0.63250609    -0.75071903    -0.49810345    -0.00195336    -0.00264330     0.00073050
H         0.36195945     0.81159837     1.71482362    -0.00512744     0.00203235    -0.00284454
H        -0.97551313    -0.36294557     1.84972687     0.00102759    -0.00384094    -0.00011450
H        -0.94119809     0.58706948    -0.51273248     0.00161824     0.00566718     0.00213490
     6