     6
  Step:     0            Position(A)                                  Velocity(au)
C        -0.04721105     0.00010297     0.03237565     0.00000453    -0.00001422    -0.00006379
N        -0.04512314    -0.04157224     1.28307551    -0.00000701    -0.00006236     0.00009055
H         0.93603904     0.00046069    -0.49424549     0.00037752     0.00003077    -0.00009302
H         0.84235879    -0.18128182     1.87573642    -0.00023023     0.00043411     0.00008801
H        -0.85789981    -0.07300005     1.83953466     0.00046156     0.00022058    -0.00018915
H        -0.94381880     0.16051842    -0.54484279    -0.00056535     0.00035056    -0.00030399
     6
  Step:     1            Position(A)                                  Velocity(au)
C        -0.04716132     0.00002097     0.03180774     0.00001339    -0.00001570    -0.00014362
N        -0.04509743    -0.04191646     1.28378165     0.00001661    -0.00006352     0.00016670
H         0.93813710     0.00065131    -0.49493962     0.00038690     0.00003893    -0.00015965
H         0.84074429    -0.17886579     1.87596345    -0.00035737     0.00044927    -0.00000345
H        -0.85596784    -0.07185654     1.83892799     0.00023909     0.00019774    -0.00002890
H        -0.94718385     0.16252871    -0.54681442    -0.00065896     0.00038380    -0.00041304
     6
  Step:     2            Position(A)                                  Velocity(au)
C        -0.04706460    -0.00006866     0.03080513     0.00002165    -0.00001703    -0.00022257
N        -0.04494149    -0.04226687     1.28489837     0.00004032    -0.00006467     0.00024063
H         0.94026992     0.00088645    -0.49599133     0.00039069     0.00004709    -0.00022402
H         0.83845080    -0.17636890     1.87569867    -0.00047747     0.00046391    -0.00009072
H        -0.85528529    -0.07083766     1.83921868     0.00000801     0.00017530     0.00013672
H        -0.95102476     0.16471536    -0.54935947    -0.00073942     0.00041532    -0.00051372
     6
  Step:     3            Position(A)                                  Velocity(au)
C        -0.04692465    -0.00016520     0.02937516     0.00002916    -0.00001824    -0.00029976
N        -0.04465679    -0.04262327     1.28641169     0.00006341    -0.00006573     0.00031172
H         0.94240721     0.00116601    -0.49738816     0.00038888     0.00005521    -0.00028614
H         0.83552568    -0.17379536     1.87497195    -0.00058727     0.00047739    -0.00017134
H        -0.85588032    -0.06994050     1.84042227    -0.00022498     0.00015342     0.00030278
H        -0.95526555     0.16706804    -0.55242929    -0.00080527     0.00044470    -0.00060506
     6
  Step:     4            Position(A)                                  Velocity(au)
C        -0.04674596    -0.00026792     0.02752980     0.00003578    -0.00001930    -0.00037427
N        -0.04424863    -0.04298507     1.28830435     0.00008516    -0.00006664     0.00037927
H         0.94451890     0.00148972    -0.49911778     0.00038150     0.00006325    -0.00034591
H         0.83203407    -0.17115275     1.87382656    -0.00068330     0.00048904    -0.00024274
H        -0.85774354    -0.06916139     1.84252695    -0.00045272     0.00013221     0.00046409
H        -0.95982335     0.16957434    -0.55597057    -0.00085523     0.00047151    -0.00068614
     6
  Step:     5            Position(A)                                  Velocity(au)
C        -0.04653369    -0.00037611     0.02528607     0.00004140    -0.00002023    -0.00044503
N        -0.04372639    -0.04335129     1.29055547     0.00010478    -0.00006730     0.00044250
H         0.94657536     0.00185707    -0.50116741     0.00036865     0.00007114    -0.00040314
H         0.82806027    -0.16845236     1.87231993    -0.00076183     0.00049811    -0.00030219
H        -0.86082652    -0.06849605     1.84549272    -0.00066786     0.00011179     0.00061539
H        -0.96460945     0.17221960    -0.55992579    -0.00088829     0.00049528    -0.00075613
     6
  Step:     6            Position(A)                                  Velocity(au)
C        -0.04629358    -0.00048905     0.02266647     0.00004589    -0.00002103    -0.00051096
N        -0.04310355    -0.04372051     1.29314002     0.00012153    -0.00006764     0.00050055
H         0.94854750     0.00226716    -0.50352332     0.00035045     0.00007880    -0.00045754
H         0.82370881    -0.16570936     1.87052418    -0.00081904     0.00050389    -0.00034696
H        -0.86504197    -0.06793974     1.84925197    -0.00086330     0.00009224     0.00075166
H        -0.96953060     0.17498679    -0.56423360    -0.00090371     0.00051554    -0.00081430
     6
  Step:     7            Position(A)                                  Velocity(au)
C        -0.04603187    -0.00060603     0.01969925     0.00004921    -0.00002168    -0.00057092
N        -0.04239762    -0.04409083     1.29602846     0.00013467    -0.00006756     0.00055251
H         0.95040718     0.00271862    -0.50617015     0.00032714     0.00008611    -0.00050871
H         0.81910488    -0.16294284     1.86852623    -0.00085123     0.00050567    -0.00037441
H        -0.87026586    -0.06748746     1.85371141    -0.00103253     0.00007363     0.00086842
H        -0.97449056     0.17785650    -0.56882936    -0.00090111     0.00053185    -0.00086007
     6
  Step:     8            Position(A)                                  Velocity(au)
C        -0.04575510    -0.00072633     0.01641857     0.00005128    -0.00002220    -0.00062382
N        -0.04162974    -0.04445990     1.29918648     0.00014362    -0.00006701     0.00059749
H         0.95212762     0.00320950    -0.50909041     0.00029907     0.00009296    -0.00055618
H         0.81439323    -0.16017552     1.86642675    -0.00085517     0.00050286    -0.00038226
H        -0.87634157    -0.06713398     1.85875562    -0.00117007     0.00005599     0.00096201
H        -0.97939201     0.18080711    -0.57364585    -0.00088054     0.00054382    -0.00089303
     6
  Step:     9            Position(A)                                  Velocity(au)
C        -0.04547002    -0.00084923     0.01286421     0.00005210    -0.00002257    -0.00066870
N        -0.04082405    -0.04482500     1.30257504     0.00014791    -0.00006590     0.00063468
H         0.95368405     0.00373719    -0.51226411     0.00026672     0.00009924    -0.00059948
H         0.80973500    -0.15743311     1.86433787    -0.00082844     0.00049505    -0.00036884
H        -0.88308611    -0.06687401     1.86425190    -0.00127186     0.00003935     0.00102984
H        -0.98413849     0.18381500    -0.57861413    -0.00084251     0.00055117    -0.00091305
     6
  Step:    10            Position(A)                                  Velocity(au)
C        -0.04518342    -0.00097402     0.00908085     0.00005169    -0.00002281    -0.00070479
N        -0.04000675    -0.04518309     1.30615096     0.00014729    -0.00006423     0.00066345
H         0.95505435     0.00429844    -0.51566859     0.00023068     0.00010481    -0.00063815
H         0.80530265    -0.15474323     1.86237937    -0.00076984     0.00048207    -0.00033334
H        -0.89029787    -0.06670222     1.87005622    -0.00133544     0.00002371     0.00107056
H        -0.98863703     0.18685515    -0.58366487    -0.00078805     0.00055374    -0.00092028
     6
  Step:    11            Position(A)                                  Velocity(au)
C        -0.04490187    -0.00109998     0.00511700     0.00005011    -0.00002292    -0.00073161
N        -0.03920502    -0.04553099     1.30986785     0.00014175    -0.00006197     0.00068341
H         0.95621971     0.00488933    -0.51927872     0.00019167     0.00010959    -0.00067181
H         0.80127281    -0.15213414     1.86067374    -0.00067969     0.00046400    -0.00027600
H        -0.89776545    -0.06661334     1.87601965    -0.00136014     0.00000908     0.00108408
H        -0.99280085     0.18990185    -0.58872999    -0.00071870     0.00055157    -0.00091524
     6
  Step:    12            Position(A)                                  Velocity(au)
C        -0.04463156    -0.00122644     0.00102351     0.00004747    -0.00002291    -0.00074898
N        -0.03844565    -0.04586554     1.31367748     0.00013151    -0.00005915     0.00069448
H         0.95716520     0.00550537    -0.52306735     0.00015047     0.00011348    -0.00070025
H         0.79781711    -0.14963310     1.85933972    -0.00056010     0.00044127    -0.00019831
H        -0.90527719    -0.06660222     1.88199527    -0.00134706    -0.00000458     0.00107156
H        -0.99655213     0.19292962    -0.59374449    -0.00063647     0.00054483    -0.00089880
     6
  Step:    13            Position(A)                                  Velocity(au)
C        -0.04437805    -0.00135279    -0.00314807     0.00004390    -0.00002279    -0.00075706
N        -0.03775374    -0.04618376     1.31753148     0.00011705    -0.00005584     0.00069691
H         0.95788017     0.00614162    -0.52700601     0.00010792     0.00011644    -0.00072338
H         0.79509203    -0.14726466     1.85848533    -0.00041494     0.00041457    -0.00010295
H        -0.91263038    -0.06666390     1.88784442    -0.00129887    -0.00001731     0.00103523
H        -0.99982430     0.19591415    -0.59864831    -0.00054369     0.00053392    -0.00087215
     6
  Step:    14            Position(A)                                  Velocity(au)
C        -0.04414617    -0.00147848    -0.00734741     0.00003956    -0.00002259    -0.00075636
N        -0.03715143    -0.04648300     1.32138326     0.00009902    -0.00005212     0.00069129
H         0.95835845     0.00679284    -0.53106591     0.00006482     0.00011844    -0.00074136
H         0.79322906    -0.14504910     1.85820135    -0.00024968     0.00038486     0.00000634
H        -0.91963899    -0.06679366     1.89344200    -0.00121950    -0.00002918     0.00097815
H        -1.00256378     0.19883325    -0.60338795    -0.00044291     0.00051936    -0.00083674
     6
  Step:    15            Position(A)                                  Velocity(au)
C        -0.04393982    -0.00160306    -0.01152719     0.00003462    -0.00002232    -0.00074767
N        -0.03665683    -0.04676115     1.32518979     0.00007823    -0.00004809     0.00067853
H         0.95859822     0.00745368    -0.53521895     0.00002192     0.00011949    -0.00075451
H         0.79232602    -0.14300113     1.85855554    -0.00007103     0.00035325     0.00012502
H        -0.92614022    -0.06698715     1.89868063    -0.00111378    -0.00004026     0.00090395
H        -1.00473096     0.20166774    -0.60791788    -0.00033673     0.00050182    -0.00079421
     6
  Step:    16            Position(A)                                  Velocity(au)
C        -0.04376196    -0.00172622    -0.01564456     0.00002927    -0.00002202    -0.00073202
N        -0.03628328    -0.04701667     1.32891311     0.00005559    -0.00004387     0.00065973
H         0.95860167     0.00811885    -0.53943888    -0.00002014     0.00011964    -0.00076335
H         0.79244082    -0.14112900     1.85958869     0.00011360     0.00032096     0.00024812
H        -0.93199893    -0.06724049     1.90347339    -0.00098706    -0.00005068     0.00081652
H        -1.00630054     0.20440213    -0.61220156    -0.00022765     0.00048207    -0.00074632
     6
  Step:    17            Position(A)                                  Velocity(au)
C        -0.04361454    -0.00184777    -0.01966237     0.00002367    -0.00002170    -0.00071056
N        -0.03603902    -0.04724867     1.33252159     0.00003201    -0.00003957     0.00063614
H         0.95837445     0.00878329    -0.54370227    -0.00006084     0.00011896    -0.00076854
H         0.79358846    -0.13943421     1.86131297     0.00029669     0.00028919     0.00037067
H        -0.93710971    -0.06755038     1.90775483    -0.00084472    -0.00006056     0.00071971
H        -1.00726092     0.20702515    -0.61621197    -0.00011796     0.00046090    -0.00069480
     6
  Step:    18            Position(A)                                  Velocity(au)
C        -0.04349857    -0.00196767    -0.02354991     0.00001800    -0.00002140    -0.00068449
N        -0.03592720    -0.04745691     1.33599051     0.00000833    -0.00003530     0.00060904
H         0.95792484     0.00944233    -0.54798927    -0.00009983     0.00011754    -0.00077085
H         0.79574159    -0.13791167     1.86371261     0.00047112     0.00025905     0.00048804
H        -0.94139681    -0.06791424     1.91148053    -0.00069183    -0.00007006     0.00061713
H        -1.00761286     0.20952991    -0.61993151    -0.00000961     0.00043909    -0.00064129
     6
  Step:    19            Position(A)                                  Velocity(au)
C        -0.04341414    -0.00208605    -0.02728291     0.00001401    -0.00001815    -0.00069694
N        -0.03594631    -0.04764171     1.33930212    -0.00001597    -0.00003264     0.00061217
H         0.95726302     0.01009189    -0.55228424    -0.00017244     0.00004830    -0.00074372
H         0.79883355    -0.13655019     1.86674638     0.00062591     0.00030174     0.00058921
H        -0.94481201    -0.06833033     1.91462542    -0.00051917    -0.00014264     0.00049842
H        -1.00736790     0.21191357    -0.62335156     0.00012077     0.00046247    -0.00054604
     6
  Step:    20            Position(A)                                  Velocity(au)
C        -0.04334259    -0.00216984    -0.03131181     0.00001194    -0.00001163    -0.00075494
N        -0.03610505    -0.04782042     1.34280833    -0.00004019    -0.00003208     0.00065235
H         0.95600431     0.00998020    -0.55627224    -0.00027883    -0.00006514    -0.00068294
H         0.80271250    -0.13455110     1.87027470     0.00075055     0.00039228     0.00066159
H        -0.94717891    -0.06950284     1.91703151    -0.00032586    -0.00025095     0.00036171
H        -1.00626783     0.21468048    -0.62601288     0.00027046     0.00050811    -0.00040965
     6
  Step:    21            Position(A)                                  Velocity(au)
C        -0.04328113    -0.00221556    -0.03569266     0.00001018    -0.00000488    -0.00081557
N        -0.03639407    -0.04799905     1.34656900    -0.00006247    -0.00003220     0.00069656
H         0.95415700     0.00936628    -0.55989194    -0.00038038    -0.00014785    -0.00061689
H         0.80719440    -0.13218036     1.87411621     0.00084580     0.00045215     0.00070878
H        -0.94844198    -0.07112575     1.91865475    -0.00012965    -0.00032301     0.00022315
H        -1.00435508     0.21757371    -0.62791490     0.00041118     0.00052422    -0.00027640
     6
  Step:    22            Position(A)                                  Velocity(au)
C        -0.04322920    -0.00222417    -0.04039875     0.00000850     0.00000163    -0.00087030
N        -0.03680113    -0.04817914     1.35056937    -0.00008234    -0.00003253     0.00073716
H         0.95176621     0.00833283    -0.56314555    -0.00047261    -0.00021837    -0.00055258
H         0.81213626    -0.12951334     1.87817189     0.00091545     0.00050136     0.00073909
H        -0.94862344    -0.07310173     1.91951780     0.00005964    -0.00038077     0.00009070
H        -1.00168650     0.22052131    -0.62909246     0.00054059     0.00053035    -0.00015054
     6
  Step:    23            Position(A)                                  Velocity(au)
C        -0.04318642    -0.00219738    -0.04539152     0.00000689     0.00000779    -0.00091768
N        -0.03731174    -0.04836155     1.35478416    -0.00009945    -0.00003298     0.00077283
H         0.94889013     0.00693268    -0.56605012    -0.00055346    -0.00028067    -0.00049223
H         0.81739642    -0.12659300     1.88235293     0.00095979     0.00054421     0.00075398
H        -0.94777736    -0.07536922     1.91966549     0.00023684    -0.00042904    -0.00003215
H        -0.99833052     0.22348410    -0.62959256     0.00065673     0.00053099    -0.00003399
     6
  Step:    24            Position(A)                                  Velocity(au)
C        -0.04315241    -0.00213730    -0.05062800     0.00000536     0.00001355    -0.00095721
N        -0.03790964    -0.04854681     1.35918401    -0.00011351    -0.00003352     0.00080308
H         0.94559691     0.00520430    -0.56863238    -0.00062131    -0.00033682    -0.00043737
H         0.82283492    -0.12344717     1.88657644     0.00097946     0.00058276     0.00075456
H        -0.94598347    -0.07788419     1.91915939     0.00039760    -0.00047038    -0.00014262
H        -0.99436599     0.22644015    -0.62947137     0.00075779     0.00052875     0.00007172
     6
  Step:    25            Position(A)                                  Velocity(au)
C        -0.04312668    -0.00204632    -0.05606371     0.00000394     0.00001885    -0.00098878
N        -0.03857726    -0.04873523     1.36373793    -0.00012433    -0.00003409     0.00082774
H         0.94196294     0.00317736    -0.57092652    -0.00067486    -0.00038818    -0.00038922
H         0.82831663    -0.12009563     1.89076572     0.00097563     0.00061823     0.00074206
H        -0.94334443    -0.08061362     1.91807537     0.00053804    -0.00050653    -0.00023834
H        -0.98988169     0.22937927    -0.62879298     0.00084208     0.00052550     0.00016526
     6
  Step:    26            Position(A)                                  Velocity(au)
C        -0.04310852    -0.00192705    -0.06165426     0.00000266     0.00002367    -0.00101251
N        -0.03929611    -0.04892693     1.36841448    -0.00013179    -0.00003466     0.00084682
H         0.93807128     0.00087557    -0.57297268    -0.00071305    -0.00043568    -0.00034872
H         0.83371455    -0.11655305     1.89485146     0.00095002     0.00065131     0.00071793
H        -0.93998351    -0.08353274     1.91650161     0.00065476    -0.00053879    -0.00031730
H        -0.98497563     0.23230023    -0.62762847     0.00090808     0.00052269     0.00024553
     6
  Step:    27            Position(A)                                  Velocity(au)
C        -0.04309704    -0.00178231    -0.06735640     0.00000156     0.00002797    -0.00102867
N        -0.04004716    -0.04912176     1.37318264    -0.00013583    -0.00003518     0.00086042
H         0.93401019    -0.00168191    -0.57481582    -0.00073508    -0.00048007    -0.00031662
H         0.83891234    -0.11283150     1.89877292     0.00090474     0.00068238     0.00068378
H        -0.93604176    -0.08662283     1.91453651     0.00074478    -0.00056817    -0.00037784
H        -0.97975372     0.23520896    -0.62605450     0.00095448     0.00052151     0.00031163
     6
  Step:    28            Position(A)                                  Velocity(au)
C        -0.04309110    -0.00161509    -0.07312866     0.00000070     0.00003172    -0.00103759
N        -0.04081120    -0.04931937     1.37801216    -0.00013643    -0.00003562     0.00086871
H         0.92987169    -0.00447943    -0.57650444    -0.00074044    -0.00052191    -0.00029343
H         0.84380660    -0.10894136     1.90247876     0.00084225     0.00071167     0.00064133
H        -0.93167577    -0.08987053     1.91228693     0.00080560    -0.00059558    -0.00041867
H        -0.97432877     0.23811747    -0.62415230     0.00098017     0.00052294     0.00036288
     6
  Step:    29            Position(A)                                  Velocity(au)
C        -0.04308926    -0.00142850    -0.07893161     0.00000012     0.00003490    -0.00103965
N        -0.04156913    -0.04951918     1.38287383    -0.00013365    -0.00003594     0.00087187
H         0.92574988    -0.00750426    -0.57808932    -0.00072893    -0.00056166    -0.00027943
H         0.84830838    -0.10489221     1.90592750     0.00076520     0.00073926     0.00059234
H        -0.92705461    -0.09326706     1.90986592     0.00083535    -0.00062177    -0.00043890
H        -0.96881900     0.24104285    -0.62200630     0.00098431     0.00052782     0.00039879
     6
  Step:    30            Position(A)                                  Velocity(au)
C        -0.04308979    -0.00122576    -0.08472817    -0.00000012     0.00003749    -0.00103527
N        -0.04230237    -0.04972038     1.38773967    -0.00012762    -0.00003610     0.00087012
H         0.92173896    -0.01074598    -0.57962212    -0.00070070    -0.00059973    -0.00027466
H         0.85234404    -0.10069333     1.90908758     0.00067639     0.00076516     0.00053859
H        -0.92235574    -0.09680765     1.90739005     0.00083291    -0.00064739    -0.00043819
H        -0.96334676     0.24400640    -0.61970297     0.00096633     0.00053679     0.00041915
     6
  Step:    31            Position(A)                                  Velocity(au)
C        -0.04309061    -0.00101012    -0.09048359     0.00000004     0.00003951    -0.00102489
N        -0.04299317    -0.04992197     1.39258297    -0.00011852    -0.00003606     0.00086371
H         0.91793115    -0.01419624    -0.58115404    -0.00065633    -0.00063641    -0.00027888
H         0.85585580    -0.09635419     1.91193727     0.00057866     0.00078935     0.00048180
H        -0.91776062    -0.10049092     1.90497644     0.00079813    -0.00067302    -0.00041675
H        -0.95803626     0.24703258    -0.61732928     0.00092620     0.00055036     0.00042406
     6
  Step:    32            Position(A)                                  Velocity(au)
C        -0.04308939    -0.00078488    -0.09616583     0.00000063     0.00004093    -0.00100903
N        -0.04362508    -0.05012275     1.39737860    -0.00010664    -0.00003578     0.00085297
H         0.91441439    -0.01784819    -0.58273441    -0.00059682    -0.00067194    -0.00029166
H         0.85880180    -0.09188427     1.91446434     0.00047487     0.00081179     0.00042364
H        -0.91344872    -0.10431851     1.90273918     0.00073198    -0.00069914    -0.00037550
H        -0.95301047     0.25014830    -0.61497054     0.00086444     0.00056886     0.00041400
     6
  Step:    33            Position(A)                                  Velocity(au)
C        -0.04308358    -0.00055332    -0.10174572     0.00000169     0.00004178    -0.00098823
N        -0.04418344    -0.05032137     1.40210327    -0.00009234    -0.00003526     0.00083825
H         0.91126988    -0.02169601    -0.58440934    -0.00052360    -0.00070658    -0.00031230
H         0.86115603    -0.08729346     1.91666568     0.00036789     0.00083250     0.00036573
H        -0.90959070    -0.10829427     1.90078531     0.00063666    -0.00072612    -0.00031607
H        -0.94838797     0.25338183    -0.61270845     0.00078216     0.00059243     0.00038982
     6
  Step:    34            Position(A)                                  Velocity(au)
C        -0.04307050    -0.00031854    -0.10719727     0.00000323     0.00004209    -0.00096312
N        -0.04465589    -0.05051639     1.40673586    -0.00007608    -0.00003449     0.00082000
H         0.90856958    -0.02573566    -0.58622061    -0.00043857    -0.00074061    -0.00033993
H         0.86290852    -0.08259124     1.91854694     0.00026052     0.00085155     0.00030958
H        -0.90634182    -0.11242409     1.89921090     0.00051558    -0.00075428    -0.00024078
H        -0.94427940     0.25676153    -0.61061909     0.00068118     0.00062100     0.00035273
     6
  Step:    35            Position(A)                                  Velocity(au)
C        -0.04304748    -0.00008339    -0.11249802     0.00000524     0.00004193    -0.00093434
N        -0.04503279    -0.05070639     1.41125775    -0.00005838    -0.00003346     0.00079868
H         0.90637371    -0.02996423    -0.58820431    -0.00034401    -0.00077422    -0.00037343
H         0.86406453    -0.07778672     1.92012189     0.00015542     0.00086905     0.00025658
H        -0.90383478    -0.11671504     1.89809720     0.00037336    -0.00078375    -0.00015259
H        -0.94078326     0.26031469    -0.60877051     0.00056402     0.00065425     0.00030438
     6
  Step:    36            Position(A)                                  Velocity(au)
C        -0.04301197     0.00014960    -0.11762913     0.00000768     0.00004135    -0.00090257
N        -0.04530767    -0.05088997     1.41565305    -0.00003983    -0.00003220     0.00077480
H         0.90472875    -0.03437976    -0.59038988    -0.00024252    -0.00080757    -0.00041154
H         0.86464379    -0.07288838     1.92141164     0.00005507     0.00088514     0.00020796
H        -0.90217330    -0.12117454     1.89750723     0.00021565    -0.00081453    -0.00005498
H        -0.93798214     0.26406620    -0.60722067     0.00043383     0.00069167     0.00024672
     6
  Step:    37            Position(A)                                  Velocity(au)
C        -0.04296169     0.00037827    -0.12257552     0.00001049     0.00004043    -0.00086846
N        -0.04547755    -0.05106588     1.41990868    -0.00002108    -0.00003073     0.00074887
H         0.90366589    -0.03898097    -0.59279934    -0.00013691    -0.00084075    -0.00045291
H         0.86467939    -0.06790383     1.92244388    -0.00003827     0.00090000     0.00016482
H        -0.90142702    -0.12580951     1.89748334     0.00004882    -0.00084646     0.00004823
H        -0.93593946     0.26803741    -0.60601578     0.00029423     0.00073251     0.00018194
     6
  Step:    38            Position(A)                                  Velocity(au)
C        -0.04289480     0.00060098    -0.12732577     0.00001359     0.00003926    -0.00083263
N        -0.04554301    -0.05123308     1.42401441    -0.00000275    -0.00002910     0.00072135
H         0.90320011    -0.04376698    -0.59544680    -0.00003009    -0.00087380    -0.00049610
H         0.86421652    -0.06283962     1.92325194    -0.00012256     0.00091381     0.00012808
H        -0.90162816    -0.13062550     1.89804577    -0.00012031    -0.00087920     0.00015308
H        -0.93469700     0.27224492    -0.60518921     0.00014925     0.00077583     0.00011241
     6
  Step:    39            Position(A)                                  Velocity(au)
C        -0.04280995     0.00081658    -0.13187183     0.00001687     0.00003793    -0.00079565
N        -0.04550824    -0.05139082     1.42796260     0.00001452    -0.00002737     0.00069270
H         0.90332992    -0.04873698    -0.59833828     0.00007501    -0.00090670    -0.00053965
H         0.86331104    -0.05770117     1.92387389    -0.00019604     0.00092677     0.00009849
H        -0.90277033    -0.13562577     1.89919246    -0.00028495    -0.00091228     0.00025566
H        -0.93427309     0.27669961    -0.60476075     0.00000314     0.00082054     0.00004054
     6
  Step:    40            Position(A)                                  Velocity(au)
C        -0.04270646     0.00102445    -0.13620880     0.00002021     0.00003654    -0.00075805
N        -0.04538085    -0.05153863     1.43174804     0.00003017    -0.00002558     0.00066330
H         0.90403761    -0.05388981    -0.60147178     0.00017558    -0.00093933    -0.00058217
H         0.86202784    -0.05249270     1.92435153    -0.00025725     0.00093909     0.00007663
H        -0.90480947    -0.14081060     1.90090005    -0.00043860    -0.00094510     0.00035234
H        -0.93466190     0.28140584    -0.60473655    -0.00013979     0.00086541    -0.00003125
     6
  Step:    41            Position(A)                                  Velocity(au)
C        -0.04258428     0.00122454    -0.14033459     0.00002351     0.00003519    -0.00072027
N        -0.04517146    -0.05167643     1.43536757     0.00004367    -0.00002382     0.00063348
H         0.90529008    -0.05922359    -0.60483758     0.00026897    -0.00097154    -0.00062232
H         0.86043908    -0.04721725     1.92472940    -0.00030508     0.00095097     0.00006290
H        -0.90766680    -0.14617673     1.90312595    -0.00057547    -0.00097699     0.00043994
H        -0.93583374     0.28636101    -0.60510963    -0.00027543     0.00090920    -0.00010072
     6
  Step:    42            Position(A)                                  Velocity(au)
C        -0.04244405     0.00141729    -0.14424948     0.00002663     0.00003396    -0.00068273
N        -0.04489330    -0.05180451     1.43881977     0.00005464    -0.00002213     0.00060353
H         0.90704023    -0.06473541    -0.60841891     0.00035284    -0.00100310    -0.00065890
H         0.85862217    -0.04187666     1.92505366    -0.00033875     0.00096263     0.00005747
H        -0.91123364    -0.15171708     1.90581127    -0.00069075    -0.00100728     0.00051586
H        -0.93773656     0.29155551    -0.60586094    -0.00039995     0.00095065    -0.00016584
     6
  Step:    43            Position(A)                                  Velocity(au)
C        -0.04228702     0.00160361    -0.14795579     0.00002948     0.00003292    -0.00064575
N        -0.04456152    -0.05192348     1.44210467     0.00006278    -0.00002059     0.00057368
H         0.90922880    -0.07042111    -0.61219280     0.00042521    -0.00103380    -0.00069090
H         0.85665766    -0.03647158     1.92537096    -0.00035793     0.00097426     0.00006034
H        -0.91537750    -0.15742085     1.90888440    -0.00078078    -0.00103532     0.00057816
H        -0.94029834     0.29697303    -0.60696087    -0.00051008     0.00098865    -0.00022488
     6
  Step:    44            Position(A)                                  Velocity(au)
C        -0.04211500     0.00178481    -0.15145763     0.00003197     0.00003215    -0.00060962
N        -0.04419257    -0.05203434     1.44522346     0.00006791    -0.00001925     0.00054413
H         0.91178659    -0.07627523    -0.61613109     0.00048450    -0.00106341    -0.00071751
H         0.85462676    -0.03100145     1.92572724    -0.00036274     0.00098611     0.00007126
H        -0.91994913    -0.16327383     1.91226492    -0.00084324    -0.00106057     0.00062562
H        -0.94343033     0.30259131    -0.60837111    -0.00060317     0.00102222    -0.00027647
     6