|===============================================================================
|
|  DFTB+ release 20.1
|
|  Copyright (C) 2006 - 2020  DFTB+ developers group
|
|===============================================================================
|
|  When publishing results obtained with DFTB+, please cite the following
|  reference:
|
|  * DFTB+, a software package for efficient approximate density functional
|    theory based atomistic simulations, J. Chem. Phys. 152, 124101 (2020).
|    [doi: 10.1063/1.5143190]
|
|  You should also cite additional publications crediting the parametrization
|  data you use. Please consult the documentation of the SK-files for the
|  references.
|
|===============================================================================

Reading input file 'dftb_in.hsd'
Parser version: 8

--------------------------------------------------------------------------------
Reading SK-files:
Done.


Processed input in HSD format written to 'dftb_pin.hsd'

Starting initialization...
--------------------------------------------------------------------------------
WARNING!
-> Excited state forces are not implemented yet for fractional occupations, kT=  0.3158E-02K
OpenMP threads:              1
Chosen random seed:          508097012
Mode:                        Static calculation
Self consistent charges:     Yes
SCC-tolerance:                 0.100000E-05
Max. scc iterations:                    100
Shell resolved Hubbard:      No
Spin polarisation:           No
Nr. of up electrons:             6.000000
Nr. of down electrons:           6.000000
Periodic boundaries:         No
Electronic solver:           Relatively robust
Mixer:                       Broyden mixer
Mixing parameter:                  0.200000
Maximal SCC-cycles:                     100
Nr. of chrg. vec. in memory:              0
Electronic temperature:        0.100000E-07 H      0.272114E-06 eV
Initial charges:             Set automatically (system chrg:   0.100E+01)
Included shells:             C:  s, p
                             N:  s, p
                             H:  s
Extra options:
                             Mulliken analysis
                             Force calculation
Force type                   original
                             Eigenvector printing

--------------------------------------------------------------------------------

***  Geometry step: 0

 iSCC Total electronic   Diff electronic      SCC error    
    1   -0.53990380E+01    0.00000000E+00    0.59856560E+00
    2   -0.54022360E+01   -0.31980481E-02    0.40903619E+00
    3   -0.54045177E+01   -0.22816787E-02    0.60246274E-01
    4   -0.54047629E+01   -0.24513113E-03    0.12451536E-01
    5   -0.54047602E+01    0.26158219E-05    0.50531156E-02
    6   -0.54047639E+01   -0.36495252E-05    0.14330311E-03
    7   -0.54047639E+01   -0.35771741E-09    0.21824867E-04
    8   -0.54047639E+01   -0.15956125E-10    0.26819428E-05
    9   -0.54047639E+01   -0.31619152E-12    0.85148714E-06
>> Charges saved for restart in charges.bin

Total Energy:                       -5.0718760491 H         -138.0128 eV
Extrapolated to 0:                  -5.2243381326 H         -142.1615 eV
Total Mermin free energy:           -5.0718760491 H         -138.0128 eV
Force related energy:               -5.2243381326 H         -142.1615 eV

--------------------------------------------------------------------------------
DFTB+ running times                          cpu [s]             wall clock [s]
--------------------------------------------------------------------------------
SCC                                    +     0.01  ( 53.1%)      0.03  ( 60.0%)
Post-SCC processing                    +     0.01  ( 38.8%)      0.01  ( 30.0%)
--------------------------------------------------------------------------------
Missing                                +     0.00  (  8.1%)      0.01  ( 10.0%)
Total                                  =     0.02  (100.0%)      0.05  (100.0%)
--------------------------------------------------------------------------------
