     6
  Step:   120            Position(A)                                  Velocity(au)
C        -0.03543038     0.05262204    -0.18144150    -0.00000553    -0.00001589     0.00034758
N        -0.04732204    -0.02218739     1.48213511     0.00000602     0.00018805    -0.00023978
H         0.82011483    -0.53110938    -0.61602916    -0.00072489    -0.00174441     0.00051995
H         0.88693338    -0.08435337     1.95042462    -0.00053354     0.00058602    -0.00030672
H        -0.86258338    -0.61310032     1.83684450     0.00093738    -0.00249243    -0.00102643
H        -0.97758132     0.24003508    -0.71341705     0.00030333     0.00122685     0.00000352
