|===============================================================================
|
|  DFTB+ release 20.1
|
|  Copyright (C) 2006 - 2020  DFTB+ developers group
|
|===============================================================================
|
|  When publishing results obtained with DFTB+, please cite the following
|  reference:
|
|  * DFTB+, a software package for efficient approximate density functional
|    theory based atomistic simulations, J. Chem. Phys. 152, 124101 (2020).
|    [doi: 10.1063/1.5143190]
|
|  You should also cite additional publications crediting the parametrization
|  data you use. Please consult the documentation of the SK-files for the
|  references.
|
|===============================================================================

Reading input file 'dftb_in.hsd'
Parser version: 8

--------------------------------------------------------------------------------
Reading SK-files:
Done.


Processed input in HSD format written to 'dftb_pin.hsd'

Starting initialization...
--------------------------------------------------------------------------------
OpenMP threads:              1
Chosen random seed:          507638604
Mode:                        Static calculation
Self consistent charges:     Yes
SCC-tolerance:                 0.100000E-05
Max. scc iterations:                   1000
Shell resolved Hubbard:      No
Spin polarisation:           No
Nr. of up electrons:             6.000000
Nr. of down electrons:           6.000000
Periodic boundaries:         No
Electronic solver:           Relatively robust
Maximal SCC-cycles:                    1000
Initial charges:             Set automatically (system chrg:   0.100E+01)
Included shells:             C:  s, p
                             N:  s, p
                             H:  s
Spin coupling constants:     C   1(s)-1(s):  -0.455900E-01
                             C   1(s)-2(p):  -0.293000E-01
                             C   2(p)-1(s):  -0.293000E-01
                             C   2(p)-2(p):  -0.275500E-01
                             N   1(s)-1(s):  -0.468700E-01
                             N   1(s)-2(p):  -0.317000E-01
                             N   2(p)-1(s):  -0.317000E-01
                             N   2(p)-2(p):  -0.307200E-01
                             H   1(s)-1(s):  -0.792500E-01
Range separated hybrid:      Yes
  Screening parameter omega:   0.300000E+00
  Range separated algorithm:   MatrixBased
Extra options:
                             Mulliken analysis
                             Force calculation
Force type                   original
                             Eigenvector printing


REKS Calcuation:             Yes
SSR(2,2) Calcuation:         Yes
Energy Functional:           (PPS+OSS)/2
Number of Core Orbitals:                  5
Number of Active Orbitals:                2
Number of Basis:                         12
Number of States:                         2
State-Averaging Weight:          0.500000
                                 0.500000
State of Interest:                        1
Initial Guess:               Diagonalize H0 matrix
Newton-Raphson for FON opt:  Yes
NR max. Iterations:                      50
Level Shifting:              Yes
Shift Value:                     0.300000
W Scale Factor:              C  =    3.000000
                             N  =    3.000000
                             H  =    3.000000
Transition Dipole:           No
Gradient of Microstate:      No
CP-REKS Solver:              Preconditioned Conjugate-Gradient
CG max. Iterations:                     100
CG Tolerance:                  0.100000E-07
Memory for A and Hxc:        Direct Updating Without Saving
Non-Adiabatic Coupling:      Yes

--------------------------------------------------------------------------------

***  Geometry step: 0

  iSCC       reks energy        Diff energy         x_a       SCC error   
    1       -6.2586772932       0.0000000000     0.999090    1.17959864
    2       -6.2733437271      -0.0146664339     0.999653    0.11092575
    3       -6.2783285961      -0.0049848689     0.999817    0.05363067
    4       -6.2812158398      -0.0028872437     0.999886    0.02741180
    5       -6.2832141689      -0.0019983291     0.999920    0.01423061
    6       -6.2846809922      -0.0014668233     0.999939    0.01184066
    7       -6.2857572767      -0.0010762845     0.999950    0.01070835
    8       -6.2865267063      -0.0007694296     0.999957    0.00974990
    9       -6.2870589568      -0.0005322505     0.999961    0.00854511
   10       -6.2874159438      -0.0003569870     0.999964    0.00729673
   11       -6.2876493883      -0.0002334445     0.999966    0.00611938
   12       -6.2877991685      -0.0001497802     0.999967    0.00506904
   13       -6.2878940110      -0.0000948425     0.999967    0.00416424
   14       -6.2879535712      -0.0000595602     0.999968    0.00340215
   15       -6.2879908095      -0.0000372383     0.999968    0.00276944
   16       -6.2880140563      -0.0000232468     0.999968    0.00224897
   17       -6.2880285766      -0.0000145203     0.999968    0.00182334
   18       -6.2880376640      -0.0000090874     0.999968    0.00147660
   19       -6.2880433673      -0.0000057033     0.999968    0.00119481
   20       -6.2880469585      -0.0000035911     0.999968    0.00096619
   21       -6.2880492274      -0.0000022690     0.999968    0.00078092
   22       -6.2880506658      -0.0000014384     0.999968    0.00063092
   23       -6.2880515806      -0.0000009148     0.999968    0.00050954
   24       -6.2880521641      -0.0000005835     0.999968    0.00041139
   25       -6.2880525372      -0.0000003731     0.999968    0.00033205
   26       -6.2880527764      -0.0000002391     0.999968    0.00026795
   27       -6.2880529299      -0.0000001536     0.999968    0.00021617
   28       -6.2880530287      -0.0000000988     0.999968    0.00017437
   29       -6.2880530924      -0.0000000636     0.999968    0.00014062
   30       -6.2880531334      -0.0000000410     0.999968    0.00011387
   31       -6.2880531599      -0.0000000265     0.999968    0.00009225
   32       -6.2880531770      -0.0000000171     0.999968    0.00007468
   33       -6.2880531881      -0.0000000111     0.999968    0.00006043
   34       -6.2880531953      -0.0000000072     0.999968    0.00004887
   35       -6.2880531999      -0.0000000046     0.999968    0.00003951
   36       -6.2880532029      -0.0000000030     0.999968    0.00003192
   37       -6.2880532048      -0.0000000019     0.999968    0.00002578
   38       -6.2880532061      -0.0000000013     0.999968    0.00002082
   39       -6.2880532069      -0.0000000008     0.999968    0.00001681
   40       -6.2880532074      -0.0000000005     0.999968    0.00001357
   41       -6.2880532078      -0.0000000003     0.999968    0.00001095
   42       -6.2880532080      -0.0000000002     0.999968    0.00000883
   43       -6.2880532081      -0.0000000001     0.999968    0.00000712
   44       -6.2880532082      -0.0000000001     0.999968    0.00000574
   45       -6.2880532083      -0.0000000001     0.999968    0.00000463
   46       -6.2880532083      -0.0000000000     0.999968    0.00000373
   47       -6.2880532084      -0.0000000000     0.999968    0.00000301
   48       -6.2880532084      -0.0000000000     0.999968    0.00000243
   49       -6.2880532084      -0.0000000000     0.999968    0.00000195
   50       -6.2880532084      -0.0000000000     0.999968    0.00000158
   51       -6.2880532084      -0.0000000000     0.999968    0.00000127
   52       -6.2880532084      -0.0000000000     0.999968    0.00000102
   53       -6.2880532084      -0.0000000000     0.999968    0.00000082
  
--------------------------------------------------
 Final SA-REKS(2,2) energy:      -6.28805321
  
 State     Energy      FON(1)    FON(2)   Spin
  PPS   -6.41719158   1.999935  0.000065  0.00
  OSS   -6.15891484   1.000000  1.000000  0.00
 Trip   -6.23788757   1.000000  1.000000  1.00
--------------------------------------------------

 Lagrangian Wab:  -0.00252560 -0.00252551

--------------------------------------------------
 SSR: 2SI-2SA-REKS(2,2) Hamiltonian matrix
               PPS           OSS
   PPS    -6.41719158   -0.00355136
   OSS    -0.00355136   -6.15891484
--------------------------------------------------

----------------------------------------------------------------
 SSR: 2SI-2SA-REKS(2,2) states
                    E_n       C_{PPS}    C_{OSS}
 SSR state  1   -6.41724040  -0.999906  -0.013746
 SSR state  2   -6.15886601   0.013746  -0.999906
----------------------------------------------------------------

 unrelaxed SSR FONs for S0:  1.999746  0.000254

Total Energy:                       -6.4172404028 H         -174.6220 eV
Extrapolated to 0:                  -6.4172404028 H         -174.6220 eV

----------------------------------------------------------------------------------
 Solving CP-REKS equation for  1 state vector...
----------------------------------------------------------------------------------
  CG solver: Constructing Y initial guess
  CG solver: Iteration    1    eps =    0.000044363971
  CG solver: Iteration    2    eps =    0.000007744080
  CG solver: Iteration    3    eps =    0.000000354353
  CG solver: Iteration    4    eps =    0.000000055472
  CG solver: Iteration    5    eps =    0.000000005658
  Convergence reached in CG solver after    5 iterations
  CG solver: Calculating converged R, Z, Q2 matrix
----------------------------------------------------------------------------------

----------------------------------------------------------------------------------
 Solving CP-REKS equation for SI between  1 and  2 state vectors...
----------------------------------------------------------------------------------
  CG solver: Constructing Y initial guess
  CG solver: Iteration    1    eps =    0.000728852413
  CG solver: Iteration    2    eps =    0.000664105901
  CG solver: Iteration    3    eps =    0.000164224968
  CG solver: Iteration    4    eps =    0.000002185274
  CG solver: Iteration    5    eps =    0.000000301237
  CG solver: Iteration    6    eps =    0.000000006690
  Convergence reached in CG solver after    6 iterations
  CG solver: Calculating converged R, Z, Q2 matrix
----------------------------------------------------------------------------------

--------------------------------------------------
 Gradient Information
--------------------------------------------------
           1 st state (SSR)
     0.00234099    -0.00076584    -0.01529728
    -0.00491308     0.00296325     0.01455860
    -0.00607830    -0.00444126     0.00058629
    -0.00504392    -0.00096792     0.00221653
     0.00811416    -0.00067189    -0.00172492
     0.00558016     0.00388366    -0.00033923

           2 st state (SSR)
    -0.00232266    -0.00619378     0.08397578
     0.00389304     0.00675611    -0.10226671
     0.00439343     0.01012532     0.01870728
     0.00484793    -0.00541953    -0.00761148
    -0.00674536     0.00628735    -0.00948468
    -0.00406638    -0.01155548     0.01667981
--------------------------------------------------
 Coupling Information
--------------------------------------------------
 between  1 and  2 states
--------------------------------------------------
 g vector - difference gradient
     0.00232457     0.00274052    -0.04975530
    -0.00440275    -0.00193352     0.05848296
    -0.00542764    -0.00731075    -0.00905921
    -0.00515010     0.00219693     0.00493475
     0.00764059    -0.00342613     0.00389764
     0.00501532     0.00773295    -0.00850085

 h vector - derivative coupling
     0.00029573    -0.00092828     0.00363627
    -0.00007173     0.00132252    -0.00175358
     0.00690137     0.00089851    -0.00017140
     0.00735619     0.00108049    -0.00068658
    -0.00756432    -0.00199283    -0.00059241
    -0.00691724    -0.00038040    -0.00043230

 G vector - GDV
     0.00233182     0.00271397    -0.04963653
    -0.00440306    -0.00189643     0.05841266
    -0.00523587    -0.00728329    -0.00906050
    -0.00494593     0.00222581     0.00491401
     0.00742976    -0.00347962     0.00387988
     0.00482327     0.00771957    -0.00850952

 H vector - DCV - non-adiabatic coupling
     0.00089683    -0.00388300     0.01936211
     0.00019090     0.00532240    -0.01300678
     0.02727814     0.00425406     0.00030072
     0.02900824     0.00394655    -0.00318133
    -0.03007844    -0.00734552    -0.00270666
    -0.02729566    -0.00229450    -0.00076806
--------------------------------------------------


--------------------------------------------------------------------------------
DFTB+ running times                          cpu [s]             wall clock [s]
--------------------------------------------------------------------------------
SCC                                    +     0.02  ( 70.4%)      0.03  ( 69.2%)
--------------------------------------------------------------------------------
Missing                                +     0.01  ( 29.6%)      0.01  ( 30.8%)
Total                                  =     0.04  (100.0%)      0.04  (100.0%)
--------------------------------------------------------------------------------
