 Fermi distribution function

Calculation with static geometry


********************************************************************************
 iSCC Total electronic   Diff electronic      SCC error    
   14   -0.52733776E+01   -0.71134210E-11    0.70578938E-08
********************************************************************************

 Total charge:     1.00000000

 Atomic gross charges (e)
 Atom           Charge
    1       0.33322158
    2      -0.22105750
    3       0.17110793
    4       0.25789221
    5       0.27800023
    6       0.18083554

Nr. of electrons (up):     12.00000000
Atom populations (up)
 Atom       Population
    1       3.66677842
    2       5.22105750
    3       0.82889207
    4       0.74210779
    5       0.72199977
    6       0.81916446

l-shell populations (up)
 Atom Sh.   l       Population
    1   1   0       1.39564249
    1   2   1       2.27113592
    2   1   0       1.51630488
    2   2   1       3.70475262
    3   1   0       0.82889207
    4   1   0       0.74210779
    5   1   0       0.72199977
    6   1   0       0.81916446

Orbital populations (up)
 Atom Sh.   l   m       Population  Label
    1   1   0   0       1.39564249  s
    1   2   1  -1       0.47257092  p_y
    1   2   1   0       0.88175008  p_z
    1   2   1   1       0.91681493  p_x
    2   1   0   0       1.51630488  s
    2   2   1  -1       1.35010606  p_y
    2   2   1   0       1.09947391  p_z
    2   2   1   1       1.25517265  p_x
    3   1   0   0       0.82889207  s
    4   1   0   0       0.74210779  s
    5   1   0   0       0.72199977  s
    6   1   0   0       0.81916446  s

Fermi level:                        -0.5119415640 H          -13.9306 eV
Band energy:                        -8.6686269800 H         -235.8853 eV
TS:                                  0.0000000000 H            0.0000 eV
Band free energy (E-TS):            -8.6686269800 H         -235.8853 eV
Extrapolated E(0K):                 -8.6686269800 H         -235.8853 eV
Input / Output electrons (q):     12.0000000000     12.0000000000

Energy H0:                          -5.4104609666 H         -147.2261 eV
Energy SCC:                          0.1370833824 H            3.7302 eV
Total Electronic energy:            -5.2733775842 H         -143.4959 eV
Repulsive energy:                    0.1369845993 H            3.7275 eV
Total energy:                       -5.1363929849 H         -139.7684 eV
Extrapolated to 0:                  -5.1363929849 H         -139.7684 eV
Total Mermin free energy:           -5.1363929849 H         -139.7684 eV
Force related energy:               -5.1363929849 H         -139.7684 eV

SCC converged

Excitation Energy:                   0.0832056157 H            2.2641 eV

Total Forces
    1      0.000534380236     -0.008465734154      0.056509407738
    2      0.000064535647     -0.007826996001     -0.060082629144
    3     -0.007257004526     -0.007641177845      0.000742446682
    4     -0.010932808150      0.015120460388     -0.000009903810
    5      0.012606407830     -0.006464261433      0.001513341804
    6      0.004984488963      0.015277709046      0.001327336730

Maximal derivative component:        0.600826E-01 au


