|===============================================================================
|
|  DFTB+ release 20.1
|
|  Copyright (C) 2006 - 2020  DFTB+ developers group
|
|===============================================================================
|
|  When publishing results obtained with DFTB+, please cite the following
|  reference:
|
|  * DFTB+, a software package for efficient approximate density functional
|    theory based atomistic simulations, J. Chem. Phys. 152, 124101 (2020).
|    [doi: 10.1063/1.5143190]
|
|  You should also cite additional publications crediting the parametrization
|  data you use. Please consult the documentation of the SK-files for the
|  references.
|
|===============================================================================

Reading input file 'dftb_in.hsd'
Parser version: 8

--------------------------------------------------------------------------------
Reading SK-files:
Done.


Processed input in HSD format written to 'dftb_pin.hsd'

Starting initialization...
--------------------------------------------------------------------------------
OpenMP threads:              1
Chosen random seed:          450091068
Mode:                        Static calculation
Self consistent charges:     Yes
SCC-tolerance:                 0.100000E-05
Max. scc iterations:                   1000
Shell resolved Hubbard:      No
Spin polarisation:           No
Nr. of up electrons:             6.000000
Nr. of down electrons:           6.000000
Periodic boundaries:         No
Electronic solver:           Relatively robust
Maximal SCC-cycles:                    1000
Initial charges:             Set automatically (system chrg:   0.100E+01)
Included shells:             C:  s, p
                             N:  s, p
                             H:  s
Spin coupling constants:     C   1(s)-1(s):  -0.455900E-01
                             C   1(s)-2(p):  -0.293000E-01
                             C   2(p)-1(s):  -0.293000E-01
                             C   2(p)-2(p):  -0.275500E-01
                             N   1(s)-1(s):  -0.468700E-01
                             N   1(s)-2(p):  -0.317000E-01
                             N   2(p)-1(s):  -0.317000E-01
                             N   2(p)-2(p):  -0.307200E-01
                             H   1(s)-1(s):  -0.792500E-01
Range separated hybrid:      Yes
  Screening parameter omega:   0.300000E+00
  Range separated algorithm:   MatrixBased
Extra options:
                             Mulliken analysis
                             Force calculation
Force type                   original
                             Eigenvector printing


REKS Calcuation:             Yes
SSR(2,2) Calcuation:         Yes
Energy Functional:           (PPS+OSS)/2
Number of Core Orbitals:                  5
Number of Active Orbitals:                2
Number of Basis:                         12
Number of States:                         2
State-Averaging Weight:          0.500000
                                 0.500000
State of Interest:                        1
Initial Guess:               Diagonalize H0 matrix
Newton-Raphson for FON opt:  Yes
NR max. Iterations:                      50
Level Shifting:              Yes
Shift Value:                     0.300000
W Scale Factor:              C  =    3.200000
                             N  =    3.200000
                             H  =    3.200000
Transition Dipole:           No
Gradient of Microstate:      No
CP-REKS Solver:              Preconditioned Conjugate-Gradient
CG max. Iterations:                     100
CG Tolerance:                  0.100000E-07
Memory for A and Hxc:        Direct Updating Without Saving
Non-Adiabatic Coupling:      Yes

--------------------------------------------------------------------------------

***  Geometry step: 0

  iSCC       reks energy        Diff energy         x_a       SCC error   
    1       -6.1350785655       0.0000000000     0.882156    1.18378026
    2       -6.1654167337      -0.0303381682     0.983843    0.18667413
    3       -6.1885658726      -0.0231491389     0.999983    0.09668777
    4       -6.1927509197      -0.0041850470     0.999999    0.04653948
    5       -6.1945772660      -0.0018263464     0.999999    0.01796756
    6       -6.1954994045      -0.0009221385     1.000000    0.02331873
    7       -6.1959779735      -0.0004785690     1.000000    0.00912687
    8       -6.1962250725      -0.0002470990     1.000000    0.01326145
    9       -6.1963563025      -0.0001312300     1.000000    0.00535351
   10       -6.1964265636      -0.0000702612     1.000000    0.00847428
   11       -6.1964650003      -0.0000384366     1.000000    0.00437430
   12       -6.1964863732      -0.0000213729     1.000000    0.00626850
   13       -6.1964978951      -0.0000115219     1.000000    0.00428881
   14       -6.1965043906      -0.0000064955     1.000000    0.00538573
   15       -6.1965070971      -0.0000027064     1.000000    0.00462987
   16       -6.1965084792      -0.0000013821     1.000000    0.00522874
   17       -6.1965076679       0.0000008113     1.000000    0.00521533
   18       -6.1965069346       0.0000007333     1.000000    0.00554900
   19       -6.1965041043       0.0000028303     1.000000    0.00598395
   20       -6.1965021863       0.0000019180     1.000000    0.00639744
   21       -6.1964975366       0.0000046498     1.000000    0.00692395
   22       -6.1964946855       0.0000028510     1.000000    0.00741899
   23       -6.1964878417       0.0000068439     1.000000    0.00804382
   24       -6.1964840890       0.0000037526     1.000000    0.00862947
   25       -6.1964742857       0.0000098033     1.000000    0.00936070
   26       -6.1964696301       0.0000046556     1.000000    0.01004703
   27       -6.1964557038       0.0000139263     1.000000    0.01089526
   28       -6.1964502358       0.0000054680     1.000000    0.01169125
   29       -6.1964305346       0.0000197012     1.000000    0.01266861
   30       -6.1964245787       0.0000059559     1.000000    0.01358093
   31       -6.1963968307       0.0000277480     1.000000    0.01469912
   32       -6.1963911461       0.0000056846     1.000000    0.01573061
   33       -6.1963523164       0.0000388298     0.999999    0.01699824
   34       -6.1963483822       0.0000039342     1.000000    0.01814579
   35       -6.1962945637       0.0000538185     0.999999    0.01956510
   36       -6.1962949452      -0.0000003815     1.000000    0.02081702
   37       -6.1962213590       0.0000735863     0.999999    0.02237975
   38       -6.1962301022      -0.0000087432     1.000000    0.02371312
   39       -6.1961313063       0.0000987958     0.999999    0.02539633
   40       -6.1961542196      -0.0000229132     1.000000    0.02677542
   41       -6.1960246246       0.0001295950     0.999999    0.02853833
   42       -6.1960692136      -0.0000445890     1.000000    0.02991525
   43       -6.1959039203       0.0001652933     0.999999    0.03169919
   44       -6.1959787195      -0.0000747992     1.000000    0.03301817
   45       -6.1957745343       0.0002041852     0.999998    0.03475141
   46       -6.1958877440      -0.0001132097     1.000000    0.03595683
   47       -6.1956440367       0.0002437073     0.999998    0.03756500
   48       -6.1958017519      -0.0001577152     1.000000    0.03861132
   49       -6.1955207705       0.0002809814     0.999998    0.04003088
   50       -6.1957254696      -0.0002046991     1.000000    0.04089108
   51       -6.1954119188       0.0003135508     0.999997    0.04208127
   52       -6.1956619114      -0.0002499926     1.000000    0.04275031
   53       -6.1953219548       0.0003399566     0.999997    0.04369862
   54       -6.1956120245      -0.0002900696     1.000000    0.04419096
   55       -6.1952521277       0.0003598968     0.999997    0.04491067
   56       -6.1955749853      -0.0003228576     1.000000    0.04525359
   57       -6.1952009989       0.0003739865     0.999997    0.04577552
   58       -6.1955488651      -0.0003478662     1.000000    0.04600137
   59       -6.1951655298       0.0003833352     0.999996    0.04636418
   60       -6.1955313180      -0.0003657882     1.000000    0.04650423
   61       -6.1951421563       0.0003891618     0.999996    0.04674651
   62       -6.1955200823      -0.0003779261     1.000000    0.04682734
   63       -6.1951275299       0.0003925524     0.999996    0.04698283
   64       -6.1955132460      -0.0003857161     1.000000    0.04702508
   65       -6.1951188849       0.0003943611     0.999996    0.04712076
   66       -6.1955093300      -0.0003904451     1.000000    0.04713933
   67       -6.1951141271       0.0003952029     0.999996    0.04719543
   68       -6.1955072629      -0.0003931358     1.000000    0.04720045
   69       -6.1951117709       0.0003954920     0.999996    0.04723138
   70       -6.1955063088      -0.0003945379     1.000000    0.04722938
   71       -6.1951108169       0.0003954919     0.999996    0.04724496
   72       -6.1955059851      -0.0003951682     1.000000    0.04723989
   73       -6.1951106244       0.0003953607     0.999996    0.04724656
   74       -6.1955059895      -0.0003953651     1.000000    0.04724066
   75       -6.1951108022       0.0003951873     0.999996    0.04724248
   76       -6.1955061418      -0.0003953396     1.000000    0.04723692
   77       -6.1951111241       0.0003950177     0.999996    0.04723635
   78       -6.1955063410      -0.0003952169     1.000000    0.04723161
   79       -6.1951114691       0.0003948719     0.999996    0.04723008
   80       -6.1955065353      -0.0003950662     1.000000    0.04722630
   81       -6.1951117792       0.0003947561     0.999996    0.04722454
   82       -6.1955067018      -0.0003949226     1.000000    0.04722167
   83       -6.1951120328       0.0003946690     0.999996    0.04722006
   84       -6.1955068339      -0.0003948011     1.000000    0.04721796
   85       -6.1951122275       0.0003946063     0.999996    0.04721664
   86       -6.1955069330      -0.0003947055     1.000000    0.04721514
   87       -6.1951123701       0.0003945629     0.999996    0.04721414
   88       -6.1955070042      -0.0003946341     1.000000    0.04721311
   89       -6.1951124702       0.0003945339     0.999996    0.04721238
   90       -6.1955070534      -0.0003945831     1.000000    0.04721169
   91       -6.1951125381       0.0003945153     0.999996    0.04721119
   92       -6.1955070862      -0.0003945480     1.000000    0.04721073
   93       -6.1951125824       0.0003945038     0.999996    0.04721041
   94       -6.1955071072      -0.0003945248     1.000000    0.04721011
   95       -6.1951126102       0.0003944970     0.999996    0.04720991
   96       -6.1955071201      -0.0003945099     1.000000    0.04720973
   97       -6.1951126268       0.0003944932     0.999996    0.04720961
   98       -6.1955071276      -0.0003945008     1.000000    0.04720950
   99       -6.1951126362       0.0003944914     0.999996    0.04720944
  100       -6.1955071317      -0.0003944955     1.000000    0.04720937
  101       -6.1951126411       0.0003944906     0.999996    0.04720934
  102       -6.1955071337      -0.0003944926     1.000000    0.04720931
  103       -6.1951126433       0.0003944904     0.999996    0.04720930
  104       -6.1955071345      -0.0003944912     1.000000    0.04720928
  105       -6.1951126439       0.0003944906     0.999996    0.04720928
  106       -6.1955071346      -0.0003944907     1.000000    0.04720927
  107       -6.1951126438       0.0003944908     0.999996    0.04720928
  108       -6.1955071344      -0.0003944906     1.000000    0.04720927
  109       -6.1951126433       0.0003944911     0.999996    0.04720928
  110       -6.1955071341      -0.0003944908     1.000000    0.04720928
  111       -6.1951126428       0.0003944913     0.999996    0.04720929
  112       -6.1955071338      -0.0003944910     1.000000    0.04720929
  113       -6.1951126422       0.0003944915     0.999996    0.04720929
  114       -6.1955071335      -0.0003944912     1.000000    0.04720929
  115       -6.1951126418       0.0003944917     0.999996    0.04720930
  116       -6.1955071332      -0.0003944914     1.000000    0.04720930
  117       -6.1951126414       0.0003944918     0.999996    0.04720930
  118       -6.1955071330      -0.0003944916     1.000000    0.04720931
  119       -6.1951126411       0.0003944919     0.999996    0.04720931
  120       -6.1955071329      -0.0003944917     1.000000    0.04720931
  121       -6.1951126409       0.0003944919     0.999996    0.04720931
  122       -6.1955071328      -0.0003944918     1.000000    0.04720931
  123       -6.1951126408       0.0003944920     0.999996    0.04720931
  124       -6.1955071327      -0.0003944919     1.000000    0.04720931
  125       -6.1951126407       0.0003944920     0.999996    0.04720931
  126       -6.1955071327      -0.0003944920     1.000000    0.04720931
  127       -6.1951126406       0.0003944920     0.999996    0.04720932
  128       -6.1955071326      -0.0003944920     1.000000    0.04720932
  129       -6.1951126406       0.0003944920     0.999996    0.04720932
  130       -6.1955071326      -0.0003944920     1.000000    0.04720932
  131       -6.1951126406       0.0003944920     0.999996    0.04720932
  132       -6.1955071326      -0.0003944920     1.000000    0.04720932
  133       -6.1951126405       0.0003944920     0.999996    0.04720932
  134       -6.1955071326      -0.0003944920     1.000000    0.04720932
  135       -6.1951126405       0.0003944920     0.999996    0.04720932
  136       -6.1955071326      -0.0003944920     1.000000    0.04720932
  137       -6.1951126405       0.0003944920     0.999996    0.04720932
  138       -6.1955071326      -0.0003944920     1.000000    0.04720932
  139       -6.1951126405       0.0003944920     0.999996    0.04720932
  140       -6.1955071326      -0.0003944920     1.000000    0.04720932
  141       -6.1951126405       0.0003944920     0.999996    0.04720932
  142       -6.1955071326      -0.0003944920     1.000000    0.04720932
  143       -6.1951126405       0.0003944920     0.999996    0.04720932
  144       -6.1955071326      -0.0003944920     1.000000    0.04720932
  145       -6.1951126405       0.0003944920     0.999996    0.04720932
  146       -6.1955071326      -0.0003944920     1.000000    0.04720932
  147       -6.1951126405       0.0003944920     0.999996    0.04720932
  148       -6.1955071326      -0.0003944920     1.000000    0.04720932
  149       -6.1951126405       0.0003944920     0.999996    0.04720932
  150       -6.1955071326      -0.0003944920     1.000000    0.04720932
  151       -6.1951126405       0.0003944920     0.999996    0.04720932
  152       -6.1955071326      -0.0003944920     1.000000    0.04720932
  153       -6.1951126405       0.0003944920     0.999996    0.04720932
  154       -6.1955071326      -0.0003944920     1.000000    0.04720932
  155       -6.1951126405       0.0003944920     0.999996    0.04720932
  156       -6.1955071326      -0.0003944920     1.000000    0.04720932
  157       -6.1951126405       0.0003944920     0.999996    0.04720932
  158       -6.1955071326      -0.0003944920     1.000000    0.04720932
  159       -6.1951126405       0.0003944920     0.999996    0.04720932
  160       -6.1955071326      -0.0003944920     1.000000    0.04720932
  161       -6.1951126405       0.0003944920     0.999996    0.04720932
  162       -6.1955071326      -0.0003944920     1.000000    0.04720932
  163       -6.1951126405       0.0003944920     0.999996    0.04720932
  164       -6.1955071326      -0.0003944920     1.000000    0.04720932
  165       -6.1951126405       0.0003944920     0.999996    0.04720932
  166       -6.1955071326      -0.0003944920     1.000000    0.04720932
  167       -6.1951126405       0.0003944920     0.999996    0.04720932
  168       -6.1955071326      -0.0003944920     1.000000    0.04720932
  169       -6.1951126405       0.0003944920     0.999996    0.04720932
  170       -6.1955071326      -0.0003944920     1.000000    0.04720932
  171       -6.1951126405       0.0003944920     0.999996    0.04720932
  172       -6.1955071326      -0.0003944920     1.000000    0.04720932
  173       -6.1951126405       0.0003944920     0.999996    0.04720932
  174       -6.1955071326      -0.0003944920     1.000000    0.04720932
  175       -6.1951126405       0.0003944920     0.999996    0.04720932
  176       -6.1955071326      -0.0003944920     1.000000    0.04720932
  177       -6.1951126405       0.0003944920     0.999996    0.04720932
  178       -6.1955071326      -0.0003944920     1.000000    0.04720932
  179       -6.1951126405       0.0003944920     0.999996    0.04720932
  180       -6.1955071326      -0.0003944920     1.000000    0.04720932
  181       -6.1951126405       0.0003944920     0.999996    0.04720932
  182       -6.1955071326      -0.0003944920     1.000000    0.04720932
  183       -6.1951126405       0.0003944920     0.999996    0.04720932
  184       -6.1955071326      -0.0003944920     1.000000    0.04720932
  185       -6.1951126405       0.0003944920     0.999996    0.04720932
  186       -6.1955071326      -0.0003944920     1.000000    0.04720932
  187       -6.1951126405       0.0003944920     0.999996    0.04720932
  188       -6.1955071326      -0.0003944920     1.000000    0.04720932
  189       -6.1951126405       0.0003944920     0.999996    0.04720932
  190       -6.1955071326      -0.0003944920     1.000000    0.04720932
  191       -6.1951126405       0.0003944920     0.999996    0.04720932
  192       -6.1955071326      -0.0003944920     1.000000    0.04720932
  193       -6.1951126405       0.0003944920     0.999996    0.04720932
  194       -6.1955071326      -0.0003944920     1.000000    0.04720932
  195       -6.1951126405       0.0003944920     0.999996    0.04720932
  196       -6.1955071326      -0.0003944920     1.000000    0.04720932
  197       -6.1951126405       0.0003944920     0.999996    0.04720932
  198       -6.1955071326      -0.0003944920     1.000000    0.04720932
  199       -6.1951126405       0.0003944920     0.999996    0.04720932
  200       -6.1955071326      -0.0003944920     1.000000    0.04720932
  201       -6.1951126405       0.0003944920     0.999996    0.04720932
  202       -6.1955071326      -0.0003944920     1.000000    0.04720932
  203       -6.1951126405       0.0003944920     0.999996    0.04720932
  204       -6.1955071326      -0.0003944920     1.000000    0.04720932
  205       -6.1951126405       0.0003944920     0.999996    0.04720932
  206       -6.1955071326      -0.0003944920     1.000000    0.04720932
  207       -6.1951126405       0.0003944920     0.999996    0.04720932
  208       -6.1955071326      -0.0003944920     1.000000    0.04720932
  209       -6.1951126405       0.0003944920     0.999996    0.04720932
  210       -6.1955071326      -0.0003944920     1.000000    0.04720932
  211       -6.1951126405       0.0003944920     0.999996    0.04720932
  212       -6.1955071326      -0.0003944920     1.000000    0.04720932
  213       -6.1951126405       0.0003944920     0.999996    0.04720932
  214       -6.1955071326      -0.0003944920     1.000000    0.04720932
  215       -6.1951126405       0.0003944920     0.999996    0.04720932
  216       -6.1955071326      -0.0003944920     1.000000    0.04720932
  217       -6.1951126405       0.0003944920     0.999996    0.04720932
  218       -6.1955071326      -0.0003944920     1.000000    0.04720932
  219       -6.1951126405       0.0003944920     0.999996    0.04720932
  220       -6.1955071326      -0.0003944920     1.000000    0.04720932
  221       -6.1951126405       0.0003944920     0.999996    0.04720932
  222       -6.1955071326      -0.0003944920     1.000000    0.04720932
  223       -6.1951126405       0.0003944920     0.999996    0.04720932
  224       -6.1955071326      -0.0003944920     1.000000    0.04720932
  225       -6.1951126405       0.0003944920     0.999996    0.04720932
  226       -6.1955071326      -0.0003944920     1.000000    0.04720932
  227       -6.1951126405       0.0003944920     0.999996    0.04720932
  228       -6.1955071326      -0.0003944920     1.000000    0.04720932
  229       -6.1951126405       0.0003944920     0.999996    0.04720932
  230       -6.1955071326      -0.0003944920     1.000000    0.04720932
  231       -6.1951126405       0.0003944920     0.999996    0.04720932
  232       -6.1955071326      -0.0003944920     1.000000    0.04720932
  233       -6.1951126405       0.0003944920     0.999996    0.04720932
  234       -6.1955071326      -0.0003944920     1.000000    0.04720932
  235       -6.1951126405       0.0003944920     0.999996    0.04720932
  236       -6.1955071326      -0.0003944920     1.000000    0.04720932
  237       -6.1951126405       0.0003944920     0.999996    0.04720932
  238       -6.1955071326      -0.0003944920     1.000000    0.04720932
  239       -6.1951126405       0.0003944920     0.999996    0.04720932
  240       -6.1955071326      -0.0003944920     1.000000    0.04720932
  241       -6.1951126405       0.0003944920     0.999996    0.04720932
  242       -6.1955071326      -0.0003944920     1.000000    0.04720932
  243       -6.1951126405       0.0003944920     0.999996    0.04720932
  244       -6.1955071326      -0.0003944920     1.000000    0.04720932
  245       -6.1951126405       0.0003944920     0.999996    0.04720932
  246       -6.1955071326      -0.0003944920     1.000000    0.04720932
  247       -6.1951126405       0.0003944920     0.999996    0.04720932
  248       -6.1955071326      -0.0003944920     1.000000    0.04720932
  249       -6.1951126405       0.0003944920     0.999996    0.04720932
  250       -6.1955071326      -0.0003944920     1.000000    0.04720932
  251       -6.1951126405       0.0003944920     0.999996    0.04720932
  252       -6.1955071326      -0.0003944920     1.000000    0.04720932
  253       -6.1951126405       0.0003944920     0.999996    0.04720932
  254       -6.1955071326      -0.0003944920     1.000000    0.04720932
  255       -6.1951126405       0.0003944920     0.999996    0.04720932
  256       -6.1955071326      -0.0003944920     1.000000    0.04720932
  257       -6.1951126405       0.0003944920     0.999996    0.04720932
  258       -6.1955071326      -0.0003944920     1.000000    0.04720932
  259       -6.1951126405       0.0003944920     0.999996    0.04720932
  260       -6.1955071326      -0.0003944920     1.000000    0.04720932
  261       -6.1951126405       0.0003944920     0.999996    0.04720932
  262       -6.1955071326      -0.0003944920     1.000000    0.04720932
  263       -6.1951126405       0.0003944920     0.999996    0.04720932
  264       -6.1955071326      -0.0003944920     1.000000    0.04720932
  265       -6.1951126405       0.0003944920     0.999996    0.04720932
  266       -6.1955071326      -0.0003944920     1.000000    0.04720932
  267       -6.1951126405       0.0003944920     0.999996    0.04720932
  268       -6.1955071326      -0.0003944920     1.000000    0.04720932
  269       -6.1951126405       0.0003944920     0.999996    0.04720932
  270       -6.1955071326      -0.0003944920     1.000000    0.04720932
  271       -6.1951126405       0.0003944920     0.999996    0.04720932
  272       -6.1955071326      -0.0003944920     1.000000    0.04720932
  273       -6.1951126405       0.0003944920     0.999996    0.04720932
  274       -6.1955071326      -0.0003944920     1.000000    0.04720932
  275       -6.1951126405       0.0003944920     0.999996    0.04720932
  276       -6.1955071326      -0.0003944920     1.000000    0.04720932
  277       -6.1951126405       0.0003944920     0.999996    0.04720932
  278       -6.1955071326      -0.0003944920     1.000000    0.04720932
  279       -6.1951126405       0.0003944920     0.999996    0.04720932
  280       -6.1955071326      -0.0003944920     1.000000    0.04720932
  281       -6.1951126405       0.0003944920     0.999996    0.04720932
  282       -6.1955071326      -0.0003944920     1.000000    0.04720932
  283       -6.1951126405       0.0003944920     0.999996    0.04720932
  284       -6.1955071326      -0.0003944920     1.000000    0.04720932
  285       -6.1951126405       0.0003944920     0.999996    0.04720932
  286       -6.1955071326      -0.0003944920     1.000000    0.04720932
  287       -6.1951126405       0.0003944920     0.999996    0.04720932
  288       -6.1955071326      -0.0003944920     1.000000    0.04720932
  289       -6.1951126405       0.0003944920     0.999996    0.04720932
  290       -6.1955071326      -0.0003944920     1.000000    0.04720932
  291       -6.1951126405       0.0003944920     0.999996    0.04720932
  292       -6.1955071326      -0.0003944920     1.000000    0.04720932
  293       -6.1951126405       0.0003944920     0.999996    0.04720932
  294       -6.1955071326      -0.0003944920     1.000000    0.04720932
  295       -6.1951126405       0.0003944920     0.999996    0.04720932
  296       -6.1955071326      -0.0003944920     1.000000    0.04720932
  297       -6.1951126405       0.0003944920     0.999996    0.04720932
  298       -6.1955071326      -0.0003944920     1.000000    0.04720932
  299       -6.1951126405       0.0003944920     0.999996    0.04720932
  300       -6.1955071326      -0.0003944920     1.000000    0.04720932
  301       -6.1951126405       0.0003944920     0.999996    0.04720932
  302       -6.1955071326      -0.0003944920     1.000000    0.04720932
  303       -6.1951126405       0.0003944920     0.999996    0.04720932
  304       -6.1955071326      -0.0003944920     1.000000    0.04720932
  305       -6.1951126405       0.0003944920     0.999996    0.04720932
  306       -6.1955071326      -0.0003944920     1.000000    0.04720932
  307       -6.1951126405       0.0003944920     0.999996    0.04720932
  308       -6.1955071326      -0.0003944920     1.000000    0.04720932
  309       -6.1951126405       0.0003944920     0.999996    0.04720932
  310       -6.1955071326      -0.0003944920     1.000000    0.04720932
  311       -6.1951126405       0.0003944920     0.999996    0.04720932
  312       -6.1955071326      -0.0003944920     1.000000    0.04720932
  313       -6.1951126405       0.0003944920     0.999996    0.04720932
  314       -6.1955071326      -0.0003944920     1.000000    0.04720932
  315       -6.1951126405       0.0003944920     0.999996    0.04720932
  316       -6.1955071326      -0.0003944920     1.000000    0.04720932
  317       -6.1951126405       0.0003944920     0.999996    0.04720932
  318       -6.1955071326      -0.0003944920     1.000000    0.04720932
  319       -6.1951126405       0.0003944920     0.999996    0.04720932
  320       -6.1955071326      -0.0003944920     1.000000    0.04720932
  321       -6.1951126405       0.0003944920     0.999996    0.04720932
  322       -6.1955071326      -0.0003944920     1.000000    0.04720932
  323       -6.1951126405       0.0003944920     0.999996    0.04720932
  324       -6.1955071326      -0.0003944920     1.000000    0.04720932
  325       -6.1951126405       0.0003944920     0.999996    0.04720932
  326       -6.1955071326      -0.0003944920     1.000000    0.04720932
  327       -6.1951126405       0.0003944920     0.999996    0.04720932
  328       -6.1955071326      -0.0003944920     1.000000    0.04720932
  329       -6.1951126405       0.0003944920     0.999996    0.04720932
  330       -6.1955071326      -0.0003944920     1.000000    0.04720932
  331       -6.1951126405       0.0003944920     0.999996    0.04720932
  332       -6.1955071326      -0.0003944920     1.000000    0.04720932
  333       -6.1951126405       0.0003944920     0.999996    0.04720932
  334       -6.1955071326      -0.0003944920     1.000000    0.04720932
  335       -6.1951126405       0.0003944920     0.999996    0.04720932
  336       -6.1955071326      -0.0003944920     1.000000    0.04720932
  337       -6.1951126405       0.0003944920     0.999996    0.04720932
  338       -6.1955071326      -0.0003944920     1.000000    0.04720932
  339       -6.1951126405       0.0003944920     0.999996    0.04720932
  340       -6.1955071326      -0.0003944920     1.000000    0.04720932
  341       -6.1951126405       0.0003944920     0.999996    0.04720932
  342       -6.1955071326      -0.0003944920     1.000000    0.04720932
  343       -6.1951126405       0.0003944920     0.999996    0.04720932
  344       -6.1955071326      -0.0003944920     1.000000    0.04720932
  345       -6.1951126405       0.0003944920     0.999996    0.04720932
  346       -6.1955071326      -0.0003944920     1.000000    0.04720932
  347       -6.1951126405       0.0003944920     0.999996    0.04720932
  348       -6.1955071326      -0.0003944920     1.000000    0.04720932
  349       -6.1951126405       0.0003944920     0.999996    0.04720932
  350       -6.1955071326      -0.0003944920     1.000000    0.04720932
  351       -6.1951126405       0.0003944920     0.999996    0.04720932
  352       -6.1955071326      -0.0003944920     1.000000    0.04720932
  353       -6.1951126405       0.0003944920     0.999996    0.04720932
  354       -6.1955071326      -0.0003944920     1.000000    0.04720932
  355       -6.1951126405       0.0003944920     0.999996    0.04720932
  356       -6.1955071326      -0.0003944920     1.000000    0.04720932
  357       -6.1951126405       0.0003944920     0.999996    0.04720932
  358       -6.1955071326      -0.0003944920     1.000000    0.04720932
  359       -6.1951126405       0.0003944920     0.999996    0.04720932
  360       -6.1955071326      -0.0003944920     1.000000    0.04720932
  361       -6.1951126405       0.0003944920     0.999996    0.04720932
  362       -6.1955071326      -0.0003944920     1.000000    0.04720932
  363       -6.1951126405       0.0003944920     0.999996    0.04720932
  364       -6.1955071326      -0.0003944920     1.000000    0.04720932
  365       -6.1951126405       0.0003944920     0.999996    0.04720932
  366       -6.1955071326      -0.0003944920     1.000000    0.04720932
  367       -6.1951126405       0.0003944920     0.999996    0.04720932
  368       -6.1955071326      -0.0003944920     1.000000    0.04720932
  369       -6.1951126405       0.0003944920     0.999996    0.04720932
  370       -6.1955071326      -0.0003944920     1.000000    0.04720932
  371       -6.1951126405       0.0003944920     0.999996    0.04720932
  372       -6.1955071326      -0.0003944920     1.000000    0.04720932
  373       -6.1951126405       0.0003944920     0.999996    0.04720932
  374       -6.1955071326      -0.0003944920     1.000000    0.04720932
  375       -6.1951126405       0.0003944920     0.999996    0.04720932
  376       -6.1955071326      -0.0003944920     1.000000    0.04720932
  377       -6.1951126405       0.0003944920     0.999996    0.04720932
  378       -6.1955071326      -0.0003944920     1.000000    0.04720932
  379       -6.1951126405       0.0003944920     0.999996    0.04720932
  380       -6.1955071326      -0.0003944920     1.000000    0.04720932
  381       -6.1951126405       0.0003944920     0.999996    0.04720932
  382       -6.1955071326      -0.0003944920     1.000000    0.04720932
  383       -6.1951126405       0.0003944920     0.999996    0.04720932
  384       -6.1955071326      -0.0003944920     1.000000    0.04720932
  385       -6.1951126405       0.0003944920     0.999996    0.04720932
  386       -6.1955071326      -0.0003944920     1.000000    0.04720932
  387       -6.1951126405       0.0003944920     0.999996    0.04720932
  388       -6.1955071326      -0.0003944920     1.000000    0.04720932
  389       -6.1951126405       0.0003944920     0.999996    0.04720932
  390       -6.1955071326      -0.0003944920     1.000000    0.04720932
  391       -6.1951126405       0.0003944920     0.999996    0.04720932
  392       -6.1955071326      -0.0003944920     1.000000    0.04720932
  393       -6.1951126405       0.0003944920     0.999996    0.04720932
  394       -6.1955071326      -0.0003944920     1.000000    0.04720932
  395       -6.1951126405       0.0003944920     0.999996    0.04720932
  396       -6.1955071326      -0.0003944920     1.000000    0.04720932
  397       -6.1951126405       0.0003944920     0.999996    0.04720932
  398       -6.1955071326      -0.0003944920     1.000000    0.04720932
  399       -6.1951126405       0.0003944920     0.999996    0.04720932
  400       -6.1955071326      -0.0003944920     1.000000    0.04720932
  401       -6.1951126405       0.0003944920     0.999996    0.04720932
  402       -6.1955071326      -0.0003944920     1.000000    0.04720932
  403       -6.1951126405       0.0003944920     0.999996    0.04720932
  404       -6.1955071326      -0.0003944920     1.000000    0.04720932
  405       -6.1951126405       0.0003944920     0.999996    0.04720932
  406       -6.1955071326      -0.0003944920     1.000000    0.04720932
  407       -6.1951126405       0.0003944920     0.999996    0.04720932
  408       -6.1955071326      -0.0003944920     1.000000    0.04720932
  409       -6.1951126405       0.0003944920     0.999996    0.04720932
  410       -6.1955071326      -0.0003944920     1.000000    0.04720932
  411       -6.1951126405       0.0003944920     0.999996    0.04720932
  412       -6.1955071326      -0.0003944920     1.000000    0.04720932
  413       -6.1951126405       0.0003944920     0.999996    0.04720932
  414       -6.1955071326      -0.0003944920     1.000000    0.04720932
  415       -6.1951126405       0.0003944920     0.999996    0.04720932
  416       -6.1955071326      -0.0003944920     1.000000    0.04720932
  417       -6.1951126405       0.0003944920     0.999996    0.04720932
  418       -6.1955071326      -0.0003944920     1.000000    0.04720932
  419       -6.1951126405       0.0003944920     0.999996    0.04720932
  420       -6.1955071326      -0.0003944920     1.000000    0.04720932
  421       -6.1951126405       0.0003944920     0.999996    0.04720932
  422       -6.1955071326      -0.0003944920     1.000000    0.04720932
  423       -6.1951126405       0.0003944920     0.999996    0.04720932
  424       -6.1955071326      -0.0003944920     1.000000    0.04720932
  425       -6.1951126405       0.0003944920     0.999996    0.04720932
  426       -6.1955071326      -0.0003944920     1.000000    0.04720932
  427       -6.1951126405       0.0003944920     0.999996    0.04720932
  428       -6.1955071326      -0.0003944920     1.000000    0.04720932
  429       -6.1951126405       0.0003944920     0.999996    0.04720932
  430       -6.1955071326      -0.0003944920     1.000000    0.04720932
  431       -6.1951126405       0.0003944920     0.999996    0.04720932
  432       -6.1955071326      -0.0003944920     1.000000    0.04720932
  433       -6.1951126405       0.0003944920     0.999996    0.04720932
  434       -6.1955071326      -0.0003944920     1.000000    0.04720932
  435       -6.1951126405       0.0003944920     0.999996    0.04720932
  436       -6.1955071326      -0.0003944920     1.000000    0.04720932
  437       -6.1951126405       0.0003944920     0.999996    0.04720932
  438       -6.1955071326      -0.0003944920     1.000000    0.04720932
  439       -6.1951126405       0.0003944920     0.999996    0.04720932
  440       -6.1955071326      -0.0003944920     1.000000    0.04720932
  441       -6.1951126405       0.0003944920     0.999996    0.04720932
  442       -6.1955071326      -0.0003944920     1.000000    0.04720932
  443       -6.1951126405       0.0003944920     0.999996    0.04720932
  444       -6.1955071326      -0.0003944920     1.000000    0.04720932
  445       -6.1951126405       0.0003944920     0.999996    0.04720932
  446       -6.1955071326      -0.0003944920     1.000000    0.04720932
  447       -6.1951126405       0.0003944920     0.999996    0.04720932
  448       -6.1955071326      -0.0003944920     1.000000    0.04720932
  449       -6.1951126405       0.0003944920     0.999996    0.04720932
  450       -6.1955071326      -0.0003944920     1.000000    0.04720932
  451       -6.1951126405       0.0003944920     0.999996    0.04720932
  452       -6.1955071326      -0.0003944920     1.000000    0.04720932
  453       -6.1951126405       0.0003944920     0.999996    0.04720932
  454       -6.1955071326      -0.0003944920     1.000000    0.04720932
  455       -6.1951126405       0.0003944920     0.999996    0.04720932
  456       -6.1955071326      -0.0003944920     1.000000    0.04720932
  457       -6.1951126405       0.0003944920     0.999996    0.04720932
  458       -6.1955071326      -0.0003944920     1.000000    0.04720932
  459       -6.1951126405       0.0003944920     0.999996    0.04720932
  460       -6.1955071326      -0.0003944920     1.000000    0.04720932
  461       -6.1951126405       0.0003944920     0.999996    0.04720932
  462       -6.1955071326      -0.0003944920     1.000000    0.04720932
  463       -6.1951126405       0.0003944920     0.999996    0.04720932
  464       -6.1955071326      -0.0003944920     1.000000    0.04720932
  465       -6.1951126405       0.0003944920     0.999996    0.04720932
  466       -6.1955071326      -0.0003944920     1.000000    0.04720932
  467       -6.1951126405       0.0003944920     0.999996    0.04720932
  468       -6.1955071326      -0.0003944920     1.000000    0.04720932
  469       -6.1951126405       0.0003944920     0.999996    0.04720932
  470       -6.1955071326      -0.0003944920     1.000000    0.04720932
  471       -6.1951126405       0.0003944920     0.999996    0.04720932
  472       -6.1955071326      -0.0003944920     1.000000    0.04720932
  473       -6.1951126405       0.0003944920     0.999996    0.04720932
  474       -6.1955071326      -0.0003944920     1.000000    0.04720932
  475       -6.1951126405       0.0003944920     0.999996    0.04720932
  476       -6.1955071326      -0.0003944920     1.000000    0.04720932
  477       -6.1951126405       0.0003944920     0.999996    0.04720932
  478       -6.1955071326      -0.0003944920     1.000000    0.04720932
  479       -6.1951126405       0.0003944920     0.999996    0.04720932
  480       -6.1955071326      -0.0003944920     1.000000    0.04720932
  481       -6.1951126405       0.0003944920     0.999996    0.04720932
  482       -6.1955071326      -0.0003944920     1.000000    0.04720932
  483       -6.1951126405       0.0003944920     0.999996    0.04720932
  484       -6.1955071326      -0.0003944920     1.000000    0.04720932
  485       -6.1951126405       0.0003944920     0.999996    0.04720932
  486       -6.1955071326      -0.0003944920     1.000000    0.04720932
  487       -6.1951126405       0.0003944920     0.999996    0.04720932
  488       -6.1955071326      -0.0003944920     1.000000    0.04720932
  489       -6.1951126405       0.0003944920     0.999996    0.04720932
  490       -6.1955071326      -0.0003944920     1.000000    0.04720932
  491       -6.1951126405       0.0003944920     0.999996    0.04720932
  492       -6.1955071326      -0.0003944920     1.000000    0.04720932
  493       -6.1951126405       0.0003944920     0.999996    0.04720932
  494       -6.1955071326      -0.0003944920     1.000000    0.04720932
  495       -6.1951126405       0.0003944920     0.999996    0.04720932
  496       -6.1955071326      -0.0003944920     1.000000    0.04720932
  497       -6.1951126405       0.0003944920     0.999996    0.04720932
  498       -6.1955071326      -0.0003944920     1.000000    0.04720932
  499       -6.1951126405       0.0003944920     0.999996    0.04720932
  500       -6.1955071326      -0.0003944920     1.000000    0.04720932
  501       -6.1951126405       0.0003944920     0.999996    0.04720932
  502       -6.1955071326      -0.0003944920     1.000000    0.04720932
  503       -6.1951126405       0.0003944920     0.999996    0.04720932
  504       -6.1955071326      -0.0003944920     1.000000    0.04720932
  505       -6.1951126405       0.0003944920     0.999996    0.04720932
  506       -6.1955071326      -0.0003944920     1.000000    0.04720932
  507       -6.1951126405       0.0003944920     0.999996    0.04720932
  508       -6.1955071326      -0.0003944920     1.000000    0.04720932
  509       -6.1951126405       0.0003944920     0.999996    0.04720932
  510       -6.1955071326      -0.0003944920     1.000000    0.04720932
  511       -6.1951126405       0.0003944920     0.999996    0.04720932
  512       -6.1955071326      -0.0003944920     1.000000    0.04720932
  513       -6.1951126405       0.0003944920     0.999996    0.04720932
  514       -6.1955071326      -0.0003944920     1.000000    0.04720932
  515       -6.1951126405       0.0003944920     0.999996    0.04720932
  516       -6.1955071326      -0.0003944920     1.000000    0.04720932
  517       -6.1951126405       0.0003944920     0.999996    0.04720932
  518       -6.1955071326      -0.0003944920     1.000000    0.04720932
  519       -6.1951126405       0.0003944920     0.999996    0.04720932
  520       -6.1955071326      -0.0003944920     1.000000    0.04720932
  521       -6.1951126405       0.0003944920     0.999996    0.04720932
  522       -6.1955071326      -0.0003944920     1.000000    0.04720932
  523       -6.1951126405       0.0003944920     0.999996    0.04720932
  524       -6.1955071326      -0.0003944920     1.000000    0.04720932
  525       -6.1951126405       0.0003944920     0.999996    0.04720932
  526       -6.1955071326      -0.0003944920     1.000000    0.04720932
  527       -6.1951126405       0.0003944920     0.999996    0.04720932
  528       -6.1955071326      -0.0003944920     1.000000    0.04720932
  529       -6.1951126405       0.0003944920     0.999996    0.04720932
  530       -6.1955071326      -0.0003944920     1.000000    0.04720932
  531       -6.1951126405       0.0003944920     0.999996    0.04720932
  532       -6.1955071326      -0.0003944920     1.000000    0.04720932
  533       -6.1951126405       0.0003944920     0.999996    0.04720932
  534       -6.1955071326      -0.0003944920     1.000000    0.04720932
  535       -6.1951126405       0.0003944920     0.999996    0.04720932
  536       -6.1955071326      -0.0003944920     1.000000    0.04720932
  537       -6.1951126405       0.0003944920     0.999996    0.04720932
  538       -6.1955071326      -0.0003944920     1.000000    0.04720932
  539       -6.1951126405       0.0003944920     0.999996    0.04720932
  540       -6.1955071326      -0.0003944920     1.000000    0.04720932
  541       -6.1951126405       0.0003944920     0.999996    0.04720932
  542       -6.1955071326      -0.0003944920     1.000000    0.04720932
  543       -6.1951126405       0.0003944920     0.999996    0.04720932
  544       -6.1955071326      -0.0003944920     1.000000    0.04720932
  545       -6.1951126405       0.0003944920     0.999996    0.04720932
  546       -6.1955071326      -0.0003944920     1.000000    0.04720932
  547       -6.1951126405       0.0003944920     0.999996    0.04720932
  548       -6.1955071326      -0.0003944920     1.000000    0.04720932
  549       -6.1951126405       0.0003944920     0.999996    0.04720932
  550       -6.1955071326      -0.0003944920     1.000000    0.04720932
  551       -6.1951126405       0.0003944920     0.999996    0.04720932
  552       -6.1955071326      -0.0003944920     1.000000    0.04720932
  553       -6.1951126405       0.0003944920     0.999996    0.04720932
  554       -6.1955071326      -0.0003944920     1.000000    0.04720932
  555       -6.1951126405       0.0003944920     0.999996    0.04720932
  556       -6.1955071326      -0.0003944920     1.000000    0.04720932
  557       -6.1951126405       0.0003944920     0.999996    0.04720932
  558       -6.1955071326      -0.0003944920     1.000000    0.04720932
  559       -6.1951126405       0.0003944920     0.999996    0.04720932
  560       -6.1955071326      -0.0003944920     1.000000    0.04720932
  561       -6.1951126405       0.0003944920     0.999996    0.04720932
  562       -6.1955071326      -0.0003944920     1.000000    0.04720932
  563       -6.1951126405       0.0003944920     0.999996    0.04720932
  564       -6.1955071326      -0.0003944920     1.000000    0.04720932
  565       -6.1951126405       0.0003944920     0.999996    0.04720932
  566       -6.1955071326      -0.0003944920     1.000000    0.04720932
  567       -6.1951126405       0.0003944920     0.999996    0.04720932
  568       -6.1955071326      -0.0003944920     1.000000    0.04720932
  569       -6.1951126405       0.0003944920     0.999996    0.04720932
  570       -6.1955071326      -0.0003944920     1.000000    0.04720932
  571       -6.1951126405       0.0003944920     0.999996    0.04720932
  572       -6.1955071326      -0.0003944920     1.000000    0.04720932
  573       -6.1951126405       0.0003944920     0.999996    0.04720932
  574       -6.1955071326      -0.0003944920     1.000000    0.04720932
  575       -6.1951126405       0.0003944920     0.999996    0.04720932
  576       -6.1955071326      -0.0003944920     1.000000    0.04720932
  577       -6.1951126405       0.0003944920     0.999996    0.04720932
  578       -6.1955071326      -0.0003944920     1.000000    0.04720932
  579       -6.1951126405       0.0003944920     0.999996    0.04720932
  580       -6.1955071326      -0.0003944920     1.000000    0.04720932
  581       -6.1951126405       0.0003944920     0.999996    0.04720932
  582       -6.1955071326      -0.0003944920     1.000000    0.04720932
  583       -6.1951126405       0.0003944920     0.999996    0.04720932
  584       -6.1955071326      -0.0003944920     1.000000    0.04720932
  585       -6.1951126405       0.0003944920     0.999996    0.04720932
  586       -6.1955071326      -0.0003944920     1.000000    0.04720932
  587       -6.1951126405       0.0003944920     0.999996    0.04720932
  588       -6.1955071326      -0.0003944920     1.000000    0.04720932
  589       -6.1951126405       0.0003944920     0.999996    0.04720932
  590       -6.1955071326      -0.0003944920     1.000000    0.04720932
  591       -6.1951126405       0.0003944920     0.999996    0.04720932
  592       -6.1955071326      -0.0003944920     1.000000    0.04720932
  593       -6.1951126405       0.0003944920     0.999996    0.04720932
  594       -6.1955071326      -0.0003944920     1.000000    0.04720932
  595       -6.1951126405       0.0003944920     0.999996    0.04720932
  596       -6.1955071326      -0.0003944920     1.000000    0.04720932
  597       -6.1951126405       0.0003944920     0.999996    0.04720932
  598       -6.1955071326      -0.0003944920     1.000000    0.04720932
  599       -6.1951126405       0.0003944920     0.999996    0.04720932
  600       -6.1955071326      -0.0003944920     1.000000    0.04720932
  601       -6.1951126405       0.0003944920     0.999996    0.04720932
  602       -6.1955071326      -0.0003944920     1.000000    0.04720932
  603       -6.1951126405       0.0003944920     0.999996    0.04720932
  604       -6.1955071326      -0.0003944920     1.000000    0.04720932
  605       -6.1951126405       0.0003944920     0.999996    0.04720932
  606       -6.1955071326      -0.0003944920     1.000000    0.04720932
  607       -6.1951126405       0.0003944920     0.999996    0.04720932
  608       -6.1955071326      -0.0003944920     1.000000    0.04720932
  609       -6.1951126405       0.0003944920     0.999996    0.04720932
  610       -6.1955071326      -0.0003944920     1.000000    0.04720932
  611       -6.1951126405       0.0003944920     0.999996    0.04720932
  612       -6.1955071326      -0.0003944920     1.000000    0.04720932
  613       -6.1951126405       0.0003944920     0.999996    0.04720932
  614       -6.1955071326      -0.0003944920     1.000000    0.04720932
  615       -6.1951126405       0.0003944920     0.999996    0.04720932
  616       -6.1955071326      -0.0003944920     1.000000    0.04720932
  617       -6.1951126405       0.0003944920     0.999996    0.04720932
  618       -6.1955071326      -0.0003944920     1.000000    0.04720932
  619       -6.1951126405       0.0003944920     0.999996    0.04720932
  620       -6.1955071326      -0.0003944920     1.000000    0.04720932
  621       -6.1951126405       0.0003944920     0.999996    0.04720932
  622       -6.1955071326      -0.0003944920     1.000000    0.04720932
  623       -6.1951126405       0.0003944920     0.999996    0.04720932
  624       -6.1955071326      -0.0003944920     1.000000    0.04720932
  625       -6.1951126405       0.0003944920     0.999996    0.04720932
  626       -6.1955071326      -0.0003944920     1.000000    0.04720932
  627       -6.1951126405       0.0003944920     0.999996    0.04720932
  628       -6.1955071326      -0.0003944920     1.000000    0.04720932
  629       -6.1951126405       0.0003944920     0.999996    0.04720932
  630       -6.1955071326      -0.0003944920     1.000000    0.04720932
  631       -6.1951126405       0.0003944920     0.999996    0.04720932
  632       -6.1955071326      -0.0003944920     1.000000    0.04720932
  633       -6.1951126405       0.0003944920     0.999996    0.04720932
  634       -6.1955071326      -0.0003944920     1.000000    0.04720932
  635       -6.1951126405       0.0003944920     0.999996    0.04720932
  636       -6.1955071326      -0.0003944920     1.000000    0.04720932
  637       -6.1951126405       0.0003944920     0.999996    0.04720932
  638       -6.1955071326      -0.0003944920     1.000000    0.04720932
  639       -6.1951126405       0.0003944920     0.999996    0.04720932
  640       -6.1955071326      -0.0003944920     1.000000    0.04720932
  641       -6.1951126405       0.0003944920     0.999996    0.04720932
  642       -6.1955071326      -0.0003944920     1.000000    0.04720932
  643       -6.1951126405       0.0003944920     0.999996    0.04720932
  644       -6.1955071326      -0.0003944920     1.000000    0.04720932
  645       -6.1951126405       0.0003944920     0.999996    0.04720932
  646       -6.1955071326      -0.0003944920     1.000000    0.04720932
  647       -6.1951126405       0.0003944920     0.999996    0.04720932
  648       -6.1955071326      -0.0003944920     1.000000    0.04720932
  649       -6.1951126405       0.0003944920     0.999996    0.04720932
  650       -6.1955071326      -0.0003944920     1.000000    0.04720932
  651       -6.1951126405       0.0003944920     0.999996    0.04720932
  652       -6.1955071326      -0.0003944920     1.000000    0.04720932
  653       -6.1951126405       0.0003944920     0.999996    0.04720932
  654       -6.1955071326      -0.0003944920     1.000000    0.04720932
  655       -6.1951126405       0.0003944920     0.999996    0.04720932
  656       -6.1955071326      -0.0003944920     1.000000    0.04720932
  657       -6.1951126405       0.0003944920     0.999996    0.04720932
  658       -6.1955071326      -0.0003944920     1.000000    0.04720932
  659       -6.1951126405       0.0003944920     0.999996    0.04720932
  660       -6.1955071326      -0.0003944920     1.000000    0.04720932
  661       -6.1951126405       0.0003944920     0.999996    0.04720932
  662       -6.1955071326      -0.0003944920     1.000000    0.04720932
  663       -6.1951126405       0.0003944920     0.999996    0.04720932
  664       -6.1955071326      -0.0003944920     1.000000    0.04720932
  665       -6.1951126405       0.0003944920     0.999996    0.04720932
  666       -6.1955071326      -0.0003944920     1.000000    0.04720932
  667       -6.1951126405       0.0003944920     0.999996    0.04720932
  668       -6.1955071326      -0.0003944920     1.000000    0.04720932
  669       -6.1951126405       0.0003944920     0.999996    0.04720932
  670       -6.1955071326      -0.0003944920     1.000000    0.04720932
  671       -6.1951126405       0.0003944920     0.999996    0.04720932
  672       -6.1955071326      -0.0003944920     1.000000    0.04720932
  673       -6.1951126405       0.0003944920     0.999996    0.04720932
  674       -6.1955071326      -0.0003944920     1.000000    0.04720932
  675       -6.1951126405       0.0003944920     0.999996    0.04720932
  676       -6.1955071326      -0.0003944920     1.000000    0.04720932
  677       -6.1951126405       0.0003944920     0.999996    0.04720932
  678       -6.1955071326      -0.0003944920     1.000000    0.04720932
  679       -6.1951126405       0.0003944920     0.999996    0.04720932
  680       -6.1955071326      -0.0003944920     1.000000    0.04720932
  681       -6.1951126405       0.0003944920     0.999996    0.04720932
  682       -6.1955071326      -0.0003944920     1.000000    0.04720932
  683       -6.1951126405       0.0003944920     0.999996    0.04720932
  684       -6.1955071326      -0.0003944920     1.000000    0.04720932
  685       -6.1951126405       0.0003944920     0.999996    0.04720932
  686       -6.1955071326      -0.0003944920     1.000000    0.04720932
  687       -6.1951126405       0.0003944920     0.999996    0.04720932
  688       -6.1955071326      -0.0003944920     1.000000    0.04720932
  689       -6.1951126405       0.0003944920     0.999996    0.04720932
  690       -6.1955071326      -0.0003944920     1.000000    0.04720932
  691       -6.1951126405       0.0003944920     0.999996    0.04720932
  692       -6.1955071326      -0.0003944920     1.000000    0.04720932
  693       -6.1951126405       0.0003944920     0.999996    0.04720932
  694       -6.1955071326      -0.0003944920     1.000000    0.04720932
  695       -6.1951126405       0.0003944920     0.999996    0.04720932
  696       -6.1955071326      -0.0003944920     1.000000    0.04720932
  697       -6.1951126405       0.0003944920     0.999996    0.04720932
  698       -6.1955071326      -0.0003944920     1.000000    0.04720932
  699       -6.1951126405       0.0003944920     0.999996    0.04720932
  700       -6.1955071326      -0.0003944920     1.000000    0.04720932
  701       -6.1951126405       0.0003944920     0.999996    0.04720932
  702       -6.1955071326      -0.0003944920     1.000000    0.04720932
  703       -6.1951126405       0.0003944920     0.999996    0.04720932
  704       -6.1955071326      -0.0003944920     1.000000    0.04720932
  705       -6.1951126405       0.0003944920     0.999996    0.04720932
  706       -6.1955071326      -0.0003944920     1.000000    0.04720932
  707       -6.1951126405       0.0003944920     0.999996    0.04720932
  708       -6.1955071326      -0.0003944920     1.000000    0.04720932
  709       -6.1951126405       0.0003944920     0.999996    0.04720932
  710       -6.1955071326      -0.0003944920     1.000000    0.04720932
  711       -6.1951126405       0.0003944920     0.999996    0.04720932
  712       -6.1955071326      -0.0003944920     1.000000    0.04720932
  713       -6.1951126405       0.0003944920     0.999996    0.04720932
  714       -6.1955071326      -0.0003944920     1.000000    0.04720932
  715       -6.1951126405       0.0003944920     0.999996    0.04720932
  716       -6.1955071326      -0.0003944920     1.000000    0.04720932
  717       -6.1951126405       0.0003944920     0.999996    0.04720932
  718       -6.1955071326      -0.0003944920     1.000000    0.04720932
  719       -6.1951126405       0.0003944920     0.999996    0.04720932
  720       -6.1955071326      -0.0003944920     1.000000    0.04720932
  721       -6.1951126405       0.0003944920     0.999996    0.04720932
  722       -6.1955071326      -0.0003944920     1.000000    0.04720932
  723       -6.1951126405       0.0003944920     0.999996    0.04720932
  724       -6.1955071326      -0.0003944920     1.000000    0.04720932
  725       -6.1951126405       0.0003944920     0.999996    0.04720932
  726       -6.1955071326      -0.0003944920     1.000000    0.04720932
  727       -6.1951126405       0.0003944920     0.999996    0.04720932
  728       -6.1955071326      -0.0003944920     1.000000    0.04720932
  729       -6.1951126405       0.0003944920     0.999996    0.04720932
  730       -6.1955071326      -0.0003944920     1.000000    0.04720932
  731       -6.1951126405       0.0003944920     0.999996    0.04720932
  732       -6.1955071326      -0.0003944920     1.000000    0.04720932
  733       -6.1951126405       0.0003944920     0.999996    0.04720932
  734       -6.1955071326      -0.0003944920     1.000000    0.04720932
  735       -6.1951126405       0.0003944920     0.999996    0.04720932
  736       -6.1955071326      -0.0003944920     1.000000    0.04720932
  737       -6.1951126405       0.0003944920     0.999996    0.04720932
  738       -6.1955071326      -0.0003944920     1.000000    0.04720932
  739       -6.1951126405       0.0003944920     0.999996    0.04720932
  740       -6.1955071326      -0.0003944920     1.000000    0.04720932
  741       -6.1951126405       0.0003944920     0.999996    0.04720932
  742       -6.1955071326      -0.0003944920     1.000000    0.04720932
  743       -6.1951126405       0.0003944920     0.999996    0.04720932
  744       -6.1955071326      -0.0003944920     1.000000    0.04720932
  745       -6.1951126405       0.0003944920     0.999996    0.04720932
  746       -6.1955071326      -0.0003944920     1.000000    0.04720932
  747       -6.1951126405       0.0003944920     0.999996    0.04720932
  748       -6.1955071326      -0.0003944920     1.000000    0.04720932
  749       -6.1951126405       0.0003944920     0.999996    0.04720932
  750       -6.1955071326      -0.0003944920     1.000000    0.04720932
  751       -6.1951126405       0.0003944920     0.999996    0.04720932
  752       -6.1955071326      -0.0003944920     1.000000    0.04720932
  753       -6.1951126405       0.0003944920     0.999996    0.04720932
  754       -6.1955071326      -0.0003944920     1.000000    0.04720932
  755       -6.1951126405       0.0003944920     0.999996    0.04720932
  756       -6.1955071326      -0.0003944920     1.000000    0.04720932
  757       -6.1951126405       0.0003944920     0.999996    0.04720932
  758       -6.1955071326      -0.0003944920     1.000000    0.04720932
  759       -6.1951126405       0.0003944920     0.999996    0.04720932
  760       -6.1955071326      -0.0003944920     1.000000    0.04720932
  761       -6.1951126405       0.0003944920     0.999996    0.04720932
  762       -6.1955071326      -0.0003944920     1.000000    0.04720932
  763       -6.1951126405       0.0003944920     0.999996    0.04720932
  764       -6.1955071326      -0.0003944920     1.000000    0.04720932
  765       -6.1951126405       0.0003944920     0.999996    0.04720932
  766       -6.1955071326      -0.0003944920     1.000000    0.04720932
  767       -6.1951126405       0.0003944920     0.999996    0.04720932
  768       -6.1955071326      -0.0003944920     1.000000    0.04720932
  769       -6.1951126405       0.0003944920     0.999996    0.04720932
  770       -6.1955071326      -0.0003944920     1.000000    0.04720932
  771       -6.1951126405       0.0003944920     0.999996    0.04720932
  772       -6.1955071326      -0.0003944920     1.000000    0.04720932
  773       -6.1951126405       0.0003944920     0.999996    0.04720932
  774       -6.1955071326      -0.0003944920     1.000000    0.04720932
  775       -6.1951126405       0.0003944920     0.999996    0.04720932
  776       -6.1955071326      -0.0003944920     1.000000    0.04720932
  777       -6.1951126405       0.0003944920     0.999996    0.04720932
  778       -6.1955071326      -0.0003944920     1.000000    0.04720932
  779       -6.1951126405       0.0003944920     0.999996    0.04720932
  780       -6.1955071326      -0.0003944920     1.000000    0.04720932
  781       -6.1951126405       0.0003944920     0.999996    0.04720932
  782       -6.1955071326      -0.0003944920     1.000000    0.04720932
  783       -6.1951126405       0.0003944920     0.999996    0.04720932
  784       -6.1955071326      -0.0003944920     1.000000    0.04720932
  785       -6.1951126405       0.0003944920     0.999996    0.04720932
  786       -6.1955071326      -0.0003944920     1.000000    0.04720932
  787       -6.1951126405       0.0003944920     0.999996    0.04720932
  788       -6.1955071326      -0.0003944920     1.000000    0.04720932
  789       -6.1951126405       0.0003944920     0.999996    0.04720932
  790       -6.1955071326      -0.0003944920     1.000000    0.04720932
  791       -6.1951126405       0.0003944920     0.999996    0.04720932
  792       -6.1955071326      -0.0003944920     1.000000    0.04720932
  793       -6.1951126405       0.0003944920     0.999996    0.04720932
  794       -6.1955071326      -0.0003944920     1.000000    0.04720932
  795       -6.1951126405       0.0003944920     0.999996    0.04720932
  796       -6.1955071326      -0.0003944920     1.000000    0.04720932
  797       -6.1951126405       0.0003944920     0.999996    0.04720932
  798       -6.1955071326      -0.0003944920     1.000000    0.04720932
  799       -6.1951126405       0.0003944920     0.999996    0.04720932
  800       -6.1955071326      -0.0003944920     1.000000    0.04720932
  801       -6.1951126405       0.0003944920     0.999996    0.04720932
  802       -6.1955071326      -0.0003944920     1.000000    0.04720932
  803       -6.1951126405       0.0003944920     0.999996    0.04720932
  804       -6.1955071326      -0.0003944920     1.000000    0.04720932
  805       -6.1951126405       0.0003944920     0.999996    0.04720932
  806       -6.1955071326      -0.0003944920     1.000000    0.04720932
  807       -6.1951126405       0.0003944920     0.999996    0.04720932
  808       -6.1955071326      -0.0003944920     1.000000    0.04720932
  809       -6.1951126405       0.0003944920     0.999996    0.04720932
  810       -6.1955071326      -0.0003944920     1.000000    0.04720932
  811       -6.1951126405       0.0003944920     0.999996    0.04720932
  812       -6.1955071326      -0.0003944920     1.000000    0.04720932
  813       -6.1951126405       0.0003944920     0.999996    0.04720932
  814       -6.1955071326      -0.0003944920     1.000000    0.04720932
  815       -6.1951126405       0.0003944920     0.999996    0.04720932
  816       -6.1955071326      -0.0003944920     1.000000    0.04720932
  817       -6.1951126405       0.0003944920     0.999996    0.04720932
  818       -6.1955071326      -0.0003944920     1.000000    0.04720932
  819       -6.1951126405       0.0003944920     0.999996    0.04720932
  820       -6.1955071326      -0.0003944920     1.000000    0.04720932
  821       -6.1951126405       0.0003944920     0.999996    0.04720932
  822       -6.1955071326      -0.0003944920     1.000000    0.04720932
  823       -6.1951126405       0.0003944920     0.999996    0.04720932
  824       -6.1955071326      -0.0003944920     1.000000    0.04720932
  825       -6.1951126405       0.0003944920     0.999996    0.04720932
  826       -6.1955071326      -0.0003944920     1.000000    0.04720932
  827       -6.1951126405       0.0003944920     0.999996    0.04720932
  828       -6.1955071326      -0.0003944920     1.000000    0.04720932
  829       -6.1951126405       0.0003944920     0.999996    0.04720932
  830       -6.1955071326      -0.0003944920     1.000000    0.04720932
  831       -6.1951126405       0.0003944920     0.999996    0.04720932
  832       -6.1955071326      -0.0003944920     1.000000    0.04720932
  833       -6.1951126405       0.0003944920     0.999996    0.04720932
  834       -6.1955071326      -0.0003944920     1.000000    0.04720932
  835       -6.1951126405       0.0003944920     0.999996    0.04720932
  836       -6.1955071326      -0.0003944920     1.000000    0.04720932
  837       -6.1951126405       0.0003944920     0.999996    0.04720932
  838       -6.1955071326      -0.0003944920     1.000000    0.04720932
  839       -6.1951126405       0.0003944920     0.999996    0.04720932
  840       -6.1955071326      -0.0003944920     1.000000    0.04720932
  841       -6.1951126405       0.0003944920     0.999996    0.04720932
  842       -6.1955071326      -0.0003944920     1.000000    0.04720932
  843       -6.1951126405       0.0003944920     0.999996    0.04720932
  844       -6.1955071326      -0.0003944920     1.000000    0.04720932
  845       -6.1951126405       0.0003944920     0.999996    0.04720932
  846       -6.1955071326      -0.0003944920     1.000000    0.04720932
  847       -6.1951126405       0.0003944920     0.999996    0.04720932
  848       -6.1955071326      -0.0003944920     1.000000    0.04720932
  849       -6.1951126405       0.0003944920     0.999996    0.04720932
  850       -6.1955071326      -0.0003944920     1.000000    0.04720932
  851       -6.1951126405       0.0003944920     0.999996    0.04720932
  852       -6.1955071326      -0.0003944920     1.000000    0.04720932
  853       -6.1951126405       0.0003944920     0.999996    0.04720932
  854       -6.1955071326      -0.0003944920     1.000000    0.04720932
  855       -6.1951126405       0.0003944920     0.999996    0.04720932
  856       -6.1955071326      -0.0003944920     1.000000    0.04720932
  857       -6.1951126405       0.0003944920     0.999996    0.04720932
  858       -6.1955071326      -0.0003944920     1.000000    0.04720932
  859       -6.1951126405       0.0003944920     0.999996    0.04720932
  860       -6.1955071326      -0.0003944920     1.000000    0.04720932
  861       -6.1951126405       0.0003944920     0.999996    0.04720932
  862       -6.1955071326      -0.0003944920     1.000000    0.04720932
  863       -6.1951126405       0.0003944920     0.999996    0.04720932
  864       -6.1955071326      -0.0003944920     1.000000    0.04720932
  865       -6.1951126405       0.0003944920     0.999996    0.04720932
  866       -6.1955071326      -0.0003944920     1.000000    0.04720932
  867       -6.1951126405       0.0003944920     0.999996    0.04720932
  868       -6.1955071326      -0.0003944920     1.000000    0.04720932
  869       -6.1951126405       0.0003944920     0.999996    0.04720932
  870       -6.1955071326      -0.0003944920     1.000000    0.04720932
  871       -6.1951126405       0.0003944920     0.999996    0.04720932
  872       -6.1955071326      -0.0003944920     1.000000    0.04720932
  873       -6.1951126405       0.0003944920     0.999996    0.04720932
  874       -6.1955071326      -0.0003944920     1.000000    0.04720932
  875       -6.1951126405       0.0003944920     0.999996    0.04720932
  876       -6.1955071326      -0.0003944920     1.000000    0.04720932
  877       -6.1951126405       0.0003944920     0.999996    0.04720932
  878       -6.1955071326      -0.0003944920     1.000000    0.04720932
  879       -6.1951126405       0.0003944920     0.999996    0.04720932
  880       -6.1955071326      -0.0003944920     1.000000    0.04720932
  881       -6.1951126405       0.0003944920     0.999996    0.04720932
  882       -6.1955071326      -0.0003944920     1.000000    0.04720932
  883       -6.1951126405       0.0003944920     0.999996    0.04720932
  884       -6.1955071326      -0.0003944920     1.000000    0.04720932
  885       -6.1951126405       0.0003944920     0.999996    0.04720932
  886       -6.1955071326      -0.0003944920     1.000000    0.04720932
  887       -6.1951126405       0.0003944920     0.999996    0.04720932
  888       -6.1955071326      -0.0003944920     1.000000    0.04720932
  889       -6.1951126405       0.0003944920     0.999996    0.04720932
  890       -6.1955071326      -0.0003944920     1.000000    0.04720932
  891       -6.1951126405       0.0003944920     0.999996    0.04720932
  892       -6.1955071326      -0.0003944920     1.000000    0.04720932
  893       -6.1951126405       0.0003944920     0.999996    0.04720932
  894       -6.1955071326      -0.0003944920     1.000000    0.04720932
  895       -6.1951126405       0.0003944920     0.999996    0.04720932
  896       -6.1955071326      -0.0003944920     1.000000    0.04720932
  897       -6.1951126405       0.0003944920     0.999996    0.04720932
  898       -6.1955071326      -0.0003944920     1.000000    0.04720932
  899       -6.1951126405       0.0003944920     0.999996    0.04720932
  900       -6.1955071326      -0.0003944920     1.000000    0.04720932
  901       -6.1951126405       0.0003944920     0.999996    0.04720932
  902       -6.1955071326      -0.0003944920     1.000000    0.04720932
  903       -6.1951126405       0.0003944920     0.999996    0.04720932
  904       -6.1955071326      -0.0003944920     1.000000    0.04720932
  905       -6.1951126405       0.0003944920     0.999996    0.04720932
  906       -6.1955071326      -0.0003944920     1.000000    0.04720932
  907       -6.1951126405       0.0003944920     0.999996    0.04720932
  908       -6.1955071326      -0.0003944920     1.000000    0.04720932
  909       -6.1951126405       0.0003944920     0.999996    0.04720932
  910       -6.1955071326      -0.0003944920     1.000000    0.04720932
  911       -6.1951126405       0.0003944920     0.999996    0.04720932
  912       -6.1955071326      -0.0003944920     1.000000    0.04720932
  913       -6.1951126405       0.0003944920     0.999996    0.04720932
  914       -6.1955071326      -0.0003944920     1.000000    0.04720932
  915       -6.1951126405       0.0003944920     0.999996    0.04720932
  916       -6.1955071326      -0.0003944920     1.000000    0.04720932
  917       -6.1951126405       0.0003944920     0.999996    0.04720932
  918       -6.1955071326      -0.0003944920     1.000000    0.04720932
  919       -6.1951126405       0.0003944920     0.999996    0.04720932
  920       -6.1955071326      -0.0003944920     1.000000    0.04720932
  921       -6.1951126405       0.0003944920     0.999996    0.04720932
  922       -6.1955071326      -0.0003944920     1.000000    0.04720932
  923       -6.1951126405       0.0003944920     0.999996    0.04720932
  924       -6.1955071326      -0.0003944920     1.000000    0.04720932
  925       -6.1951126405       0.0003944920     0.999996    0.04720932
  926       -6.1955071326      -0.0003944920     1.000000    0.04720932
  927       -6.1951126405       0.0003944920     0.999996    0.04720932
  928       -6.1955071326      -0.0003944920     1.000000    0.04720932
  929       -6.1951126405       0.0003944920     0.999996    0.04720932
  930       -6.1955071326      -0.0003944920     1.000000    0.04720932
  931       -6.1951126405       0.0003944920     0.999996    0.04720932
  932       -6.1955071326      -0.0003944920     1.000000    0.04720932
  933       -6.1951126405       0.0003944920     0.999996    0.04720932
  934       -6.1955071326      -0.0003944920     1.000000    0.04720932
  935       -6.1951126405       0.0003944920     0.999996    0.04720932
  936       -6.1955071326      -0.0003944920     1.000000    0.04720932
  937       -6.1951126405       0.0003944920     0.999996    0.04720932
  938       -6.1955071326      -0.0003944920     1.000000    0.04720932
  939       -6.1951126405       0.0003944920     0.999996    0.04720932
  940       -6.1955071326      -0.0003944920     1.000000    0.04720932
  941       -6.1951126405       0.0003944920     0.999996    0.04720932
  942       -6.1955071326      -0.0003944920     1.000000    0.04720932
  943       -6.1951126405       0.0003944920     0.999996    0.04720932
  944       -6.1955071326      -0.0003944920     1.000000    0.04720932
  945       -6.1951126405       0.0003944920     0.999996    0.04720932
  946       -6.1955071326      -0.0003944920     1.000000    0.04720932
  947       -6.1951126405       0.0003944920     0.999996    0.04720932
  948       -6.1955071326      -0.0003944920     1.000000    0.04720932
  949       -6.1951126405       0.0003944920     0.999996    0.04720932
  950       -6.1955071326      -0.0003944920     1.000000    0.04720932
  951       -6.1951126405       0.0003944920     0.999996    0.04720932
  952       -6.1955071326      -0.0003944920     1.000000    0.04720932
  953       -6.1951126405       0.0003944920     0.999996    0.04720932
  954       -6.1955071326      -0.0003944920     1.000000    0.04720932
  955       -6.1951126405       0.0003944920     0.999996    0.04720932
  956       -6.1955071326      -0.0003944920     1.000000    0.04720932
  957       -6.1951126405       0.0003944920     0.999996    0.04720932
  958       -6.1955071326      -0.0003944920     1.000000    0.04720932
  959       -6.1951126405       0.0003944920     0.999996    0.04720932
  960       -6.1955071326      -0.0003944920     1.000000    0.04720932
  961       -6.1951126405       0.0003944920     0.999996    0.04720932
  962       -6.1955071326      -0.0003944920     1.000000    0.04720932
  963       -6.1951126405       0.0003944920     0.999996    0.04720932
  964       -6.1955071326      -0.0003944920     1.000000    0.04720932
  965       -6.1951126405       0.0003944920     0.999996    0.04720932
  966       -6.1955071326      -0.0003944920     1.000000    0.04720932
  967       -6.1951126405       0.0003944920     0.999996    0.04720932
  968       -6.1955071326      -0.0003944920     1.000000    0.04720932
  969       -6.1951126405       0.0003944920     0.999996    0.04720932
  970       -6.1955071326      -0.0003944920     1.000000    0.04720932
  971       -6.1951126405       0.0003944920     0.999996    0.04720932
  972       -6.1955071326      -0.0003944920     1.000000    0.04720932
  973       -6.1951126405       0.0003944920     0.999996    0.04720932
  974       -6.1955071326      -0.0003944920     1.000000    0.04720932
  975       -6.1951126405       0.0003944920     0.999996    0.04720932
  976       -6.1955071326      -0.0003944920     1.000000    0.04720932
  977       -6.1951126405       0.0003944920     0.999996    0.04720932
  978       -6.1955071326      -0.0003944920     1.000000    0.04720932
  979       -6.1951126405       0.0003944920     0.999996    0.04720932
  980       -6.1955071326      -0.0003944920     1.000000    0.04720932
  981       -6.1951126405       0.0003944920     0.999996    0.04720932
  982       -6.1955071326      -0.0003944920     1.000000    0.04720932
  983       -6.1951126405       0.0003944920     0.999996    0.04720932
  984       -6.1955071326      -0.0003944920     1.000000    0.04720932
  985       -6.1951126405       0.0003944920     0.999996    0.04720932
  986       -6.1955071326      -0.0003944920     1.000000    0.04720932
  987       -6.1951126405       0.0003944920     0.999996    0.04720932
  988       -6.1955071326      -0.0003944920     1.000000    0.04720932
  989       -6.1951126405       0.0003944920     0.999996    0.04720932
  990       -6.1955071326      -0.0003944920     1.000000    0.04720932
  991       -6.1951126405       0.0003944920     0.999996    0.04720932
  992       -6.1955071326      -0.0003944920     1.000000    0.04720932
  993       -6.1951126405       0.0003944920     0.999996    0.04720932
  994       -6.1955071326      -0.0003944920     1.000000    0.04720932
  995       -6.1951126405       0.0003944920     0.999996    0.04720932
  996       -6.1955071326      -0.0003944920     1.000000    0.04720932
  997       -6.1951126405       0.0003944920     0.999996    0.04720932
  998       -6.1955071326      -0.0003944920     1.000000    0.04720932
  999       -6.1951126405       0.0003944920     0.999996    0.04720932
 1000       -6.1955071326      -0.0003944920     1.000000    0.04720932

Total Energy:                       -6.1955071326 H         -168.5883 eV
Extrapolated to 0:                  -6.2326864897 H         -169.6000 eV

----------------------------------------------------------------------------------
 Solving CP-REKS equation for  1 state vector...
----------------------------------------------------------------------------------
  CG solver: Constructing Y initial guess
  CG solver: Iteration    1    eps =    0.013623051885
  CG solver: Iteration    2    eps =    0.011390786597
  CG solver: Iteration    3    eps =    0.001246133698
  CG solver: Iteration    4    eps =    0.000219240144
  CG solver: Iteration    5    eps =    0.000035044202
  CG solver: Iteration    6    eps =    0.000001499940
  CG solver: Iteration    7    eps =    0.000000099973
  CG solver: Iteration    8    eps =    0.000000031434
  CG solver: Iteration    9    eps =    0.000000001031
  Convergence reached in CG solver after    9 iterations
  CG solver: Calculating converged R, Z, Q2 matrix
----------------------------------------------------------------------------------

----------------------------------------------------------------------------------
 Solving CP-REKS equation for SI between  1 and  2 state vectors...
----------------------------------------------------------------------------------
  CG solver: Constructing Y initial guess
  CG solver: Iteration    1    eps =    0.016526045965
  CG solver: Iteration    2    eps =    0.002949523113
  CG solver: Iteration    3    eps =    0.000074388946
  CG solver: Iteration    4    eps =    0.000009261452
  CG solver: Iteration    5    eps =    0.000002198480
  CG solver: Iteration    6    eps =    0.000000160801
  CG solver: Iteration    7    eps =    0.000000017363
  CG solver: Iteration    8    eps =    0.000000000907
  Convergence reached in CG solver after    8 iterations
  CG solver: Calculating converged R, Z, Q2 matrix
----------------------------------------------------------------------------------

--------------------------------------------------
 Gradient Information
--------------------------------------------------
           1 st state (SSR)
     0.00000000     0.00000000     0.00000000
     0.00000000     0.00000000     0.00000000
     0.00000000     0.00000000     0.00000000
     0.00000000     0.00000000     0.00000000
     0.00000000     0.00000000     0.00000000
     0.00000000     0.00000000     0.00000000

           2 st state (SSR)
     0.00000000     0.00000000     0.00000000
     0.00000000     0.00000000     0.00000000
     0.00000000     0.00000000     0.00000000
     0.00000000     0.00000000     0.00000000
     0.00000000     0.00000000     0.00000000
     0.00000000     0.00000000     0.00000000
--------------------------------------------------
 Coupling Information
--------------------------------------------------
 between  1 and  2 states
--------------------------------------------------
 g vector - difference gradient
    -1.03685340     0.22795016    -1.20477463
     0.39657270    -0.54104457     1.14599404
     0.27220663     0.03882026     0.14147789
     0.02850477     0.27387516    -0.09465225
     0.06086029    -0.29966392    -0.14209978
     0.27870900     0.30006291     0.15405472

 h vector - derivative coupling
    -0.00186716    -0.00158608     0.01509901
     0.02491598    -0.02401643    -0.00303914
     0.00628820     0.00233140    -0.00448843
    -0.00323071    -0.00910244    -0.00559662
    -0.01508766     0.03235876     0.00267879
    -0.01101866     0.00001478    -0.00465360

 G vector - GDV
     0.00000000     0.00000000     0.00000000
     0.00000000     0.00000000     0.00000000
     0.00000000     0.00000000     0.00000000
     0.00000000     0.00000000     0.00000000
     0.00000000     0.00000000     0.00000000
     0.00000000     0.00000000     0.00000000

 H vector - DCV - non-adiabatic coupling
    -0.00000000    -0.00000000    -0.00000000
    -0.00000000    -0.00000000    -0.00000000
    -0.00000000    -0.00000000    -0.00000000
    -0.00000000    -0.00000000    -0.00000000
    -0.00000000    -0.00000000    -0.00000000
    -0.00000000    -0.00000000    -0.00000000
--------------------------------------------------

WARNING!
-> SCC is NOT converged, maximal SCC iterations exceeded

--------------------------------------------------------------------------------
DFTB+ running times                          cpu [s]             wall clock [s]
--------------------------------------------------------------------------------
SCC                                    +     0.43  ( 97.1%)      0.43  ( 96.4%)
      Sparse to dense                        0.02  (  4.6%)      0.02  (  4.5%)
      Dense to sparse                        0.07  ( 15.3%)      0.07  ( 16.1%)
      Range separated Hamiltonian            0.03  (  6.4%)      0.03  (  6.1%)
  Density matrix creation                    0.05  ( 12.0%)      0.05  ( 11.0%)
  Force calculation                          0.01  (  2.5%)      0.01  (  2.2%)
--------------------------------------------------------------------------------
Missing                                +     0.01  (  2.9%)      0.02  (  3.6%)
Total                                  =     0.44  (100.0%)      0.45  (100.0%)
--------------------------------------------------------------------------------
