    14
  Step:     0            Position(A)                                  Velocity(au)
C        -6.01336796    -0.83893640    -0.05975469    -0.00001074     0.00007894     0.00009498
C        -4.70567922    -0.73847820     0.15016263     0.00007677    -0.00012999     0.00021483
H        -6.51415630     0.05553493    -0.40890944     0.00004277    -0.00052748    -0.00072017
H        -6.59158536    -1.71476170     0.08856885    -0.00036437     0.00007451    -0.00168569
H        -4.04132780    -1.55922024     0.42345019    -0.00007261    -0.00104435    -0.00031669
C        -3.95953184     0.50321897    -0.08666465    -0.00014136     0.00003729     0.00001374
C        -2.55005830     0.56603524     0.13478542    -0.00003239    -0.00002792     0.00006541
H        -4.47912069     1.36780030    -0.48553165     0.00054095     0.00083698     0.00006752
H        -2.09237508    -0.39379233     0.46802947     0.00137910     0.00015434    -0.00058886
C        -1.78966086     1.72049622    -0.10488100     0.00026500     0.00033796    -0.00006293
H        -2.16712525     2.66780863    -0.46233694    -0.00048702     0.00006047    -0.00053902
N        -0.52779904     1.75013801     0.30056766    -0.00024023    -0.00018875    -0.00011815
H         0.03845650     2.62247516     0.18463269    -0.00001181    -0.00006486     0.00030485
H        -0.16852546     0.82824110     0.62812796     0.00043716    -0.00039723     0.00123502
    14
  Step:     1            Position(A)                                  Velocity(au)
C        -6.01378421    -0.83799354    -0.05878874    -0.00006439     0.00009235     0.00008130
C        -4.70428855    -0.73970184     0.15250838     0.00017621    -0.00009455     0.00021393
H        -6.51428991     0.04982666    -0.41685313    -0.00006867    -0.00050395    -0.00073179
H        -6.59615436    -1.71506216     0.07033573    -0.00046616    -0.00012843    -0.00164497
H        -4.04261042    -1.57107083     0.42033743    -0.00016890    -0.00110264    -0.00025577
C        -3.96144115     0.50343840    -0.08653093    -0.00020635     0.00000300     0.00001107
C        -2.55021914     0.56571912     0.13549411     0.00000435    -0.00002836     0.00006349
H        -4.47339041     1.37717583    -0.48473771     0.00050717     0.00086206     0.00008249
H        -2.07715458    -0.39102611     0.46150601     0.00139180     0.00035301    -0.00060424
C        -1.78693917     1.72413959    -0.10554336     0.00022807     0.00032607    -0.00005872
H        -2.17309220     2.66845185    -0.46849658    -0.00059305     0.00005223    -0.00058206
N        -0.53016762     1.74806960     0.29932104    -0.00018922    -0.00019040    -0.00010828
H         0.03785172     2.62005283     0.18827325    -0.00009922    -0.00037743     0.00036015
H        -0.16337964     0.82556382     0.64138270     0.00048333    -0.00006622     0.00117420
    14
  Step:     2            Position(A)                                  Velocity(au)
C        -6.01477656    -0.83691616    -0.05797608    -0.00011565     0.00010295     0.00006718
C        -4.70182421    -0.74054665     0.15484270     0.00027160    -0.00006086     0.00021255
H        -6.51565868     0.04451000    -0.42491869    -0.00018175    -0.00045779    -0.00074184
H        -6.60178349    -1.71757134     0.05258197    -0.00055193    -0.00031973    -0.00159919
H        -4.04502270    -1.58334270     0.41785481    -0.00027683    -0.00112191    -0.00020110
C        -3.96404617     0.50328467    -0.08642237    -0.00026829    -0.00003079     0.00000910
C        -2.54996318     0.56541491     0.13617441     0.00004355    -0.00002538     0.00006011
H        -4.46802541     1.38665950    -0.48372709     0.00047404     0.00085601     0.00010727
H        -2.06192687    -0.38606949     0.45481054     0.00138255     0.00054957    -0.00061863
C        -1.78467134     1.72762972    -0.10616561     0.00018262     0.00031013    -0.00005544
H        -2.18009942     2.66895118    -0.47507054    -0.00067606     0.00003308    -0.00061404
N        -0.53193856     1.74597266     0.29819884    -0.00013245    -0.00019385    -0.00009581
H         0.03628589     2.61421821     0.19251163    -0.00017942    -0.00067511     0.00041225
H        -0.15795173     0.82679237     0.65381578     0.00049357     0.00030196     0.00108944
    14
  Step:     3            Position(A)                                  Velocity(au)
C        -6.01631425    -0.83574135    -0.05731904    -0.00016376     0.00010978     0.00005297
C        -4.69834687    -0.74103325     0.15715824     0.00036008    -0.00002910     0.00021031
H        -6.51826594     0.03981165    -0.43308225    -0.00029343    -0.00039365    -0.00074875
H        -6.60822892    -1.72205689     0.03535046    -0.00061040    -0.00048196    -0.00154999
H        -4.04866654    -1.59561478     0.41593789    -0.00039121    -0.00110418    -0.00015174
C        -3.96731058     0.50276481    -0.08633177    -0.00032665    -0.00006387     0.00000778
C        -2.54926645     0.56516395     0.13680909     0.00008463    -0.00001830     0.00005506
H        -4.46301991     1.39590260    -0.48239097     0.00044088     0.00081831     0.00014168
H        -2.04690859    -0.37900322     0.44797234     0.00135594     0.00073360    -0.00062880
C        -1.78294392     1.73092416    -0.10675619     0.00013009     0.00029046    -0.00005271
H        -2.18788231     2.66917543    -0.48192989    -0.00073425     0.00000163    -0.00063385
N        -0.53306515     1.74382868     0.29722500    -0.00007304    -0.00019886    -0.00008166
H         0.03392650     2.60528353     0.19729197    -0.00023642    -0.00093111     0.00045755
H        -0.15258177     0.83216977     0.66521629     0.00047813     0.00067723     0.00099082
    14
  Step:     4            Position(A)                                  Velocity(au)
C        -6.01835907    -0.83451455    -0.05681726    -0.00020811     0.00011233     0.00003882
C        -4.69394668    -0.74118321     0.15944367     0.00043922     0.00000074     0.00020688
H        -6.52207808     0.03589807    -0.44129913    -0.00040013    -0.00031767    -0.00075044
H        -6.61513719    -1.72811520     0.01867295    -0.00063348    -0.00060212    -0.00149782
H        -4.05358114    -1.60749871     0.41453529    -0.00050606    -0.00105319    -0.00010638
C        -3.97119221     0.50188750    -0.08625221    -0.00038089    -0.00009615     0.00000711
C        -2.54811164     0.56501447     0.13737897     0.00012694    -0.00000659     0.00004819
H        -4.45838023     1.40456158    -0.48062750     0.00040625     0.00075036     0.00018476
H        -2.03226299    -0.37002057     0.44105437     0.00131705     0.00089514    -0.00063180
C        -1.78182541     1.73398417    -0.10731876     0.00007229     0.00026743    -0.00005006
H        -2.19616253     2.66898693    -0.48893727    -0.00076698    -0.00004192    -0.00064109
N        -0.53353644     1.74162231     0.29641235    -0.00001431    -0.00020505    -0.00006693
H         0.03111371     2.59384849     0.20252146    -0.00025523    -0.00112048     0.00049298
H        -0.14749176     0.84160800     0.67549183     0.00044817     0.00102952     0.00088975
    14
  Step:     5            Position(A)                                  Velocity(au)
C        -6.02086715    -0.83328391    -0.05646970    -0.00024829     0.00011061     0.00002472
C        -4.68873805    -0.74101705     0.16168412     0.00050709     0.00002881     0.00020196
H        -6.52701953     0.03286197    -0.44949966    -0.00049794    -0.00023683    -0.00074455
H        -6.62208759    -1.73522949     0.00258279    -0.00061716    -0.00067283    -0.00144217
H        -4.05973761    -1.61865532     0.41361072    -0.00061514    -0.00097399    -0.00006361
C        -3.97564319     0.50066127    -0.08617631    -0.00043045    -0.00012772     0.00000716
C        -2.54648936     0.56501982     0.13786342     0.00016965     0.00001013     0.00003939
H        -4.45413248     1.41231819    -0.47834908     0.00036810     0.00065524     0.00023493
H        -2.01809568    -0.35942022     0.43415051     0.00127121     0.00102510    -0.00062499
C        -1.78136239     1.73677460    -0.10785140     0.00001135     0.00024135    -0.00004698
H        -2.20466142     2.66825841    -0.49595501    -0.00077479    -0.00009595    -0.00063609
N        -0.53337825     1.73934283     0.29576078     0.00004046    -0.00021188    -0.00005285
H         0.02834275     2.58077089     0.20807690    -0.00022330    -0.00122221     0.00051616
H        -0.14277729     0.85469249     0.68468128     0.00041550     0.00132954     0.00079872
    14
  Step:     6            Position(A)                                  Velocity(au)
C        -6.02379095    -0.83209477    -0.05627636    -0.00028406     0.00010506     0.00001054
C        -4.68285320    -0.74055283     0.16386199     0.00056234     0.00005536     0.00019536
H        -6.53297141     0.03071685    -0.45758752    -0.00058302    -0.00015824    -0.00072873
H        -6.62863882    -1.74283472    -0.01287730    -0.00056142    -0.00069232    -0.00138208
H        -4.06703850    -1.62880658     0.41314373    -0.00071232    -0.00087253    -0.00002202
C        -3.98060917     0.49909348    -0.08609558    -0.00047464    -0.00015866     0.00000807
C        -2.54440027     0.56523609     0.13824075     0.00021168     0.00003194     0.00002858
H        -4.45032742     1.41889626    -0.47548796     0.00032407     0.00053740     0.00029023
H        -2.00445277    -0.34759455     0.42738158     0.00122378     0.00111573    -0.00060613
C        -1.78157713     1.73926421    -0.10834643    -0.00005049     0.00021264    -0.00004296
H        -2.21311244     2.66688790    -0.50285292    -0.00075927    -0.00015762    -0.00061984
N        -0.53265131     1.73698708     0.29525607     0.00008835    -0.00021843    -0.00004074
H         0.02622855     2.56711028     0.21381347    -0.00013260    -0.00122235     0.00052567
H        -0.13840190     0.87069413     0.69296528     0.00039213     0.00154986     0.00073082
    14
  Step:     7            Position(A)                                  Velocity(au)
C        -6.02708141    -0.83098544    -0.05623912    -0.00031535     0.00009645    -0.00000391
C        -4.67643583    -0.73980586     0.16595798     0.00060420     0.00008062     0.00018697
H        -6.53977430     0.02940009    -0.46544199    -0.00065208    -0.00008832    -0.00070098
H        -6.63436976    -1.75037524    -0.02765276    -0.00046960    -0.00066354    -0.00131656
H        -4.07532107    -1.63774367     0.41312908    -0.00079201    -0.00075535     0.00001975
C        -3.98602683     0.49719018    -0.08599984    -0.00051248    -0.00018907     0.00001000
C        -2.54185847     0.56571860     0.13848873     0.00025161     0.00005857     0.00001574
H        -4.44704288     1.42407486    -0.47199964     0.00027171     0.00040229     0.00034844
H        -1.99132325    -0.33501151     0.42089024     0.00117958     0.00116133    -0.00057360
C        -1.78246697     1.74142649    -0.10879116    -0.00011097     0.00018179    -0.00003760
H        -2.22127201     2.66481012    -0.50951526    -0.00072300    -0.00022323    -0.00059395
N        -0.53144544     1.73456416     0.29486944     0.00012716    -0.00022336    -0.00003189
H         0.02544188     2.55402975     0.21957685     0.00001778    -0.00111772     0.00052127
H        -0.13419859     0.88859873     0.70066941     0.00038925     0.00166725     0.00069877
    14
  Step:     8            Position(A)                                  Velocity(au)
C        -6.03068973    -0.82998464    -0.05636198    -0.00034222     0.00008571    -0.00001881
C        -4.66963507    -0.73878913     0.16795239     0.00063238     0.00010471     0.00017682
H        -6.54723681     0.02878470    -0.47292280    -0.00070265    -0.00003215    -0.00065992
H        -6.63891216    -1.75735101    -0.04167967    -0.00034753    -0.00059314    -0.00124497
H        -4.08436514    -1.64533136     0.41357583    -0.00084935    -0.00062921     0.00006290
C        -3.99182059     0.49495717    -0.08587676    -0.00054269    -0.00021887     0.00001317
C        -2.53889573     0.56651732     0.13858507     0.00028771     0.00008928     0.00000089
H        -4.44438333     1.42769704    -0.46786508     0.00020865     0.00025602     0.00040724
H        -1.97864715    -0.32218817     0.41483298     0.00114239     0.00115902    -0.00052654
C        -1.78400482     1.74324130    -0.10916896    -0.00016797     0.00014947    -0.00003062
H        -2.22892937     2.66200422    -0.51584667    -0.00066924    -0.00028854    -0.00056045
N        -0.52986941     1.73210059     0.29455848     0.00015580    -0.00022490    -0.00002740
H         0.02661752     2.54265808     0.22521718     0.00021955    -0.00091887     0.00050401
H        -0.12988639     0.90716833     0.70825228     0.00041549     0.00166615     0.00071303
    14
  Step:     9            Position(A)                                  Velocity(au)
C        -6.03456818    -0.82911028    -0.05665055    -0.00036477     0.00007383    -0.00003425
C        -4.66260140    -0.73751519     0.16982626     0.00064684     0.00012756     0.00016502
H        -6.55514612     0.02869676    -0.47987894    -0.00073340     0.00000692    -0.00060497
H        -6.64197276    -1.76335138    -0.05488882    -0.00020267    -0.00049023    -0.00116706
H        -4.09390231    -1.65150882     0.41450521    -0.00088051    -0.00050074     0.00010846
C        -3.99789915     0.49240198    -0.08571182    -0.00056380    -0.00024780     0.00001773
C        -2.53556429     0.56767179     0.13850825     0.00031811     0.00012293    -0.00001583
H        -4.44247826     1.42967572    -0.46309041     0.00013280     0.00010506     0.00046434
H        -1.96633135    -0.30965578     0.40937114     0.00111421     0.00110934    -0.00046505
C        -1.78614165     1.74469638    -0.10946111    -0.00021964     0.00011643    -0.00002191
H        -2.23591291     2.65849779    -0.52177622    -0.00060178    -0.00034908    -0.00052171
N        -0.52803693     1.72964406     0.29427010     0.00017456    -0.00022115    -0.00002799
H         0.03024490     2.53392765     0.23060312     0.00045467    -0.00065068     0.00047606
H        -0.12510901     0.92504902     0.71626825     0.00047464     0.00154329     0.00077912
    14
  Step:    10            Position(A)                                  Velocity(au)
C        -6.03866972    -0.82836942    -0.05711117    -0.00038301     0.00006176    -0.00005025
C        -4.65548420    -0.73599857     0.17156241     0.00064779     0.00014888     0.00015177
H        -6.56328138     0.02893617    -0.48615767    -0.00074423     0.00002749    -0.00053639
H        -6.64334595    -1.76807564    -0.06721137    -0.00004326    -0.00036534    -0.00108312
H        -4.10362809    -1.65628604     0.41594851    -0.00088283    -0.00037605     0.00015720
C        -4.00415475     0.48953618    -0.08548887    -0.00057440    -0.00027539     0.00002380
C        -2.53193641     0.56920657     0.13823872     0.00034119     0.00015797    -0.00003418
H        -4.44147799     1.42999542    -0.45770670     0.00004254    -0.00004412     0.00051752
H        -1.95427169    -0.29791920     0.40465910     0.00109483     0.00101668    -0.00039035
C        -1.78880997     1.74578851    -0.10964828    -0.00026449     0.00008353    -0.00001146
H        -2.24209445     2.65436739    -0.52726004    -0.00052466    -0.00040049    -0.00048024
N        -0.52605058     1.72726247     0.29394624     0.00018512    -0.00021060    -0.00003374
H         0.03656440     2.52842330     0.23563195     0.00069736    -0.00034920     0.00044018
H        -0.11950279     0.94093066     0.72529711     0.00056321     0.00131138     0.00089480
    14
  Step:    11            Position(A)                                  Velocity(au)
C        -6.04294726    -0.82775913    -0.05774990    -0.00039689     0.00005037    -0.00006675
C        -4.64842971    -0.73425822     0.17314652     0.00063558     0.00016815     0.00013737
H        -6.57142749     0.02929806    -0.49161352    -0.00073625     0.00003000    -0.00045524
H        -6.64291918    -1.77134385    -0.07858413     0.00012215    -0.00022978    -0.00099391
H        -4.11321593    -1.65973568     0.41794435    -0.00085500    -0.00026031     0.00020966
C        -4.01046532     0.48637735    -0.08519124    -0.00057340    -0.00030102     0.00003135
C        -2.52810008     0.57112775     0.13776041     0.00035583     0.00019264    -0.00005378
H        -4.44154772     1.42871053    -0.45176866    -0.00006321    -0.00018540     0.00056470
H        -1.94237994    -0.28741404     0.40083154     0.00108149     0.00088920    -0.00030477
C        -1.79192789     1.74652365    -0.10971183    -0.00030138     0.00005156     0.00000063
H        -2.24739075     2.64973629    -0.53228230    -0.00044192    -0.00043875    -0.00043850
N        -0.52398702     1.72503680     0.29353198     0.00019032    -0.00019262    -0.00004396
H         0.04550100     2.52628822     0.24023290     0.00091848    -0.00005515     0.00039913
H        -0.11278770     0.95373806     0.73584367     0.00066921     0.00100017     0.00104807
    14
  Step:    12            Position(A)                                  Velocity(au)
C        -6.04735245    -0.82726753    -0.05857140    -0.00040623     0.00004041    -0.00008356
C        -4.64157969    -0.73231997     0.17456770     0.00061066     0.00018464     0.00012218
H        -6.57938831     0.02959251    -0.49611687    -0.00071170     0.00001658    -0.00036331
H        -6.64067374    -1.77310257    -0.08895495     0.00028506    -0.00009518    -0.00090058
H        -4.12233280    -1.66198092     0.42053523    -0.00079717    -0.00015740     0.00026597
C        -4.01669896     0.48295075    -0.08480301    -0.00056012    -0.00032392     0.00004026
C        -2.52415200     0.57342087     0.13706216     0.00036154     0.00022498    -0.00007411
H        -4.44286085     1.42593948    -0.44535275    -0.00018477    -0.00031337     0.00060409
H        -1.93061212    -0.27846624     0.39799175     0.00106905     0.00073831    -0.00021161
C        -1.79540331     1.74691647    -0.10963455    -0.00032955     0.00002132     0.00001419
H        -2.25176236     2.64476880    -0.53685302    -0.00035742    -0.00046050    -0.00039872
N        -0.52188700     1.72304846     0.29298462     0.00019356    -0.00016781    -0.00005717
H         0.05665785     2.52721670     0.24436366     0.00109114     0.00019410     0.00035510
H        -0.10486247     0.96281135     0.74822566     0.00077322     0.00065258     0.00121780
    14
  Step:    13            Position(A)                                  Velocity(au)
C        -6.05183431    -0.82687501    -0.05957791    -0.00041072     0.00003254    -0.00010043
C        -4.63507035    -0.73021889     0.17581934     0.00057358     0.00019741     0.00010659
H        -6.58699736     0.02966081    -0.49956167    -0.00067369    -0.00000936    -0.00026304
H        -6.63668294    -1.77342613    -0.09828606     0.00043728     0.00002692    -0.00080458
H        -4.13065546    -1.66317905     0.42376303    -0.00071099    -0.00006955     0.00032586
C        -4.02271898     0.47929093    -0.08431056    -0.00053433    -0.00034317     0.00005025
C        -2.52019078     0.57604966     0.13613905     0.00035839     0.00025304    -0.00009458
H        -4.44559001     1.42185494    -0.43855302    -0.00032161    -0.00042372     0.00063432
H        -1.91899236    -0.27126218     0.39620222     0.00105070     0.00057735    -0.00011481
C        -1.79913732     1.74699006    -0.10940140    -0.00034850    -0.00000643     0.00002900
H        -2.25520992     2.63966202    -0.54100509    -0.00027450    -0.00046324    -0.00036275
N        -0.51975254     1.72136556     0.29228130     0.00019816    -0.00013785    -0.00007140
H         0.06937175     2.53053456     0.24800141     0.00119560     0.00037126     0.00030945
H        -0.09587200     0.96801449     0.76248528     0.00085215     0.00031649     0.00137724
    14
  Step:    14            Position(A)                                  Velocity(au)
C        -6.05633782    -0.82655556    -0.06076854    -0.00040995     0.00002729    -0.00011705
C        -4.62903146    -0.72800122     0.17689954     0.00052496     0.00020538     0.00009106
H        -6.59412655     0.02938776    -0.50187137    -0.00062595    -0.00004347    -0.00015728
H        -6.63110744    -1.77251374    -0.10655679     0.00057120     0.00012545    -0.00070754
H        -4.13788700    -1.66350236     0.42766401    -0.00059951     0.00000279     0.00038857
C        -4.02838851     0.47544315    -0.08370373    -0.00049622    -0.00035776     0.00006096
C        -2.51631162     0.57895653     0.13499299     0.00034685     0.00027494    -0.00011455
H        -4.44989679     1.41666972    -0.43147578    -0.00047222    -0.00051360     0.00065457
H        -1.90762610    -0.26583571     0.39548013     0.00101897     0.00041996    -0.00001848
C        -1.80302732     1.74677573    -0.10900010    -0.00035799    -0.00003095     0.00004478
H        -2.25776765     2.63463449    -0.54478878    -0.00019589    -0.00044568    -0.00033185
N        -0.51755186     1.72003272     0.29142255     0.00020669    -0.00010503    -0.00008460
H         0.08281395     2.53533864     0.25113346     0.00122195     0.00046248     0.00026274
H        -0.08622009     0.96973519     0.77835532     0.00088456     0.00003480     0.00149972
    14
  Step:    15            Position(A)                                  Velocity(au)
C        -6.06080284    -0.82627809    -0.06213861    -0.00040344     0.00002503    -0.00013305
C        -4.62358582    -0.72572575     0.17781138     0.00046549     0.00020740     0.00007603
H        -6.60069118     0.02870992    -0.50300237    -0.00057259    -0.00008081    -0.00004913
H        -6.62418687    -1.77068176    -0.11376490     0.00068014     0.00019033    -0.00061116
H        -4.14377099    -1.66311792     0.43226377    -0.00046703     0.00006093     0.00045291
C        -4.03357481     0.47146416    -0.08297685    -0.00044635    -0.00036663     0.00007196
C        -2.51260280     0.58206456     0.13363294     0.00032765     0.00028912    -0.00013342
H        -4.45592069     1.41061893    -0.42423304    -0.00063404    -0.00058191     0.00066466
H        -1.89670035    -0.26207470     0.39579786     0.00096705     0.00027841     0.00007353
C        -1.80696896     1.74631299    -0.10842166    -0.00035797    -0.00005149     0.00006123
H        -2.25949546     2.62991194    -0.54826495    -0.00012347    -0.00040787    -0.00030662
N        -0.51523083     1.71906772     0.29043047     0.00022056    -0.00007168    -0.00009508
H         0.09610418     2.54065215     0.25374926     0.00117012     0.00046711     0.00021498
H        -0.07652060     0.96877587     0.79529455     0.00085559    -0.00016260     0.00156437
    14
  Step:    16            Position(A)                                  Velocity(au)
C        -6.06516383    -0.82600802    -0.06367928    -0.00039072     0.00002599    -0.00014805
C        -4.61884799    -0.72346397     0.17856293     0.00039600     0.00020238     0.00006196
H        -6.60665314     0.02761987    -0.50294614    -0.00051789    -0.00011625     0.00005819
H        -6.61622807    -1.76834984    -0.11992711     0.00075880     0.00021330    -0.00051712
H        -4.14810421    -1.66216929     0.43757229    -0.00031881     0.00010769     0.00051726
C        -4.03815328     0.46742246    -0.08212938    -0.00038562    -0.00036876     0.00008277
C        -2.50914374     0.58528152     0.13207414     0.00030160     0.00029439    -0.00015065
H        -4.46376762     1.40393929    -0.41693501    -0.00080348    -0.00062947     0.00066511
H        -1.88647012    -0.25974494     0.39708872     0.00088978     0.00016218     0.00015808
C        -1.81085856     1.74564922    -0.10766067    -0.00034858    -0.00006738     0.00007798
H        -2.26046882     2.62571145    -0.55149675    -0.00005819    -0.00035137    -0.00028688
N        -0.51272679     1.71846462     0.28934252     0.00023992    -0.00003966    -0.00010180
H         0.10841254     2.54555755     0.25583645     0.00104825     0.00039502     0.00016595
H        -0.06750247     0.96617810     0.81257880     0.00075959    -0.00026221     0.00155963
    14
  Step:    17            Position(A)                                  Velocity(au)
C        -6.06935057    -0.82570956    -0.06537749    -0.00037147     0.00003013    -0.00016168
C        -4.61492263    -0.72129836     0.17916684     0.00031751     0.00018948     0.00004922
H        -6.61202106     0.02616681    -0.50172943    -0.00046601    -0.00014473     0.00016152
H        -6.60758660    -1.76601546    -0.12507787     0.00080390     0.00018901    -0.00042692
H        -4.15074561    -1.66076197     0.44357990    -0.00016078     0.00014695     0.00057971
C        -4.04201105     0.46339687    -0.08116601    -0.00031528    -0.00036334     0.00009293
C        -2.50600481     0.58850497     0.13033708     0.00026951     0.00029010    -0.00016584
H        -4.47349844     1.39684815    -0.40968251    -0.00097594    -0.00065893     0.00065707
H        -1.87723470    -0.25852670     0.39925608     0.00078443     0.00007719     0.00023291
C        -1.81459478     1.74483900    -0.10671561    -0.00033011    -0.00007797     0.00009470
H        -2.26076844     2.62222504    -0.55454108    -0.00000009    -0.00027915    -0.00027169
N        -0.50998213     1.71820002     0.28820345     0.00026385    -0.00001028    -0.00010445
H         0.11903662     2.54929393     0.25737965     0.00087015     0.00026309     0.00011541
H        -0.05990303     0.96303948     0.82941435     0.00059997    -0.00026566     0.00148392
    14
  Step:    18            Position(A)                                  Velocity(au)
C        -6.07329055    -0.82534894    -0.06721631    -0.00034566     0.00003708    -0.00017361
C        -4.61190190    -0.71931883     0.17963962     0.00023130     0.00016824     0.00003811
H        -6.61684792     0.02445370    -0.49941259    -0.00042076    -0.00016164     0.00025796
H        -6.59864116    -1.76421487    -0.12926671     0.00081473     0.00011626    -0.00034174
H        -4.15162162    -1.65895443     0.45025446     0.00000082     0.00018309     0.00063813
C        -4.04505069     0.45947381    -0.08009630    -0.00023690    -0.00034984     0.00010203
C        -2.50324780     0.59162804     0.12844608     0.00023213     0.00027610    -0.00017869
H        -4.48511819     1.38952384    -0.40256024    -0.00114589    -0.00067459     0.00064227
H        -1.86930925    -0.25805627     0.40218416     0.00065080     0.00002567     0.00029676
C        -1.81808031     1.74394339    -0.10558891    -0.00030301    -0.00008276     0.00011101
H        -2.26047072     2.61960454    -0.55744053     0.00005160    -0.00019545    -0.00025943
N        -0.50695463     1.71823976     0.28705758     0.00029063     0.00001571    -0.00010332
H         0.12744874     2.55131321     0.25836131     0.00065299     0.00009210     0.00006324
H        -0.05437697     0.96036618     0.84504244     0.00038707    -0.00018564     0.00134400
    14
  Step:    19            Position(A)                                  Velocity(au)
C        -6.07691250    -0.82489830    -0.06917560    -0.00031357     0.00004612    -0.00018360
C        -4.60986242    -0.71761771     0.18000063     0.00013894     0.00013875     0.00002885
H        -6.62122599     0.02263062    -0.49608600    -0.00038538    -0.00016317     0.00034503
H        -6.58976291    -1.76347207    -0.13255399     0.00079350    -0.00000108    -0.00026234
H        -4.15072760    -1.65675643     0.45754024     0.00015979     0.00022033     0.00069041
C        -4.04719363     0.45574337    -0.07893391    -0.00015233    -0.00032819     0.00010975
C        -2.50092654     0.59454517     0.12642779     0.00019017     0.00025277    -0.00018907
H        -4.49856697     1.38209016    -0.39563161    -0.00130710    -0.00068183     0.00062274
H        -1.86299722    -0.25796520     0.40574836     0.00049109     0.00000647     0.00034926
C        -1.82122363     1.74302847    -0.10428703    -0.00026788    -0.00008137     0.00012656
H        -2.25963966     2.61794918    -0.56021666     0.00009825    -0.00010543    -0.00024798
N        -0.50362396     1.71854382     0.28594319     0.00031812     0.00003791    -0.00009913
H         0.13332209     2.55130872     0.25876314     0.00041567    -0.00009542     0.00000942
H        -0.05143513     0.95897814     0.85881682     0.00013550    -0.00004137     0.00115233
    14
  Step:    20            Position(A)                                  Velocity(au)
C        -6.08015050    -0.82434004    -0.07123296    -0.00027591     0.00005610    -0.00019150
C        -4.60886229    -0.71628336     0.18027076     0.00004226     0.00010169     0.00002149
H        -6.62527894     0.02088405    -0.49186431    -0.00036224    -0.00014666     0.00042091
H        -6.58128176    -1.76423857    -0.13500582     0.00074545    -0.00015353    -0.00018896
H        -4.14812587    -1.65413425     0.46535858     0.00031027     0.00026213     0.00073459
C        -4.04838311     0.45229406    -0.07769541    -0.00006369    -0.00029879     0.00011589
C        -2.49908754     0.59715780     0.12430975     0.00014428     0.00022097    -0.00019696
H        -4.51371362     1.37460759    -0.38893650    -0.00145294    -0.00068644     0.00060064
H        -1.85856576    -0.25791477     0.40982484     0.00030946     0.00001564     0.00039081
C        -1.82394077     1.74216328    -0.10282018    -0.00022549    -0.00007365     0.00014102
H        -2.25832128     2.61729802    -0.56286566     0.00014161    -0.00001468    -0.00023499
N        -0.49999507     1.71906917     0.28488891     0.00034395     0.00005611    -0.00009286