 Fermi distribution function

Calculation with static geometry


********************************************************************************
 iSCC Total electronic   Diff electronic      SCC error    
   13   -0.52959853E+01   -0.14007462E-10    0.43853773E-07
********************************************************************************

 Total charge:     1.00000000

 Atomic gross charges (e)
 Atom           Charge
    1       0.31961597
    2      -0.20435311
    3       0.16601229
    4       0.25777629
    5       0.27924012
    6       0.18170844

Nr. of electrons (up):     12.00000000
Atom populations (up)
 Atom       Population
    1       3.68038403
    2       5.20435311
    3       0.83398771
    4       0.74222371
    5       0.72075988
    6       0.81829156

l-shell populations (up)
 Atom Sh.   l       Population
    1   1   0       1.37854375
    1   2   1       2.30184029
    2   1   0       1.50367320
    2   2   1       3.70067991
    3   1   0       0.83398771
    4   1   0       0.74222371
    5   1   0       0.72075988
    6   1   0       0.81829156

Orbital populations (up)
 Atom Sh.   l   m       Population  Label
    1   1   0   0       1.37854375  s
    1   2   1  -1       0.45012099  p_y
    1   2   1   0       0.87397545  p_z
    1   2   1   1       0.97774385  p_x
    2   1   0   0       1.50367320  s
    2   2   1  -1       1.34613612  p_y
    2   2   1   0       1.08268361  p_z
    2   2   1   1       1.27186018  p_x
    3   1   0   0       0.83398771  s
    4   1   0   0       0.74222371  s
    5   1   0   0       0.72075988  s
    6   1   0   0       0.81829156  s

Fermi level:                        -0.5109159635 H          -13.9027 eV
Band energy:                        -8.7158493444 H         -237.1703 eV
TS:                                  0.0000000000 H            0.0000 eV
Band free energy (E-TS):            -8.7158493444 H         -237.1703 eV
Extrapolated E(0K):                 -8.7158493444 H         -237.1703 eV
Input / Output electrons (q):     12.0000000000     12.0000000000

Energy H0:                          -5.4326983359 H         -147.8312 eV
Energy SCC:                          0.1367130659 H            3.7202 eV
Total Electronic energy:            -5.2959852701 H         -144.1111 eV
Repulsive energy:                    0.1443282958 H            3.9274 eV
Total energy:                       -5.1516569742 H         -140.1837 eV
Extrapolated to 0:                  -5.1516569742 H         -140.1837 eV
Total Mermin free energy:           -5.1516569742 H         -140.1837 eV
Force related energy:               -5.1516569742 H         -140.1837 eV

SCC converged

Excitation Energy:                   0.0972979499 H            2.6476 eV

Total Forces
    1      0.002095236782     -0.003175264797      0.067542158285
    2     -0.013227386280      0.023210711260     -0.068581627644
    3     -0.004243723608      0.010895464147      0.000098676926
    4     -0.000005199042     -0.016068415466      0.002054436983
    5      0.012829046713     -0.001064385733     -0.002192829783
    6      0.002552025435     -0.013798109411      0.001079185232

Maximal derivative component:        0.685816E-01 au


