     6
  Step:     0            Position(A)                                  Velocity(au)
C        -0.03118200     0.00747538     0.03448031     0.00002496     0.00008773     0.00026231
N        -0.05534848    -0.07330560     1.27619669     0.00002551    -0.00007351    -0.00021036
H         0.90858447     0.05604145    -0.49085964     0.00027373    -0.00021190    -0.00000114
H         0.86287667     0.05076673     1.91009712    -0.00018019     0.00011288    -0.00074318
H        -0.81999493     0.01277317     1.87824152    -0.00055222     0.00047277     0.00091315
H        -1.02369516     0.14024524    -0.55078450    -0.00019322    -0.00039760    -0.00037125
     6
  Step:     1            Position(A)                                  Velocity(au)
C        -0.03107378     0.00797671     0.03566500     0.00001465     0.00009584     0.00016940
N        -0.05512789    -0.07373174     1.27528406     0.00005376    -0.00008242    -0.00012152
H         0.91031876     0.05489279    -0.49121021     0.00035713    -0.00020853    -0.00012504
H         0.86131258     0.05136053     1.90555449    -0.00038884     0.00010468    -0.00091518
H        -0.82370553     0.01544935     1.88371040    -0.00078739     0.00050483     0.00107285
H        -1.02450959     0.13807193    -0.55279454    -0.00010242    -0.00039764    -0.00036243
     6
  Step:     2            Position(A)                                  Velocity(au)
C        -0.03102182     0.00852356     0.03633303     0.00000443     0.00010438     0.00007399
N        -0.05476055    -0.07420702     1.27486759     0.00007899    -0.00009148    -0.00002942
H         0.91249042     0.05376080    -0.49222718     0.00043324    -0.00020593    -0.00024439
H         0.85862396     0.05191166     1.90008781    -0.00058992     0.00009753    -0.00108007
H        -0.82860661     0.01829451     1.88997527    -0.00098601     0.00053442     0.00120293
H        -1.02481537     0.13589621    -0.55474843    -0.00000777    -0.00039858    -0.00035127
     6
  Step:     3            Position(A)                                  Velocity(au)
C        -0.03102529     0.00911806     0.03647405    -0.00000560     0.00011323    -0.00002273
N        -0.05426419    -0.07473201     1.27496237     0.00010079    -0.00010057     0.00006489
H         0.91505619     0.05264097    -0.49388258     0.00050084    -0.00020413    -0.00035812
H         0.85486198     0.05242697     1.89374416    -0.00077956     0.00009184    -0.00123447
H        -0.83448736     0.02129309     1.89686417    -0.00114483     0.00056072     0.00130024
H        -1.02459452     0.13371355    -0.55663562     0.00008964    -0.00040015    -0.00033848
     6
  Step:     4            Position(A)                                  Velocity(au)
C        -0.03108303     0.00976168     0.03608444    -0.00001538     0.00012225    -0.00011942
N        -0.05365846    -0.07530667     1.27557715     0.00011882    -0.00010957     0.00016007
H         0.91796683     0.05152878    -0.49614295     0.00055882    -0.00020308    -0.00046511
H         0.85009993     0.05291587     1.88658965    -0.00095316     0.00008813    -0.00137443
H        -0.84112454     0.02442566     1.90419258    -0.00126210     0.00058302     0.00136299
H        -1.02383524     0.13152084    -0.55844950     0.00018852    -0.00040204    -0.00032476
     6
  Step:     5            Position(A)                                  Velocity(au)
C        -0.03119345     0.01045500     0.03516803    -0.00002481     0.00013123    -0.00021454
N        -0.05296473    -0.07593036     1.27671294     0.00013275    -0.00011836     0.00025448
H         0.92116776     0.05041996    -0.49896924     0.00060619    -0.00020272    -0.00056423
H         0.84443776     0.05339076     1.87871278    -0.00110526     0.00008698    -0.00149540
H        -0.84829028     0.02766928     1.91177049    -0.00133744     0.00060066     0.00139063
H        -1.02253273     0.12931663    -0.56018736     0.00028742    -0.00040390    -0.00031081
     6
  Step:     6            Position(A)                                  Velocity(au)
C        -0.03135452     0.01119759     0.03373699    -0.00003381     0.00013998    -0.00030643
N        -0.05220593    -0.07660174     1.27836160     0.00014230    -0.00012679     0.00034626
H         0.92459964     0.04931065    -0.50231662     0.00064211    -0.00020294    -0.00065432
H         0.83800654     0.05386760     1.87022746    -0.00122966     0.00008911    -0.00159240
H        -0.85575841     0.03099794     1.91940843    -0.00137163     0.00061310     0.00138375
H        -1.02069035     0.12710147    -0.56185035     0.00038461    -0.00040533    -0.00029737
     6
  Step:     7            Position(A)                                  Velocity(au)
C        -0.03156363     0.01198782     0.03181250    -0.00004223     0.00014824    -0.00039330
N        -0.05140650    -0.07731875     1.28050468     0.00014719    -0.00013472     0.00043337
H         0.92819924     0.04819763    -0.50613441     0.00066595    -0.00020362    -0.00073424
H         0.83097234     0.05436652     1.86127519    -0.00131967     0.00009529    -0.00166025
H        -0.86331037     0.03438309     1.92692326    -0.00136654     0.00061992     0.00134402
H        -1.01832107     0.12487808    -0.56344366     0.00047811    -0.00040590    -0.00028517
     6
  Step:     8            Position(A)                                  Velocity(au)
C        -0.03181753     0.01282276     0.02942521    -0.00004996     0.00015578    -0.00047338
N        -0.05059226    -0.07807868     1.28311265     0.00014721    -0.00014203     0.00051371
H         0.93190053     0.04707834    -0.51036614     0.00067734    -0.00020462    -0.00080293
H         0.82353892     0.05491231     1.85202604    -0.00136854     0.00010640    -0.00169397
H        -0.87073986     0.03779420     1.93414304    -0.00132492     0.00062085     0.00127404
H        -1.01544880     0.12265152    -0.56497664     0.00056575    -0.00040521    -0.00027500
     6
  Step:     9            Position(A)                                  Velocity(au)
C        -0.03211216     0.01369819     0.02661517    -0.00005683     0.00016237    -0.00054496
N        -0.04979021    -0.07887813     1.28614482     0.00014222    -0.00014861     0.00058527
H         0.93563600     0.04595103    -0.51495002     0.00067623    -0.00020581    -0.00085952
H         0.81594671     0.05553468     1.84267655    -0.00137015     0.00012326    -0.00168934
H        -0.87785707     0.04119954     1.94091135    -0.00125039     0.00061578     0.00117724
H        -1.01210953     0.12042915    -0.56646298     0.00064523    -0.00040286    -0.00026766
     6
  Step:    10            Position(A)                                  Velocity(au)
C        -0.03244262     0.01460861     0.02343122    -0.00006269     0.00016779    -0.00060659
N        -0.04902802    -0.07971320     1.28954998     0.00013219    -0.00015437     0.00064631
H         0.93933837     0.04481468    -0.51981992     0.00066293    -0.00020706    -0.00090340
H         0.80846873     0.05626805     1.83344503    -0.00131979     0.00014663    -0.00164350
H        -0.88449281     0.04456711     1.94709147    -0.00114727     0.00060484     0.00105776
H        -1.00835193     0.11822047    -0.56792067     0.00071428    -0.00039853    -0.00026394
     6
  Step:    11            Position(A)                                  Velocity(au)
C        -0.03280313     0.01554747     0.01992965    -0.00006740     0.00017190    -0.00065717
N        -0.04833331    -0.08057956     1.29326805     0.00011728    -0.00015929     0.00069551
H         0.94294241     0.04366897    -0.52490678     0.00063811    -0.00020827    -0.00093434
H         0.80140073     0.05715077     1.82456284    -0.00121506     0.00017704    -0.00155553
H        -0.89050160     0.04786574     1.95256940    -0.00102046     0.00058839     0.00092027
H        -1.00423717     0.11603675    -0.56937196     0.00077081    -0.00039201    -0.00026456
     6
  Step:    12            Position(A)                                  Velocity(au)
C        -0.03318706     0.01650741     0.01617223    -0.00007081     0.00017462    -0.00069603
N        -0.04773261    -0.08147266     1.29723247     0.00009785    -0.00016334     0.00073212
H         0.94638679     0.04251412    -0.53014051     0.00060280    -0.00020940    -0.00095253
H         0.79504738     0.05822363     1.81626289    -0.00105656     0.00021469    -0.00142692
H        -0.89576468     0.05106634     1.95725659    -0.00087530     0.00056702     0.00076977
H        -0.99983771     0.11389043    -0.57084290     0.00081311    -0.00038319    -0.00027016
     6
  Step:    13            Position(A)                                  Velocity(au)
C        -0.03358710     0.01748065     0.01222379    -0.00007285     0.00017593    -0.00072306
N        -0.04724999    -0.08238791     1.30137344     0.00007452    -0.00016657     0.00075605
H         0.94961601     0.04135073    -0.53545229     0.00055834    -0.00021041    -0.00095862
H         0.78970347     0.05952765     1.80876528    -0.00084838     0.00025936    -0.00126173
H        -0.90019216     0.05414326     1.96109155    -0.00071732     0.00054156     0.00061137
H        -0.99523521     0.11179442    -0.57236288     0.00083995    -0.00037213    -0.00028128
     6
  Step:    14            Position(A)                                  Velocity(au)
C        -0.03399540     0.01845944     0.00814927    -0.00007346     0.00017591    -0.00073867
N        -0.04690577    -0.08332088     1.30562146     0.00004810    -0.00016904     0.00076786
H         0.95258204     0.04017948    -0.54077718     0.00050631    -0.00021134    -0.00095373
H         0.78563393     0.06110148     1.80226291    -0.00059807     0.00031037    -0.00106644
H        -0.90372397     0.05707543     1.96404026    -0.00055198     0.00051303     0.00045001
H        -0.99051774     0.10976131    -0.57396392     0.00085074    -0.00035903    -0.00029833
     6
  Step:    15            Position(A)                                  Velocity(au)
C        -0.03440387     0.01943646     0.00401087    -0.00007264     0.00017470    -0.00074374
N        -0.04671522    -0.08426744     1.30991098     0.00001959    -0.00017087     0.00076873
H         0.95524549     0.03900090    -0.54605644     0.00044839    -0.00021229    -0.00093935
H         0.78305381     0.06297852     1.79690805    -0.00031619     0.00036657    -0.00084937
H        -0.90632941     0.05984747     1.96609507    -0.00038440     0.00048257     0.00029020
H        -0.98577617     0.10780253    -0.57567985     0.00084553    -0.00034419    -0.00032154
     6
  Step:    16            Position(A)                                  Velocity(au)
C        -0.03480447     0.02040527    -0.00013447    -0.00007044     0.00017252    -0.00073956
N        -0.04668753    -0.08522397     1.31418352    -0.00000988    -0.00017215     0.00076027
H         0.95757615     0.03781506    -0.55123959     0.00038620    -0.00021336    -0.00091720
H         0.78211224     0.06518432     1.79280272    -0.00001534     0.00042647    -0.00061994
H        -0.90800540     0.06245029     1.96727249    -0.00021916     0.00045138     0.00013582
H        -0.98110030     0.10592771    -0.57754524     0.00082500    -0.00032803    -0.00035100
     6
  Step:    17            Position(A)                                  Velocity(au)
C        -0.03518947     0.02136055    -0.00423706    -0.00006694     0.00016960    -0.00072758
N        -0.04682541    -0.08618734     1.31838989    -0.00003920    -0.00017301     0.00074432
H         0.95955263     0.03662140    -0.55628559     0.00032122    -0.00021471    -0.00088908
H         0.78288278     0.06773470     1.78999413     0.00029105     0.00048832    -0.00038768
H        -0.90877360     0.06488146     1.96760984    -0.00006013     0.00042061    -0.00000997
H        -0.97657527     0.10414413    -0.57959443     0.00079033    -0.00031099    -0.00038663
     6
  Step:    18            Position(A)                                  Velocity(au)
C        -0.03555168     0.02229832    -0.00825553    -0.00006226     0.00016618    -0.00070935
N        -0.04712507    -0.08715505     1.32249137    -0.00006730    -0.00017356     0.00072276
H         0.96116154     0.03541853    -0.56116327     0.00025467    -0.00021649    -0.00085671
H         0.78536086     0.07063474     1.78847552     0.00058985     0.00055029    -0.00016143
H        -0.90867658     0.06714498     1.96716124     0.00008955     0.00039135    -0.00014475
H        -0.97227887     0.10245658    -0.58186071     0.00074298    -0.00029349    -0.00042822
     6
  Step:    19            Position(A)                                  Velocity(au)
C        -0.03588456     0.02321592    -0.01215699    -0.00005649     0.00016246    -0.00068627
N        -0.04757678    -0.08812512     1.32645959    -0.00009322    -0.00017388     0.00069731
H         0.96239598     0.03420426    -0.56585076     0.00018745    -0.00021884    -0.00082156
H         0.78946842     0.07387872     1.78819173     0.00086913     0.00061061     0.00005127
H        -0.90777382     0.06925085     1.96599370     0.00022741     0.00036451    -0.00026675
H        -0.96827991     0.10086735    -0.58437556     0.00068455    -0.00027592    -0.00047542
     6
  Step:    20            Position(A)                                  Velocity(au)
C        -0.03618231     0.02411188    -0.01591630    -0.00004978     0.00015863    -0.00065954
N        -0.04816563    -0.08909602     1.33027542    -0.00011617    -0.00017403     0.00066937
H         0.96325399     0.03297567    -0.57033425     0.00012020    -0.00022185    -0.00078481
H         0.79506295     0.07745099     1.78904784     0.00111904     0.00066764     0.00024455
H        -0.90613803     0.07121395     1.96418350     0.00035147     0.00034089    -0.00037464
H        -0.96463723     0.09937651    -0.58716783     0.00061674    -0.00025859    -0.00052769
     6
  Step:    21            Position(A)                                  Velocity(au)
C        -0.03643987     0.02498568    -0.01951506    -0.00004222     0.00015482    -0.00063013
N        -0.04887277    -0.09006663     1.33392726    -0.00013553    -0.00017405     0.00063998
H         0.96373698     0.03172925    -0.57460636     0.00005334    -0.00022559    -0.00074734
H         0.80195275     0.08132713     1.79092002     0.00133201     0.00071993     0.00041427
H        -0.90385273     0.07305394     1.96181407     0.00046002     0.00032121    -0.00046735
H        -0.96139942     0.09798243    -0.59026266     0.00054119    -0.00024172    -0.00058428
     6
  Step:    22            Position(A)                                  Velocity(au)
C        -0.03665296     0.02583755    -0.02294003    -0.00003396     0.00015110    -0.00059874
N        -0.04967631    -0.09103603     1.33740892    -0.00015084    -0.00017395     0.00060985
H         0.96384858     0.03046115    -0.57866442    -0.00001286    -0.00023007    -0.00070972
H         0.80991006     0.08547565     1.79366544     0.00150271     0.00076633     0.00055783
H        -0.90101041     0.07479424     1.95897426     0.00055153     0.00030602    -0.00054392
H        -0.95860495     0.09668216    -0.59368047     0.00045957    -0.00022548    -0.00064422
     6
  Step:    23            Position(A)                                  Velocity(au)
C        -0.03681806     0.02666813    -0.02618176    -0.00002231     0.00014958    -0.00061534
N        -0.05055237    -0.09200351     1.34071766    -0.00016182    -0.00017735     0.00061862
H         0.96359382     0.02916747    -0.58250886    -0.00011610    -0.00026616    -0.00063703
H         0.81868479     0.08985995     1.79713118     0.00159969     0.00085354     0.00065128
H        -0.89771170     0.07646134     1.95575775     0.00063555     0.00025902    -0.00061901
H        -0.95628230     0.09547180    -0.59743578     0.00039549    -0.00016429    -0.00065927
     6
  Step:    24            Position(A)                                  Velocity(au)
C        -0.03690114     0.02750138    -0.02978460    -0.00000788     0.00015013    -0.00067992
N        -0.05147629    -0.09300872     1.34428990    -0.00016791    -0.00018377     0.00066630
H         0.96255722     0.02750056    -0.58575018    -0.00025390    -0.00032418    -0.00052916
H         0.82770368     0.09496965     1.80090972     0.00162110     0.00096720     0.00069547
H        -0.89394105     0.07767531     1.95208894     0.00071003     0.00018849    -0.00069416
H        -0.95420586     0.09485477    -0.60101361     0.00035001    -0.00006671    -0.00062927
     6
  Step:    25            Position(A)                                  Velocity(au)
C        -0.03690559     0.02833680    -0.03373904     0.00000598     0.00015038    -0.00074096
N        -0.05241869    -0.09404610     1.34812350    -0.00016867    -0.00018914     0.00071180
H         0.96077172     0.02556429    -0.58839036    -0.00038446    -0.00036730    -0.00042281
H         0.83670314     0.10061023     1.80486124     0.00159603     0.00105081     0.00071568
H        -0.88981980     0.07855642     1.94804223     0.00076019     0.00013633    -0.00075282
H        -0.95239204     0.09473033    -0.60443001     0.00030087     0.00001666    -0.00060213
     6
  Step:    26            Position(A)                                  Velocity(au)
C        -0.03683466     0.02917224    -0.03801730     0.00001920     0.00015011    -0.00079600
N        -0.05335038    -0.09511029     1.35219859    -0.00016416    -0.00019349     0.00075269
H         0.95828555     0.02341956    -0.59044800    -0.00050498    -0.00040093    -0.00032060
H         0.84543704     0.10664511     1.80886160     0.00152791     0.00111172     0.00071457
H        -0.88549471     0.07919004     1.94372448     0.00078201     0.00009822    -0.00079035
H        -0.95086292     0.09503991    -0.60770387     0.00024759     0.00009113    -0.00057809
     6
  Step:    27            Position(A)                                  Velocity(au)
C        -0.03669228     0.03000461    -0.04258328     0.00003160     0.00014917    -0.00084383
N        -0.05424270    -0.09619593     1.35648655    -0.00015455    -0.00019681     0.00078768
H         0.95516097     0.02110963    -0.59195249    -0.00061286    -0.00042750    -0.00022446
H         0.85367959     0.11296244     1.81280080     0.00142097     0.00115347     0.00069479
H        -0.88113091     0.07964775     1.93926068     0.00077274     0.00007234    -0.00080416
H        -0.94964114     0.09574285    -0.61085311     0.00019036     0.00015912    -0.00055693
     6
  Step:    28            Position(A)                                  Velocity(au)
C        -0.03648349     0.03083020    -0.04739594     0.00004295     0.00014751    -0.00088378
N        -0.05506810    -0.09729772     1.36095317    -0.00014012    -0.00019914     0.00081599
H         0.95147407     0.01866815    -0.59294271    -0.00070558    -0.00044846    -0.00013618
H         0.86123013     0.11946521     1.81658373     0.00128034     0.00117852     0.00065920
H        -0.87690618     0.07999402     1.93478683     0.00073077     0.00005763    -0.00079287
H        -0.94874724     0.09680838    -0.61389378     0.00012978     0.00022196    -0.00053834
     6
  Step:    29            Position(A)                                  Velocity(au)
C        -0.03621461     0.03164495    -0.05241122     0.00005304     0.00014508    -0.00091549
N        -0.05580087    -0.09841046     1.36556071    -0.00012129    -0.00020053     0.00083719
H         0.94731468     0.01612256    -0.59346687    -0.00078080    -0.00046477    -0.00005742
H         0.86791746     0.12606799     1.82013137     0.00111181     0.00118888     0.00061082
H        -0.87300451     0.08028864     1.93044366     0.00065586     0.00005328    -0.00075637
H        -0.94819798     0.09821112    -0.61683969     0.00006672     0.00028041    -0.00052195
     6
  Step:    30            Position(A)                                  Velocity(au)
C        -0.03589329     0.03244471    -0.05758377     0.00006161     0.00014191    -0.00093894
N        -0.05641790    -0.09952923     1.37026971    -0.00009864    -0.00020104     0.00085120
H         0.94278508     0.01349602    -0.59358173    -0.00083651    -0.00047721     0.00001033
H         0.87360262     0.13269545     1.82338113     0.00092152     0.00118652     0.00055271
H        -0.86960761     0.08058693     1.92636976     0.00054940     0.00005845    -0.00069581
H        -0.94800472     0.09992883    -0.61970223     0.00000229     0.00033495    -0.00050736
     6
  Step:    31            Position(A)                                  Velocity(au)
C        -0.03552850     0.03322547    -0.06286845     0.00006845     0.00013805    -0.00095437
N        -0.05689948    -0.10064950     1.37504077    -0.00007285    -0.00020078     0.00085824
H         0.93799829     0.01080777    -0.59335181    -0.00087109    -0.00048645     0.00006584
H         0.87818068     0.13928251     1.82628701     0.00071574     0.00117336     0.00048784
H        -0.86688577     0.08093963     1.92269426     0.00041439     0.00007217    -0.00061361
H        -0.94817253     0.10194154    -0.62249024    -0.00006233     0.00038593    -0.00049413
     6
  Step:    32            Position(A)                                  Velocity(au)
C        -0.03513034     0.03398352    -0.06822166     0.00007338     0.00013358    -0.00096221
N        -0.05722989    -0.10176718     1.37983608    -0.00004469    -0.00019982     0.00085877
H         0.93307546     0.00807374    -0.59284789    -0.00088340    -0.00049314     0.00010813
H         0.88158059     0.14577433     1.82881887     0.00050052     0.00115138     0.00041904
H        -0.86498863     0.08139141     1.91953014     0.00025542     0.00009318    -0.00051330
H        -0.94869952     0.10423066    -0.62521004    -0.00012588     0.00043364    -0.00048184
     6
  Step:    33            Position(A)                                  Velocity(au)
C        -0.03470992     0.03471562    -0.07360245     0.00007626     0.00012859    -0.00096309
N        -0.05739802    -0.10287862     1.38462081    -0.00001503    -0.00019827     0.00085348
H         0.92814347     0.00530658    -0.59214558    -0.00087282    -0.00049784     0.00013659
H         0.88376426     0.15212674     1.83096159     0.00028158     0.00112253     0.00034886
H        -0.86403643     0.08197910     1.91696809     0.00007847     0.00011995    -0.00039935
H        -0.94957676     0.10677907    -0.62786538    -0.00018712     0.00047828    -0.00047006
     6
  Step:    34            Position(A)                                  Velocity(au)
C        -0.03427901     0.03541908    -0.07897340     0.00007700     0.00012319    -0.00095772
N        -0.05739765    -0.10398060     1.38936409     0.00001525    -0.00019619     0.00084315
H         0.92333146     0.00251598    -0.59132303    -0.00083934    -0.00050110     0.00015100
H         0.88472414     0.15830604     1.83271351     0.00006414     0.00108874     0.00027961
H        -0.86411256     0.08273053     1.91507194    -0.00010942     0.00015076    -0.00027681
H        -0.95078843     0.10957007    -0.63045764    -0.00024489     0.00051999    -0.00045838
     6
  Step:    35            Position(A)                                  Velocity(au)
C        -0.03384973     0.03609181    -0.08430107     0.00007559     0.00011750    -0.00094686
N        -0.05722764    -0.10507027     1.39403966     0.00004525    -0.00019366     0.00082867
H         0.91876725    -0.00029125    -0.59045875    -0.00078355    -0.00050345     0.00015154
H         0.88448082     0.16428902     1.83408515    -0.00014708     0.00105187     0.00021331
H        -0.86525877     0.08366321     1.91387590    -0.00030066     0.00018369    -0.00015102
H        -0.95231245     0.11258783    -0.63298597    -0.00029819     0.00055895    -0.00044644
     6
  Step:    36            Position(A)                                  Velocity(au)
C        -0.03343419     0.03673233    -0.08955641     0.00007205     0.00011160    -0.00093130
N        -0.05689190    -0.10614511     1.39862608     0.00007410    -0.00019072     0.00081087
H         0.91457378    -0.00311101    -0.58962929    -0.00070665    -0.00050532     0.00013876
H         0.88308018     0.17006272     1.83509768    -0.00034792     0.00101370     0.00015171
H        -0.86747305     0.08478366     1.91338398    -0.00048754     0.00021680    -0.00002723
H        -0.95412125     0.11581744    -0.63544751    -0.00034613     0.00059535    -0.00043390
     6
  Step:    37            Position(A)                                  Velocity(au)
C        -0.03304414     0.03733968    -0.09471462     0.00006648     0.00010559    -0.00091179
N        -0.05639905    -0.10720287     1.40310655     0.00010101    -0.00018743     0.00079055
H         0.91086566    -0.00594159    -0.58890718    -0.00061047    -0.00050711     0.00011361
H         0.88059048     0.17562390     1.83578152    -0.00053468     0.00097591     0.00009631
H        -0.87071034     0.08608745     1.91357140    -0.00066274     0.00024819     0.00008974
H        -0.95618280     0.11924489    -0.63783768    -0.00038803     0.00062936    -0.00042046
     6
  Step:    38            Position(A)                                  Velocity(au)
C        -0.03269057     0.03791339    -0.09975505     0.00005906     0.00009955    -0.00088903
N        -0.05576203    -0.10824155     1.40746860     0.00012528    -0.00018382     0.00076841
H         0.90774545    -0.00878320    -0.58835856    -0.00049747    -0.00050911     0.00007741
H         0.87709961     0.18097857     1.83617496    -0.00070415     0.00094007     0.00004840
H        -0.87488597     0.08755980     1.91438779    -0.00081972     0.00027613     0.00019577
H        -0.95846153     0.12285707    -0.64015051    -0.00042337     0.00066114    -0.00040591
     6
  Step:    39            Position(A)                                  Velocity(au)
C        -0.03238333     0.03845340    -0.10466104     0.00005003     0.00009353    -0.00086370
N        -0.05499746    -0.10925942     1.41170346     0.00014630    -0.00017994     0.00074505
H         0.90530004    -0.01163752    -0.58804117    -0.00037069    -0.00051154     0.00003181
H         0.87271250     0.18614133     1.83632305    -0.00085355     0.00090764     0.00000907
H        -0.87988133     0.08917676     1.91576164    -0.00095314     0.00029912     0.00028758
H        -0.96091942     0.12664171    -0.64237897    -0.00045180     0.00069083    -0.00039008
     6
  Step:    40            Position(A)                                  Velocity(au)
C        -0.03213080     0.03895995    -0.10941947     0.00003965     0.00008759    -0.00083638
N        -0.05412496    -0.11025503     1.41580542     0.00016363    -0.00017585     0.00072094
H         0.90359761    -0.01450716    -0.58800267    -0.00023367    -0.00051451    -0.00002128
H         0.86754869     0.19113470     1.83627641    -0.00098055     0.00087998    -0.00002081
H        -0.88555126     0.09090684     1.91760567    -0.00105900     0.00031601     0.00036287
H        -0.96351702     0.13058719    -0.64451539    -0.00047317     0.00071857    -0.00037289
     6
  Step:    41            Position(A)                                  Velocity(au)
C        -0.03193961     0.03943353    -0.11402058     0.00002827     0.00008175    -0.00080765
N        -0.05316632    -0.11122730     1.41977118     0.00017695    -0.00017162     0.00069646
H         0.90268515    -0.01739516    -0.58827928    -0.00009034    -0.00051805    -0.00007973
H         0.86173967     0.19598869     1.83609015    -0.00108325     0.00085833    -0.00004054
H        -0.89173208     0.09271308     1.91982234    -0.00113478     0.00032601     0.00042033
H        -0.96621440     0.13468285    -0.64655176    -0.00048746     0.00074451    -0.00035429
     6
  Step:    42            Position(A)                                  Velocity(au)
C        -0.03181444     0.03987476    -0.11845764     0.00001624     0.00007603    -0.00077801
N        -0.05214477    -0.11217557     1.42359929     0.00018608    -0.00016732     0.00067187
H         0.90258668    -0.02030449    -0.58889495     0.00005517    -0.00052211    -0.00014136
H         0.85542639     0.20074003     1.83582279    -0.00116024     0.00084383    -0.00004960
H        -0.89825021     0.09455507     1.92230942    -0.00117944     0.00032867     0.00045955
H        -0.96897206     0.13891877    -0.64848016    -0.00049484     0.00076880    -0.00033434
     6
  Step:    43            Position(A)                                  Velocity(au)
C        -0.03175784     0.04028437    -0.12272665     0.00000395     0.00007045    -0.00074791
N        -0.05108409    -0.11309969     1.42728954     0.00019098    -0.00016305     0.00064736
H         0.90330250    -0.02323767    -0.58986112     0.00019865    -0.00052658    -0.00020395
H         0.84875633     0.20543136     1.83553513    -0.00121068     0.00083744    -0.00004772
H        -0.90493024     0.09639093     1.92496485    -0.00119329     0.00032389     0.00048096
H        -0.97175177     0.14328588    -0.65029308    -0.00049559     0.00079159    -0.00031312
     6
  Step:    44            Position(A)                                  Velocity(au)
C        -0.03177027     0.04066308    -0.12682604    -0.00000825     0.00006501    -0.00071776
N        -0.05000793    -0.11400000     1.43084265     0.00019174    -0.00015890     0.00062307
H         0.90480940    -0.02619642    -0.59117697     0.00033606    -0.00053130    -0.00026541
H         0.84188005     0.21011015     1.83528882    -0.00123435     0.00083990    -0.00003489
H        -0.91160203     0.09817912     1.92769090    -0.00117778     0.00031187     0.00048559
H        -0.97451726     0.14777592    -0.65198367    -0.00049011     0.00081305    -0.00029077
     6