|===============================================================================
|
|  DFTB+ release 20.1
|
|  Copyright (C) 2006 - 2020  DFTB+ developers group
|
|===============================================================================
|
|  When publishing results obtained with DFTB+, please cite the following
|  reference:
|
|  * DFTB+, a software package for efficient approximate density functional
|    theory based atomistic simulations, J. Chem. Phys. 152, 124101 (2020).
|    [doi: 10.1063/1.5143190]
|
|  You should also cite additional publications crediting the parametrization
|  data you use. Please consult the documentation of the SK-files for the
|  references.
|
|===============================================================================

Reading input file 'dftb_in.hsd'
Parser version: 8

--------------------------------------------------------------------------------
Reading SK-files:
Done.


Processed input in HSD format written to 'dftb_pin.hsd'

Starting initialization...
--------------------------------------------------------------------------------
OpenMP threads:              1
Chosen random seed:          511740549
Mode:                        Static calculation
Self consistent charges:     Yes
SCC-tolerance:                 0.100000E-05
Max. scc iterations:                   1000
Shell resolved Hubbard:      No
Spin polarisation:           No
Nr. of up electrons:             6.000000
Nr. of down electrons:           6.000000
Periodic boundaries:         No
Electronic solver:           Relatively robust
Maximal SCC-cycles:                    1000
Initial charges:             Set automatically (system chrg:   0.100E+01)
Included shells:             C:  s, p
                             N:  s, p
                             H:  s
Spin coupling constants:     C   1(s)-1(s):  -0.455900E-01
                             C   1(s)-2(p):  -0.293000E-01
                             C   2(p)-1(s):  -0.293000E-01
                             C   2(p)-2(p):  -0.275500E-01
                             N   1(s)-1(s):  -0.468700E-01
                             N   1(s)-2(p):  -0.317000E-01
                             N   2(p)-1(s):  -0.317000E-01
                             N   2(p)-2(p):  -0.307200E-01
                             H   1(s)-1(s):  -0.792500E-01
Range separated hybrid:      Yes
  Screening parameter omega:   0.300000E+00
  Range separated algorithm:   MatrixBased
Extra options:
                             Mulliken analysis
                             Force calculation
Force type                   original
                             Eigenvector printing


REKS Calcuation:             Yes
SSR(2,2) Calcuation:         Yes
Energy Functional:           (PPS+OSS)/2
Number of Core Orbitals:                  5
Number of Active Orbitals:                2
Number of Basis:                         12
Number of States:                         2
State-Averaging Weight:          0.500000
                                 0.500000
State of Interest:                        1
Initial Guess:               Diagonalize H0 matrix
Newton-Raphson for FON opt:  Yes
NR max. Iterations:                      50
Level Shifting:              Yes
Shift Value:                     0.300000
W Scale Factor:              C  =    3.000000
                             N  =    3.000000
                             H  =    3.000000
Transition Dipole:           No
Gradient of Microstate:      No
CP-REKS Solver:              Preconditioned Conjugate-Gradient
CG max. Iterations:                     100
CG Tolerance:                  0.100000E-07
Memory for A and Hxc:        Direct Updating Without Saving
Non-Adiabatic Coupling:      Yes

--------------------------------------------------------------------------------

***  Geometry step: 0

  iSCC       reks energy        Diff energy         x_a       SCC error   
    1       -6.2671581315       0.0000000000     0.999868    1.20163417
    2       -6.2758598174      -0.0087016859     0.999931    0.05717652
    3       -6.2786948718      -0.0028350544     0.999955    0.01957917
    4       -6.2800105791      -0.0013157072     0.999966    0.00924857
    5       -6.2806594043      -0.0006488253     0.999971    0.00766977
    6       -6.2809845332      -0.0003251289     0.999974    0.00600327
    7       -6.2811480010      -0.0001634678     0.999976    0.00453068
    8       -6.2812301741      -0.0000821731     0.999977    0.00333946
    9       -6.2812714640      -0.0000412899     0.999977    0.00242354
   10       -6.2812922216      -0.0000207576     0.999977    0.00174088
   11       -6.2813026763      -0.0000104547     0.999978    0.00124204
   12       -6.2813079594      -0.0000052830     0.999978    0.00088217
   13       -6.2813106419      -0.0000026825     0.999978    0.00062473
   14       -6.2813120127      -0.0000013707     0.999978    0.00044159
   15       -6.2813127186      -0.0000007059     0.999978    0.00031180
   16       -6.2813130855      -0.0000003669     0.999978    0.00022004
   17       -6.2813132782      -0.0000001927     0.999978    0.00015526
   18       -6.2813133805      -0.0000001024     0.999978    0.00011803
   19       -6.2813134356      -0.0000000551     0.999978    0.00009191
   20       -6.2813134656      -0.0000000300     0.999978    0.00007163
   21       -6.2813134822      -0.0000000166     0.999978    0.00005587
   22       -6.2813134914      -0.0000000093     0.999978    0.00004361
   23       -6.2813134967      -0.0000000052     0.999978    0.00003405
   24       -6.2813134997      -0.0000000030     0.999978    0.00002660
   25       -6.2813135014      -0.0000000017     0.999978    0.00002079
   26       -6.2813135024      -0.0000000010     0.999978    0.00001626
   27       -6.2813135030      -0.0000000006     0.999978    0.00001276
   28       -6.2813135034      -0.0000000004     0.999978    0.00001008
   29       -6.2813135036      -0.0000000002     0.999978    0.00000795
   30       -6.2813135037      -0.0000000001     0.999978    0.00000627
   31       -6.2813135038      -0.0000000001     0.999978    0.00000494
   32       -6.2813135039      -0.0000000000     0.999978    0.00000389
   33       -6.2813135039      -0.0000000000     0.999978    0.00000306
   34       -6.2813135039      -0.0000000000     0.999978    0.00000241
   35       -6.2813135039      -0.0000000000     0.999978    0.00000189
   36       -6.2813135039      -0.0000000000     0.999978    0.00000149
   37       -6.2813135039      -0.0000000000     0.999978    0.00000117
   38       -6.2813135039      -0.0000000000     0.999978    0.00000092
  
--------------------------------------------------
 Final SA-REKS(2,2) energy:      -6.28131350
  
 State     Energy      FON(1)    FON(2)   Spin
  PPS   -6.41297587   1.999956  0.000044  0.00
  OSS   -6.14965114   1.000000  1.000000  0.00
 Trip   -6.22656887   1.000000  1.000000  1.00
--------------------------------------------------

 Lagrangian Wab:  -0.00183804 -0.00183797

--------------------------------------------------
 SSR: 2SI-2SA-REKS(2,2) Hamiltonian matrix
               PPS           OSS
   PPS    -6.41297587   -0.00258712
   OSS    -0.00258712   -6.14965114
--------------------------------------------------

----------------------------------------------------------------
 SSR: 2SI-2SA-REKS(2,2) states
                    E_n       C_{PPS}    C_{OSS}
 SSR state  1   -6.41300129  -0.999952  -0.009823
 SSR state  2   -6.14962572   0.009823  -0.999952
----------------------------------------------------------------

 unrelaxed SSR FONs for S0:  1.999859  0.000141

Total Energy:                       -6.4130012855 H         -174.5066 eV
Extrapolated to 0:                  -6.4130012855 H         -174.5066 eV

----------------------------------------------------------------------------------
 Solving CP-REKS equation for  1 state vector...
----------------------------------------------------------------------------------
  CG solver: Constructing Y initial guess
  CG solver: Iteration    1    eps =    0.000033614394
  CG solver: Iteration    2    eps =    0.000003943429
  CG solver: Iteration    3    eps =    0.000000275108
  CG solver: Iteration    4    eps =    0.000000012054
  CG solver: Iteration    5    eps =    0.000000003480
  Convergence reached in CG solver after    5 iterations
  CG solver: Calculating converged R, Z, Q2 matrix
----------------------------------------------------------------------------------

----------------------------------------------------------------------------------
 Solving CP-REKS equation for SI between  1 and  2 state vectors...
----------------------------------------------------------------------------------
  CG solver: Constructing Y initial guess
  CG solver: Iteration    1    eps =    0.000512533101
  CG solver: Iteration    2    eps =    0.000205175573
  CG solver: Iteration    3    eps =    0.000071298054
  CG solver: Iteration    4    eps =    0.000001103772
  CG solver: Iteration    5    eps =    0.000000142947
  CG solver: Iteration    6    eps =    0.000000008257
  Convergence reached in CG solver after    6 iterations
  CG solver: Calculating converged R, Z, Q2 matrix
----------------------------------------------------------------------------------

--------------------------------------------------
 Gradient Information
--------------------------------------------------
           1 st state (SSR)
     0.00869509     0.00801895     0.05024729
    -0.02721031     0.00422330    -0.06449790
    -0.00537127    -0.00218755     0.00257779
     0.00492652    -0.00299007     0.01106026
     0.01533176    -0.00226874     0.00592913
     0.00362820    -0.00479589    -0.00531657

           2 st state (SSR)
    -0.00906929    -0.01059318     0.16206792
     0.01221112     0.01586932    -0.19498851
     0.00486861     0.01564310     0.02056078
     0.00006262    -0.00743438    -0.00098776
    -0.00747373     0.00196367    -0.00166312
    -0.00059933    -0.01544852     0.01501067
--------------------------------------------------
 Coupling Information
--------------------------------------------------
 between  1 and  2 states
--------------------------------------------------
 g vector - difference gradient
     0.00890460     0.00939526    -0.05593438
    -0.01971964    -0.00596500     0.06525425
    -0.00526054    -0.00896089    -0.00899497
     0.00230881     0.00224380     0.00605613
     0.01153748    -0.00203478     0.00378514
     0.00222929     0.00532160    -0.01016617

 h vector - derivative coupling
    -0.00105329    -0.00444806     0.00067512
     0.00026063     0.00716903     0.00018591
     0.00710521     0.00223115     0.00008833
     0.00629061    -0.00107986    -0.00157539
    -0.00674449    -0.00416448     0.00059611
    -0.00585867     0.00029222     0.00002991

 G vector - GDV
     0.00888219     0.00930607    -0.05591032
    -0.01971071    -0.00582301     0.06524530
    -0.00511994    -0.00891533    -0.00899150
     0.00243195     0.00222216     0.00602401
     0.01140275    -0.00211620     0.00379612
     0.00211376     0.00532632    -0.01016362

 H vector - DCV - non-adiabatic coupling
    -0.00466263    -0.01758623     0.00673514
     0.00246033     0.02765948    -0.00416174
     0.02736467     0.00913815     0.00100628
     0.02370774    -0.00426667    -0.00643211
    -0.02646356    -0.01565710     0.00198058
    -0.02240656     0.00071236     0.00087185
--------------------------------------------------


--------------------------------------------------------------------------------
DFTB+ running times                          cpu [s]             wall clock [s]
--------------------------------------------------------------------------------
SCC                                    +     0.02  ( 63.1%)      0.02  ( 54.1%)
Post-SCC processing                    +     0.01  ( 32.6%)      0.01  ( 29.7%)
--------------------------------------------------------------------------------
Missing                                +     0.00  (  4.3%)      0.01  ( 16.2%)
Total                                  =     0.03  (100.0%)      0.04  (100.0%)
--------------------------------------------------------------------------------
