 Fermi distribution function

Calculation with static geometry


********************************************************************************
 iSCC Total electronic   Diff electronic      SCC error    
   14   -0.52658566E+01   -0.19917934E-09    0.33443371E-07
********************************************************************************

 Total charge:     1.00000000

 Atomic gross charges (e)
 Atom           Charge
    1       0.31296356
    2      -0.20925923
    3       0.18010305
    4       0.26107929
    5       0.27204955
    6       0.18306377

Nr. of electrons (up):     12.00000000
Atom populations (up)
 Atom       Population
    1       3.68703644
    2       5.20925923
    3       0.81989695
    4       0.73892071
    5       0.72795045
    6       0.81693623

l-shell populations (up)
 Atom Sh.   l       Population
    1   1   0       1.41499176
    1   2   1       2.27204467
    2   1   0       1.51915952
    2   2   1       3.69009971
    3   1   0       0.81989695
    4   1   0       0.73892071
    5   1   0       0.72795045
    6   1   0       0.81693623

Orbital populations (up)
 Atom Sh.   l   m       Population  Label
    1   1   0   0       1.41499176  s
    1   2   1  -1       0.43112962  p_y
    1   2   1   0       0.86024735  p_z
    1   2   1   1       0.98066770  p_x
    2   1   0   0       1.51915952  s
    2   2   1  -1       1.40781268  p_y
    2   2   1   0       1.04368402  p_z
    2   2   1   1       1.23860300  p_x
    3   1   0   0       0.81989695  s
    4   1   0   0       0.73892071  s
    5   1   0   0       0.72795045  s
    6   1   0   0       0.81693623  s

Fermi level:                        -0.5083499062 H          -13.8329 eV
Band energy:                        -8.6110622422 H         -234.3189 eV
TS:                                  0.0000000000 H            0.0000 eV
Band free energy (E-TS):            -8.6110622422 H         -234.3189 eV
Extrapolated E(0K):                 -8.6110622422 H         -234.3189 eV
Input / Output electrons (q):     12.0000000000     12.0000000000

Energy H0:                          -5.3999104329 H         -146.9390 eV
Energy SCC:                          0.1340538281 H            3.6478 eV
Total Electronic energy:            -5.2658566048 H         -143.2912 eV
Repulsive energy:                    0.1313563927 H            3.5744 eV
Total energy:                       -5.1345002121 H         -139.7169 eV
Extrapolated to 0:                  -5.1345002121 H         -139.7169 eV
Total Mermin free energy:           -5.1345002121 H         -139.7169 eV
Force related energy:               -5.1345002121 H         -139.7169 eV

SCC converged

Excitation Energy:                   0.0960520226 H            2.6137 eV

Total Forces
    1      0.011349003220      0.002745469214      0.038739333705
    2     -0.021934292329      0.014359225427     -0.038553898194
    3     -0.012368491933      0.004279452299      0.007719822514
    4      0.005997769836     -0.009333718140      0.002633934652
    5      0.017930713382     -0.001991388563     -0.008871135760
    6     -0.000974702176     -0.010059040237     -0.001668056917

Maximal derivative component:        0.387393E-01 au


