     6
  Step:   120            Position(A)                                  Velocity(au)
C        -0.03448834     0.09815703    -0.01401274     0.00000674     0.00024095    -0.00035638
N        -0.04399593    -0.05239219     1.34588961     0.00002786    -0.00019331     0.00021409
H         0.83527904    -0.40285901    -0.64142634     0.00027104    -0.00078418     0.00054392
H         0.86328807    -0.17802255     1.84194884    -0.00006715     0.00071070     0.00008470
H        -0.95830958    -0.21582612     1.80686476    -0.00029322     0.00031814     0.00020404
H        -0.93085363    -0.31466787    -0.65131094    -0.00037812    -0.00042951     0.00043899
