|===============================================================================
|
|  DFTB+ release 20.1
|
|  Copyright (C) 2006 - 2020  DFTB+ developers group
|
|===============================================================================
|
|  When publishing results obtained with DFTB+, please cite the following
|  reference:
|
|  * DFTB+, a software package for efficient approximate density functional
|    theory based atomistic simulations, J. Chem. Phys. 152, 124101 (2020).
|    [doi: 10.1063/1.5143190]
|
|  You should also cite additional publications crediting the parametrization
|  data you use. Please consult the documentation of the SK-files for the
|  references.
|
|===============================================================================

Reading input file 'dftb_in.hsd'
Parser version: 8

--------------------------------------------------------------------------------
Reading SK-files:
Done.


Processed input in HSD format written to 'dftb_pin.hsd'

Starting initialization...
--------------------------------------------------------------------------------
OpenMP threads:              1
Chosen random seed:          499888862
Mode:                        Static calculation
Self consistent charges:     Yes
SCC-tolerance:                 0.100000E-05
Max. scc iterations:                   1000
Shell resolved Hubbard:      No
Spin polarisation:           No
Nr. of up electrons:            16.000000
Nr. of down electrons:          16.000000
Periodic boundaries:         No
Electronic solver:           Relatively robust
Maximal SCC-cycles:                    1000
Initial charges:             Set automatically (system chrg:   0.100E+01)
Included shells:             C:  s, p
                             H:  s
                             N:  s, p
Spin coupling constants:     C   1(s)-1(s):  -0.455900E-01
                             C   1(s)-2(p):  -0.293000E-01
                             C   2(p)-1(s):  -0.293000E-01
                             C   2(p)-2(p):  -0.275500E-01
                             H   1(s)-1(s):  -0.792500E-01
                             N   1(s)-1(s):  -0.468700E-01
                             N   1(s)-2(p):  -0.317000E-01
                             N   2(p)-1(s):  -0.317000E-01
                             N   2(p)-2(p):  -0.307200E-01
Range separated hybrid:      Yes
  Screening parameter omega:   0.300000E+00
  Range separated algorithm:   MatrixBased
Extra options:
                             Mulliken analysis
                             Force calculation
Force type                   original
                             Eigenvector printing


REKS Calcuation:             Yes
SSR(2,2) Calcuation:         Yes
Energy Functional:           (PPS+OSS)/2
Number of Core Orbitals:                 15
Number of Active Orbitals:                2
Number of Basis:                         32
Number of States:                         2
State-Averaging Weight:          0.500000
                                 0.500000
State of Interest:                        1
Initial Guess:               Diagonalize H0 matrix
Newton-Raphson for FON opt:  Yes
NR max. Iterations:                      50
Level Shifting:              Yes
Shift Value:                     0.300000
W Scale Factor:              C  =    3.200000
                             H  =    3.200000
                             N  =    3.200000
Transition Dipole:           No
Gradient of Microstate:      No
CP-REKS Solver:              Preconditioned Conjugate-Gradient
CG max. Iterations:                     100
CG Tolerance:                  0.100000E-07
Memory for A and Hxc:        Direct Updating Without Saving
Non-Adiabatic Coupling:      Yes

--------------------------------------------------------------------------------

***  Geometry step: 0

  iSCC       reks energy        Diff energy         x_a       SCC error   
    1      -16.3842828183       0.0000000000     0.994424    1.23614510
    2      -16.4078024538      -0.0235196355     0.999603    0.04653291
    3      -16.4129206797      -0.0051182258     0.999896    0.02135946
    4      -16.4146857469      -0.0017650672     0.999950    0.01311084
    5      -16.4154957463      -0.0008099994     0.999968    0.00892702
    6      -16.4159253821      -0.0004296358     0.999976    0.00633422
    7      -16.4161734239      -0.0002480418     0.999981    0.00464990
    8      -16.4163256561      -0.0001522322     0.999984    0.00351218
    9      -16.4164244133      -0.0000987572     0.999986    0.00271951
   10      -16.4164922287      -0.0000678154     0.999987    0.00215355
   11      -16.4165416052      -0.0000493765     0.999988    0.00174145
   12      -16.4165796564      -0.0000380512     0.999989    0.00143649
   13      -16.4166105049      -0.0000308485     0.999990    0.00120763
   14      -16.4166365803      -0.0000260754     0.999990    0.00103369
   15      -16.4166593406      -0.0000227603     0.999991    0.00089985
   16      -16.4166796797      -0.0000203391     0.999991    0.00079561
   17      -16.4166981603      -0.0000184806     0.999991    0.00071339
   18      -16.4167151479      -0.0000169877     0.999992    0.00064769
   19      -16.4167308894      -0.0000157414     0.999992    0.00061445
   20      -16.4167455583      -0.0000146689     0.999992    0.00060516
   21      -16.4167592825      -0.0000137243     0.999992    0.00061797
   22      -16.4167721607      -0.0000128782     0.999993    0.00062762
   23      -16.4167842716      -0.0000121110     0.999993    0.00063263
   24      -16.4167956809      -0.0000114093     0.999993    0.00063407
   25      -16.4168064444      -0.0000107635     0.999993    0.00063278
   26      -16.4168166109      -0.0000101665     0.999994    0.00062940
   27      -16.4168262236      -0.0000096127     0.999994    0.00062442
   28      -16.4168353213      -0.0000090977     0.999994    0.00061824
   29      -16.4168439391      -0.0000086178     0.999994    0.00061116
   30      -16.4168521091      -0.0000081700     0.999994    0.00060342
   31      -16.4168598605      -0.0000077514     0.999994    0.00059520
   32      -16.4168672203      -0.0000073598     0.999995    0.00058665
   33      -16.4168742134      -0.0000069931     0.999995    0.00057787
   34      -16.4168808626      -0.0000066492     0.999995    0.00056897
   35      -16.4168871892      -0.0000063266     0.999995    0.00056000
   36      -16.4168932128      -0.0000060236     0.999995    0.00055103
   37      -16.4168989518      -0.0000057389     0.999995    0.00054209
   38      -16.4169044229      -0.0000054712     0.999995    0.00053321
   39      -16.4169096421      -0.0000052192     0.999995    0.00052443
   40      -16.4169146239      -0.0000049818     0.999996    0.00051576
   41      -16.4169193820      -0.0000047581     0.999996    0.00050721
   42      -16.4169239291      -0.0000045471     0.999996    0.00049880
   43      -16.4169282772      -0.0000043481     0.999996    0.00049054
   44      -16.4169324372      -0.0000041600     0.999996    0.00048243
   45      -16.4169364196      -0.0000039824     0.999996    0.00047448
   46      -16.4169402340      -0.0000038144     0.999996    0.00046669
   47      -16.4169438895      -0.0000036555     0.999996    0.00045905
   48      -16.4169473946      -0.0000035051     0.999996    0.00045158
   49      -16.4169507572      -0.0000033626     0.999996    0.00044426
   50      -16.4169539846      -0.0000032275     0.999997    0.00043711
   51      -16.4169570841      -0.0000030994     0.999997    0.00043011
   52      -16.4169600619      -0.0000029779     0.999997    0.00042326
   53      -16.4169629245      -0.0000028625     0.999997    0.00041657
   54      -16.4169656774      -0.0000027529     0.999997    0.00041003
   55      -16.4169683261      -0.0000026488     0.999997    0.00040364
   56      -16.4169708758      -0.0000025497     0.999997    0.00039739
   57      -16.4169733313      -0.0000024555     0.999997    0.00039128
   58      -16.4169756971      -0.0000023658     0.999997    0.00038531
   59      -16.4169779774      -0.0000022803     0.999997    0.00037948
   60      -16.4169801764      -0.0000021989     0.999997    0.00037378
   61      -16.4169822977      -0.0000021213     0.999997    0.00036822
   62      -16.4169843450      -0.0000020473     0.999997    0.00036277
   63      -16.4169863218      -0.0000019767     0.999997    0.00035745
   64      -16.4169882310      -0.0000019093     0.999997    0.00035226
   65      -16.4169900759      -0.0000018449     0.999997    0.00034717
   66      -16.4169918593      -0.0000017834     0.999997    0.00034221
   67      -16.4169935838      -0.0000017245     0.999997    0.00033735
   68      -16.4169952521      -0.0000016683     0.999998    0.00033261
   69      -16.4169968666      -0.0000016145     0.999998    0.00032797
   70      -16.4169984295      -0.0000015629     0.999998    0.00032343
   71      -16.4169999432      -0.0000015136     0.999998    0.00031900
   72      -16.4170014095      -0.0000014663     0.999998    0.00031466
   73      -16.4170028306      -0.0000014211     0.999998    0.00031042
   74      -16.4170042082      -0.0000013776     0.999998    0.00030627
   75      -16.4170055442      -0.0000013360     0.999998    0.00030222
   76      -16.4170068402      -0.0000012960     0.999998    0.00029825
   77      -16.4170080978      -0.0000012577     0.999998    0.00029436
   78      -16.4170093187      -0.0000012208     0.999998    0.00029057
   79      -16.4170105041      -0.0000011854     0.999998    0.00028685
   80      -16.4170116556      -0.0000011514     0.999998    0.00028321
   81      -16.4170127743      -0.0000011188     0.999998    0.00027965
   82      -16.4170138617      -0.0000010873     0.999998    0.00027616
   83      -16.4170149188      -0.0000010571     0.999998    0.00027275
   84      -16.4170159468      -0.0000010280     0.999998    0.00026941
   85      -16.4170169468      -0.0000010000     0.999998    0.00026614
   86      -16.4170179199      -0.0000009731     0.999998    0.00026294
   87      -16.4170188670      -0.0000009471     0.999998    0.00025980
   88      -16.4170197891      -0.0000009221     0.999998    0.00025673
   89      -16.4170206870      -0.0000008980     0.999998    0.00025372
   90      -16.4170215618      -0.0000008747     0.999998    0.00025077
   91      -16.4170224140      -0.0000008523     0.999998    0.00024788
   92      -16.4170232447      -0.0000008307     0.999998    0.00024505
   93      -16.4170240545      -0.0000008098     0.999998    0.00024228
   94      -16.4170248441      -0.0000007896     0.999998    0.00023956
   95      -16.4170256143      -0.0000007702     0.999998    0.00023690
   96      -16.4170263657      -0.0000007514     0.999998    0.00023429
   97      -16.4170270989      -0.0000007332     0.999998    0.00023173
   98      -16.4170278146      -0.0000007157     0.999998    0.00022921
   99      -16.4170285134      -0.0000006987     0.999998    0.00022675
  100      -16.4170291957      -0.0000006823     0.999998    0.00022434
  101      -16.4170298622      -0.0000006665     0.999998    0.00022197
  102      -16.4170305133      -0.0000006511     0.999998    0.00021965
  103      -16.4170311496      -0.0000006363     0.999998    0.00021737
  104      -16.4170317716      -0.0000006219     0.999999    0.00021514
  105      -16.4170323796      -0.0000006080     0.999999    0.00021294
  106      -16.4170329741      -0.0000005946     0.999999    0.00021079
  107      -16.4170335556      -0.0000005815     0.999999    0.00020868
  108      -16.4170341245      -0.0000005689     0.999999    0.00020661
  109      -16.4170346811      -0.0000005566     0.999999    0.00020458
  110      -16.4170352259      -0.0000005447     0.999999    0.00020258
  111      -16.4170357591      -0.0000005332     0.999999    0.00020062
  112      -16.4170362811      -0.0000005221     0.999999    0.00019870
  113      -16.4170367924      -0.0000005112     0.999999    0.00019681
  114      -16.4170372931      -0.0000005007     0.999999    0.00019495
  115      -16.4170377837      -0.0000004905     0.999999    0.00019313
  116      -16.4170382643      -0.0000004806     0.999999    0.00019134
  117      -16.4170387353      -0.0000004710     0.999999    0.00018959
  118      -16.4170391970      -0.0000004617     0.999999    0.00018786
  119      -16.4170396497      -0.0000004527     0.999999    0.00018616
  120      -16.4170400936      -0.0000004439     0.999999    0.00018450
  121      -16.4170405289      -0.0000004353     0.999999    0.00018286
  122      -16.4170409559      -0.0000004270     0.999999    0.00018125
  123      -16.4170413748      -0.0000004189     0.999999    0.00017967
  124      -16.4170417858      -0.0000004111     0.999999    0.00017812
  125      -16.4170421893      -0.0000004034     0.999999    0.00017659
  126      -16.4170425853      -0.0000003960     0.999999    0.00017509
  127      -16.4170429741      -0.0000003888     0.999999    0.00017362
  128      -16.4170433559      -0.0000003818     0.999999    0.00017217
  129      -16.4170437308      -0.0000003749     0.999999    0.00017074
  130      -16.4170440991      -0.0000003683     0.999999    0.00016934
  131      -16.4170444609      -0.0000003618     0.999999    0.00016796
  132      -16.4170448163      -0.0000003555     0.999999    0.00016660
  133      -16.4170451657      -0.0000003494     0.999999    0.00016527
  134      -16.4170455091      -0.0000003434     0.999999    0.00016396
  135      -16.4170458466      -0.0000003375     0.999999    0.00016267
  136      -16.4170461785      -0.0000003319     0.999999    0.00016140
  137      -16.4170465048      -0.0000003263     0.999999    0.00016015
  138      -16.4170468258      -0.0000003210     0.999999    0.00015893
  139      -16.4170471415      -0.0000003157     0.999999    0.00015772
  140      -16.4170474521      -0.0000003106     0.999999    0.00015653
  141      -16.4170477576      -0.0000003056     0.999999    0.00015536
  142      -16.4170480584      -0.0000003007     0.999999    0.00015421
  143      -16.4170483543      -0.0000002960     0.999999    0.00015308
  144      -16.4170486457      -0.0000002913     0.999999    0.00015197
  145      -16.4170489325      -0.0000002868     0.999999    0.00015087
  146      -16.4170492149      -0.0000002824     0.999999    0.00014979
  147      -16.4170494930      -0.0000002781     0.999999    0.00014873
  148      -16.4170497669      -0.0000002739     0.999999    0.00014768
  149      -16.4170500367      -0.0000002698     0.999999    0.00014665
  150      -16.4170503025      -0.0000002658     0.999999    0.00014564
  151      -16.4170505644      -0.0000002619     0.999999    0.00014464
  152      -16.4170508224      -0.0000002581     0.999999    0.00014366
  153      -16.4170510768      -0.0000002543     0.999999    0.00014269
  154      -16.4170513275      -0.0000002507     0.999999    0.00014174
  155      -16.4170515746      -0.0000002471     0.999999    0.00014080
  156      -16.4170518183      -0.0000002437     0.999999    0.00013988
  157      -16.4170520586      -0.0000002403     0.999999    0.00013897
  158      -16.4170522955      -0.0000002370     0.999999    0.00013807
  159      -16.4170525292      -0.0000002337     0.999999    0.00013719
  160      -16.4170527598      -0.0000002305     0.999999    0.00013632
  161      -16.4170529872      -0.0000002274     0.999999    0.00013547
  162      -16.4170532116      -0.0000002244     0.999999    0.00013462
  163      -16.4170534331      -0.0000002214     0.999999    0.00013379
  164      -16.4170536516      -0.0000002185     0.999999    0.00013298
  165      -16.4170538673      -0.0000002157     0.999999    0.00013217
  166      -16.4170540802      -0.0000002129     0.999999    0.00013137
  167      -16.4170542904      -0.0000002102     0.999999    0.00013059
  168      -16.4170544980      -0.0000002076     0.999999    0.00012982
  169      -16.4170547030      -0.0000002050     0.999999    0.00012906
  170      -16.4170549054      -0.0000002024     0.999999    0.00012831
  171      -16.4170551053      -0.0000001999     0.999999    0.00012758
  172      -16.4170553028      -0.0000001975     0.999999    0.00012685
  173      -16.4170554979      -0.0000001951     0.999999    0.00012613
  174      -16.4170556907      -0.0000001928     0.999999    0.00012543
  175      -16.4170558812      -0.0000001905     0.999999    0.00012473
  176      -16.4170560694      -0.0000001882     0.999999    0.00012405
  177      -16.4170562555      -0.0000001861     0.999999    0.00012337
  178      -16.4170564394      -0.0000001839     0.999999    0.00012270
  179      -16.4170566212      -0.0000001818     0.999999    0.00012205
  180      -16.4170568009      -0.0000001797     0.999999    0.00012140
  181      -16.4170569786      -0.0000001777     0.999999    0.00012076
  182      -16.4170571544      -0.0000001757     0.999999    0.00012013
  183      -16.4170573282      -0.0000001738     0.999999    0.00011951
  184      -16.4170575001      -0.0000001719     0.999999    0.00011890
  185      -16.4170576701      -0.0000001700     0.999999    0.00011830
  186      -16.4170578384      -0.0000001682     0.999999    0.00011771
  187      -16.4170580048      -0.0000001664     0.999999    0.00011712
  188      -16.4170581695      -0.0000001647     0.999999    0.00011654
  189      -16.4170583325      -0.0000001630     0.999999    0.00011598
  190      -16.4170584937      -0.0000001613     0.999999    0.00011541
  191      -16.4170586534      -0.0000001596     0.999999    0.00011486
  192      -16.4170588114      -0.0000001580     0.999999    0.00011432
  193      -16.4170589678      -0.0000001564     0.999999    0.00011378
  194      -16.4170591227      -0.0000001549     0.999999    0.00011325
  195      -16.4170592760      -0.0000001533     0.999999    0.00011273
  196      -16.4170594279      -0.0000001518     0.999999    0.00011221
  197      -16.4170595782      -0.0000001504     0.999999    0.00011170
  198      -16.4170597272      -0.0000001489     0.999999    0.00011120
  199      -16.4170598747      -0.0000001475     0.999999    0.00011071
  200      -16.4170600208      -0.0000001461     0.999999    0.00011022
  201      -16.4170601656      -0.0000001448     0.999999    0.00010974
  202      -16.4170603090      -0.0000001434     0.999999    0.00010927
  203      -16.4170604511      -0.0000001421     0.999999    0.00010880
  204      -16.4170605920      -0.0000001408     0.999999    0.00010834
  205      -16.4170607316      -0.0000001396     0.999999    0.00010789
  206      -16.4170608699      -0.0000001383     0.999999    0.00010744
  207      -16.4170610070      -0.0000001371     0.999999    0.00010700
  208      -16.4170611429      -0.0000001359     0.999999    0.00010656
  209      -16.4170612777      -0.0000001348     0.999999    0.00010613
  210      -16.4170614113      -0.0000001336     0.999999    0.00010571
  211      -16.4170615438      -0.0000001325     0.999999    0.00010529
  212      -16.4170616752      -0.0000001314     0.999999    0.00010488
  213      -16.4170618055      -0.0000001303     0.999999    0.00010448
  214      -16.4170619347      -0.0000001292     0.999999    0.00010408
  215      -16.4170620629      -0.0000001282     0.999999    0.00010368
  216      -16.4170621900      -0.0000001271     0.999999    0.00010329
  217      -16.4170623161      -0.0000001261     0.999999    0.00010291
  218      -16.4170624413      -0.0000001251     0.999999    0.00010253
  219      -16.4170625654      -0.0000001242     0.999999    0.00010216
  220      -16.4170626886      -0.0000001232     0.999999    0.00010179
  221      -16.4170628109      -0.0000001223     0.999999    0.00010143
  222      -16.4170629323      -0.0000001213     0.999999    0.00010107
  223      -16.4170630527      -0.0000001204     0.999999    0.00010072
  224      -16.4170631723      -0.0000001196     0.999999    0.00010037
  225      -16.4170632909      -0.0000001187     0.999999    0.00010003
  226      -16.4170634087      -0.0000001178     0.999999    0.00009969
  227      -16.4170635257      -0.0000001170     0.999999    0.00009936
  228      -16.4170636419      -0.0000001161     0.999999    0.00009903
  229      -16.4170637572      -0.0000001153     0.999999    0.00009871
  230      -16.4170638717      -0.0000001145     0.999999    0.00009839
  231      -16.4170639855      -0.0000001138     0.999999    0.00009808
  232      -16.4170640985      -0.0000001130     0.999999    0.00009777
  233      -16.4170642107      -0.0000001122     0.999999    0.00009746
  234      -16.4170643222      -0.0000001115     0.999999    0.00009716
  235      -16.4170644329      -0.0000001107     0.999999    0.00009687
  236      -16.4170645429      -0.0000001100     0.999999    0.00009657
  237      -16.4170646523      -0.0000001093     0.999999    0.00009629
  238      -16.4170647609      -0.0000001086     0.999999    0.00009600
  239      -16.4170648689      -0.0000001080     0.999999    0.00009572
  240      -16.4170649761      -0.0000001073     0.999999    0.00009545
  241      -16.4170650828      -0.0000001066     0.999999    0.00009518
  242      -16.4170651888      -0.0000001060     0.999999    0.00009491
  243      -16.4170652941      -0.0000001054     0.999999    0.00009465
  244      -16.4170653988      -0.0000001047     0.999999    0.00009439
  245      -16.4170655030      -0.0000001041     0.999999    0.00009413
  246      -16.4170656065      -0.0000001035     0.999999    0.00009388
  247      -16.4170657094      -0.0000001029     0.999999    0.00009363
  248      -16.4170658117      -0.0000001023     0.999999    0.00009339
  249      -16.4170659135      -0.0000001018     0.999999    0.00009315
  250      -16.4170660147      -0.0000001012     0.999999    0.00009291
  251      -16.4170661154      -0.0000001007     0.999999    0.00009268
  252      -16.4170662156      -0.0000001001     0.999999    0.00009245
  253      -16.4170663152      -0.0000000996     1.000000    0.00009223
  254      -16.4170664142      -0.0000000991     1.000000    0.00009200
  255      -16.4170665128      -0.0000000986     1.000000    0.00009178
  256      -16.4170666109      -0.0000000981     1.000000    0.00009157
  257      -16.4170667085      -0.0000000976     1.000000    0.00009136
  258      -16.4170668056      -0.0000000971     1.000000    0.00009115
  259      -16.4170669022      -0.0000000966     1.000000    0.00009094
  260      -16.4170669984      -0.0000000962     1.000000    0.00009074
  261      -16.4170670941      -0.0000000957     1.000000    0.00009055
  262      -16.4170671893      -0.0000000953     1.000000    0.00009035
  263      -16.4170672841      -0.0000000948     1.000000    0.00009016
  264      -16.4170673785      -0.0000000944     1.000000    0.00008997
  265      -16.4170674725      -0.0000000940     1.000000    0.00008978
  266      -16.4170675660      -0.0000000935     1.000000    0.00008960
  267      -16.4170676592      -0.0000000931     1.000000    0.00008942
  268      -16.4170677519      -0.0000000927     1.000000    0.00008925
  269      -16.4170678442      -0.0000000923     1.000000    0.00008907
  270      -16.4170679362      -0.0000000920     1.000000    0.00008890
  271      -16.4170680278      -0.0000000916     1.000000    0.00008874
  272      -16.4170681190      -0.0000000912     1.000000    0.00008857
  273      -16.4170682098      -0.0000000908     1.000000    0.00008841
  274      -16.4170683003      -0.0000000905     1.000000    0.00008825
  275      -16.4170683905      -0.0000000901     1.000000    0.00008810
  276      -16.4170684803      -0.0000000898     1.000000    0.00008795
  277      -16.4170685697      -0.0000000895     1.000000    0.00008780
  278      -16.4170686588      -0.0000000891     1.000000    0.00008765
  279      -16.4170687477      -0.0000000888     1.000000    0.00008751
  280      -16.4170688361      -0.0000000885     1.000000    0.00008737
  281      -16.4170689243      -0.0000000882     1.000000    0.00008723
  282      -16.4170690122      -0.0000000879     1.000000    0.00008709
  283      -16.4170690998      -0.0000000876     1.000000    0.00008696
  284      -16.4170691871      -0.0000000873     1.000000    0.00008683
  285      -16.4170692741      -0.0000000870     1.000000    0.00008670
  286      -16.4170693608      -0.0000000867     1.000000    0.00008658
  287      -16.4170694473      -0.0000000865     1.000000    0.00008646
  288      -16.4170695335      -0.0000000862     1.000000    0.00008634
  289      -16.4170696194      -0.0000000859     1.000000    0.00008622
  290      -16.4170697051      -0.0000000857     1.000000    0.00008611
  291      -16.4170697905      -0.0000000854     1.000000    0.00008600
  292      -16.4170698757      -0.0000000852     1.000000    0.00008589
  293      -16.4170699606      -0.0000000849     1.000000    0.00008578
  294      -16.4170700454      -0.0000000847     1.000000    0.00008568
  295      -16.4170701298      -0.0000000845     1.000000    0.00008557
  296      -16.4170702141      -0.0000000843     1.000000    0.00008548
  297      -16.4170702982      -0.0000000841     1.000000    0.00008538
  298      -16.4170703820      -0.0000000838     1.000000    0.00008529
  299      -16.4170704656      -0.0000000836     1.000000    0.00008519
  300      -16.4170705491      -0.0000000834     1.000000    0.00008510
  301      -16.4170706323      -0.0000000832     1.000000    0.00008502
  302      -16.4170707154      -0.0000000831     1.000000    0.00008493
  303      -16.4170707982      -0.0000000829     1.000000    0.00008485
  304      -16.4170708809      -0.0000000827     1.000000    0.00008477
  305      -16.4170709634      -0.0000000825     1.000000    0.00008469
  306      -16.4170710458      -0.0000000823     1.000000    0.00008462
  307      -16.4170711279      -0.0000000822     1.000000    0.00008455
  308      -16.4170712100      -0.0000000820     1.000000    0.00008448
  309      -16.4170712918      -0.0000000819     1.000000    0.00008441
  310      -16.4170713735      -0.0000000817     1.000000    0.00008434
  311      -16.4170714551      -0.0000000816     1.000000    0.00008428
  312      -16.4170715365      -0.0000000814     1.000000    0.00008422
  313      -16.4170716178      -0.0000000813     1.000000    0.00008416
  314      -16.4170716990      -0.0000000812     1.000000    0.00008410
  315      -16.4170717800      -0.0000000810     1.000000    0.00008405
  316      -16.4170718609      -0.0000000809     1.000000    0.00008400
  317      -16.4170719417      -0.0000000808     1.000000    0.00008395
  318      -16.4170720224      -0.0000000807     1.000000    0.00008390
  319      -16.4170721030      -0.0000000806     1.000000    0.00008385
  320      -16.4170721834      -0.0000000805     1.000000    0.00008381
  321      -16.4170722638      -0.0000000804     1.000000    0.00008377
  322      -16.4170723440      -0.0000000803     1.000000    0.00008373
  323      -16.4170724242      -0.0000000802     1.000000    0.00008369
  324      -16.4170725043      -0.0000000801     1.000000    0.00008366
  325      -16.4170725843      -0.0000000800     1.000000    0.00008363
  326      -16.4170726642      -0.0000000799     1.000000    0.00008359
  327      -16.4170727441      -0.0000000799     1.000000    0.00008357
  328      -16.4170728239      -0.0000000798     1.000000    0.00008354
  329      -16.4170729036      -0.0000000797     1.000000    0.00008352
  330      -16.4170729832      -0.0000000797     1.000000    0.00008349
  331      -16.4170730628      -0.0000000796     1.000000    0.00008347
  332      -16.4170731424      -0.0000000795     1.000000    0.00008346
  333      -16.4170732219      -0.0000000795     1.000000    0.00008344
  334      -16.4170733013      -0.0000000794     1.000000    0.00008343
  335      -16.4170733807      -0.0000000794     1.000000    0.00008341
  336      -16.4170734601      -0.0000000794     1.000000    0.00008340
  337      -16.4170735394      -0.0000000793     1.000000    0.00008340
  338      -16.4170736187      -0.0000000793     1.000000    0.00008339
  339      -16.4170736980      -0.0000000793     1.000000    0.00008339
  340      -16.4170737773      -0.0000000793     1.000000    0.00008339
  341      -16.4170738565      -0.0000000792     1.000000    0.00008339
  342      -16.4170739357      -0.0000000792     1.000000    0.00008339
  343      -16.4170740149      -0.0000000792     1.000000    0.00008339
  344      -16.4170740941      -0.0000000792     1.000000    0.00008340
  345      -16.4170741734      -0.0000000792     1.000000    0.00008341
  346      -16.4170742526      -0.0000000792     1.000000    0.00008342
  347      -16.4170743318      -0.0000000792     1.000000    0.00008343
  348      -16.4170744110      -0.0000000792     1.000000    0.00008345
  349      -16.4170744902      -0.0000000792     1.000000    0.00008346
  350      -16.4170745695      -0.0000000793     1.000000    0.00008348
  351      -16.4170746488      -0.0000000793     1.000000    0.00008350
  352      -16.4170747281      -0.0000000793     1.000000    0.00008352
  353      -16.4170748074      -0.0000000793     1.000000    0.00008355
  354      -16.4170748868      -0.0000000794     1.000000    0.00008357
  355      -16.4170749662      -0.0000000794     1.000000    0.00008360
  356      -16.4170750456      -0.0000000794     1.000000    0.00008363
  357      -16.4170751251      -0.0000000795     1.000000    0.00008367
  358      -16.4170752047      -0.0000000795     1.000000    0.00008370
  359      -16.4170752843      -0.0000000796     1.000000    0.00008374
  360      -16.4170753639      -0.0000000796     1.000000    0.00008377
  361      -16.4170754436      -0.0000000797     1.000000    0.00008381
  362      -16.4170755234      -0.0000000798     1.000000    0.00008386
  363      -16.4170756032      -0.0000000798     1.000000    0.00008390
  364      -16.4170756831      -0.0000000799     1.000000    0.00008395
  365      -16.4170757631      -0.0000000800     1.000000    0.00008399
  366      -16.4170758432      -0.0000000801     1.000000    0.00008404
  367      -16.4170759233      -0.0000000801     1.000000    0.00008410
  368      -16.4170760035      -0.0000000802     1.000000    0.00008415
  369      -16.4170760839      -0.0000000803     1.000000    0.00008420
  370      -16.4170761643      -0.0000000804     1.000000    0.00008426
  371      -16.4170762448      -0.0000000805     1.000000    0.00008432
  372      -16.4170763254      -0.0000000806     1.000000    0.00008438
  373      -16.4170764061      -0.0000000807     1.000000    0.00008445
  374      -16.4170764870      -0.0000000808     1.000000    0.00008451
  375      -16.4170765679      -0.0000000809     1.000000    0.00008458
  376      -16.4170766490      -0.0000000811     1.000000    0.00008465
  377      -16.4170767302      -0.0000000812     1.000000    0.00008472
  378      -16.4170768115      -0.0000000813     1.000000    0.00008479
  379      -16.4170768929      -0.0000000814     1.000000    0.00008487
  380      -16.4170769745      -0.0000000816     1.000000    0.00008494
  381      -16.4170770562      -0.0000000817     1.000000    0.00008502
  382      -16.4170771380      -0.0000000818     1.000000    0.00008510
  383      -16.4170772200      -0.0000000820     1.000000    0.00008519
  384      -16.4170773022      -0.0000000821     1.000000    0.00008527
  385      -16.4170773845      -0.0000000823     1.000000    0.00008536
  386      -16.4170774669      -0.0000000825     1.000000    0.00008545
  387      -16.4170775495      -0.0000000826     1.000000    0.00008554
  388      -16.4170776323      -0.0000000828     1.000000    0.00008563
  389      -16.4170777153      -0.0000000829     1.000000    0.00008572
  390      -16.4170777984      -0.0000000831     1.000000    0.00008582
  391      -16.4170778817      -0.0000000833     1.000000    0.00008592
  392      -16.4170779651      -0.0000000835     1.000000    0.00008602
  393      -16.4170780488      -0.0000000837     1.000000    0.00008612
  394      -16.4170781327      -0.0000000839     1.000000    0.00008623
  395      -16.4170782167      -0.0000000840     1.000000    0.00008633
  396      -16.4170783009      -0.0000000842     1.000000    0.00008644
  397      -16.4170783854      -0.0000000844     1.000000    0.00008655
  398      -16.4170784700      -0.0000000846     1.000000    0.00008666
  399      -16.4170785549      -0.0000000849     1.000000    0.00008678
  400      -16.4170786400      -0.0000000851     1.000000    0.00008689
  401      -16.4170787253      -0.0000000853     1.000000    0.00008701
  402      -16.4170788108      -0.0000000855     1.000000    0.00008713
  403      -16.4170788965      -0.0000000857     1.000000    0.00008725
  404      -16.4170789825      -0.0000000860     1.000000    0.00008738
  405      -16.4170790687      -0.0000000862     1.000000    0.00008750
  406      -16.4170791551      -0.0000000864     1.000000    0.00008763
  407      -16.4170792418      -0.0000000867     1.000000    0.00008776
  408      -16.4170793288      -0.0000000869     1.000000    0.00008789
  409      -16.4170794160      -0.0000000872     1.000000    0.00008803
  410      -16.4170795034      -0.0000000874     1.000000    0.00008816
  411      -16.4170795911      -0.0000000877     1.000000    0.00008830
  412      -16.4170796791      -0.0000000880     1.000000    0.00008844
  413      -16.4170797673      -0.0000000882     1.000000    0.00008858
  414      -16.4170798559      -0.0000000885     1.000000    0.00008873
  415      -16.4170799447      -0.0000000888     1.000000    0.00008887
  416      -16.4170800338      -0.0000000891     1.000000    0.00008902
  417      -16.4170801231      -0.0000000894     1.000000    0.00008917
  418      -16.4170802128      -0.0000000897     1.000000    0.00008932
  419      -16.4170803028      -0.0000000900     1.000000    0.00008948
  420      -16.4170803930      -0.0000000903     1.000000    0.00008963
  421      -16.4170804836      -0.0000000906     1.000000    0.00008979
  422      -16.4170805745      -0.0000000909     1.000000    0.00008995
  423      -16.4170806657      -0.0000000912     1.000000    0.00009012
  424      -16.4170807573      -0.0000000915     1.000000    0.00009028
  425      -16.4170808491      -0.0000000919     1.000000    0.00009045
  426      -16.4170809413      -0.0000000922     1.000000    0.00009062
  427      -16.4170810339      -0.0000000925     1.000000    0.00009079
  428      -16.4170811267      -0.0000000929     1.000000    0.00009096
  429      -16.4170812200      -0.0000000932     1.000000    0.00009114
  430      -16.4170813135      -0.0000000936     1.000000    0.00009131
  431      -16.4170814075      -0.0000000939     1.000000    0.00009149
  432      -16.4170815018      -0.0000000943     1.000000    0.00009167
  433      -16.4170815964      -0.0000000947     1.000000    0.00009186
  434      -16.4170816915      -0.0000000950     1.000000    0.00009204
  435      -16.4170817869      -0.0000000954     1.000000    0.00009223
  436      -16.4170818827      -0.0000000958     1.000000    0.00009242
  437      -16.4170819789      -0.0000000962     1.000000    0.00009261
  438      -16.4170820755      -0.0000000966     1.000000    0.00009281
  439      -16.4170821724      -0.0000000970     1.000000    0.00009300
  440      -16.4170822698      -0.0000000974     1.000000    0.00009320
  441      -16.4170823676      -0.0000000978     1.000000    0.00009340
  442      -16.4170824659      -0.0000000982     1.000000    0.00009361
  443      -16.4170825645      -0.0000000986     1.000000    0.00009381
  444      -16.4170826636      -0.0000000991     1.000000    0.00009402
  445      -16.4170827631      -0.0000000995     1.000000    0.00009423
  446      -16.4170828630      -0.0000000999     1.000000    0.00009444
  447      -16.4170829634      -0.0000001004     1.000000    0.00009466
  448      -16.4170830642      -0.0000001008     1.000000    0.00009487
  449      -16.4170831655      -0.0000001013     1.000000    0.00009509
  450      -16.4170832673      -0.0000001018     1.000000    0.00009531
  451      -16.4170833695      -0.0000001022     1.000000    0.00009554
  452      -16.4170834722      -0.0000001027     1.000000    0.00009576
  453      -16.4170835754      -0.0000001032     1.000000    0.00009599
  454      -16.4170836791      -0.0000001037     1.000000    0.00009622
  455      -16.4170837833      -0.0000001042     1.000000    0.00009645
  456      -16.4170838880      -0.0000001047     1.000000    0.00009669
  457      -16.4170839931      -0.0000001052     1.000000    0.00009693
  458      -16.4170840988      -0.0000001057     1.000000    0.00009717
  459      -16.4170842050      -0.0000001062     1.000000    0.00009741
  460      -16.4170843118      -0.0000001067     1.000000    0.00009765
  461      -16.4170844190      -0.0000001073     1.000000    0.00009790
  462      -16.4170845269      -0.0000001078     1.000000    0.00009815
  463      -16.4170846352      -0.0000001084     1.000000    0.00009840
  464      -16.4170847441      -0.0000001089     1.000000    0.00009865
  465      -16.4170848536      -0.0000001095     1.000000    0.00009891
  466      -16.4170849636      -0.0000001100     1.000000    0.00009917
  467      -16.4170850742      -0.0000001106     1.000000    0.00009943
  468      -16.4170851854      -0.0000001112     1.000000    0.00009969
  469      -16.4170852972      -0.0000001118     1.000000    0.00009996
  470      -16.4170854096      -0.0000001124     1.000000    0.00010022
  471      -16.4170855225      -0.0000001130     1.000000    0.00010049
  472      -16.4170856361      -0.0000001136     1.000000    0.00010077
  473      -16.4170857503      -0.0000001142     1.000000    0.00010104
  474      -16.4170858652      -0.0000001148     1.000000    0.00010132
  475      -16.4170859806      -0.0000001155     1.000000    0.00010160
  476      -16.4170860967      -0.0000001161     1.000000    0.00010188
  477      -16.4170862135      -0.0000001167     1.000000    0.00010217
  478      -16.4170863309      -0.0000001174     1.000000    0.00010246
  479      -16.4170864489      -0.0000001181     1.000000    0.00010275
  480      -16.4170865677      -0.0000001187     1.000000    0.00010304
  481      -16.4170866871      -0.0000001194     1.000000    0.00010333
  482      -16.4170868072      -0.0000001201     1.000000    0.00010363
  483      -16.4170869280      -0.0000001208     1.000000    0.00010393
  484      -16.4170870495      -0.0000001215     1.000000    0.00010424
  485      -16.4170871717      -0.0000001222     1.000000    0.00010454
  486      -16.4170872946      -0.0000001229     1.000000    0.00010485
  487      -16.4170874182      -0.0000001237     1.000000    0.00010516
  488      -16.4170875426      -0.0000001244     1.000000    0.00010547
  489      -16.4170876678      -0.0000001251     1.000000    0.00010579
  490      -16.4170877937      -0.0000001259     1.000000    0.00010611
  491      -16.4170879203      -0.0000001266     1.000000    0.00010643
  492      -16.4170880477      -0.0000001274     1.000000    0.00010675
  493      -16.4170881759      -0.0000001282     1.000000    0.00010708
  494      -16.4170883049      -0.0000001290     1.000000    0.00010740
  495      -16.4170884347      -0.0000001298     1.000000    0.00010774
  496      -16.4170885653      -0.0000001306     1.000000    0.00010807
  497      -16.4170886967      -0.0000001314     1.000000    0.00010841
  498      -16.4170888289      -0.0000001322     1.000000    0.00010875
  499      -16.4170889620      -0.0000001331     1.000000    0.00010909
  500      -16.4170890959      -0.0000001339     1.000000    0.00010943
  501      -16.4170892307      -0.0000001348     1.000000    0.00010978
  502      -16.4170893663      -0.0000001356     1.000000    0.00011013
  503      -16.4170895028      -0.0000001365     1.000000    0.00011048
  504      -16.4170896402      -0.0000001374     1.000000    0.00011084
  505      -16.4170897785      -0.0000001383     1.000000    0.00011120
  506      -16.4170899177      -0.0000001392     1.000000    0.00011156
  507      -16.4170900578      -0.0000001401     1.000000    0.00011192
  508      -16.4170901988      -0.0000001410     1.000000    0.00011229
  509      -16.4170903408      -0.0000001420     1.000000    0.00011265
  510      -16.4170904837      -0.0000001429     1.000000    0.00011303
  511      -16.4170906276      -0.0000001439     1.000000    0.00011340
  512      -16.4170907724      -0.0000001448     1.000000    0.00011378
  513      -16.4170909182      -0.0000001458     1.000000    0.00011416
  514      -16.4170910650      -0.0000001468     1.000000    0.00011454
  515      -16.4170912128      -0.0000001478     1.000000    0.00011493
  516      -16.4170913616      -0.0000001488     1.000000    0.00011531
  517      -16.4170915114      -0.0000001498     1.000000    0.00011570
  518      -16.4170916622      -0.0000001508     1.000000    0.00011610
  519      -16.4170918141      -0.0000001519     1.000000    0.00011649
  520      -16.4170919671      -0.0000001529     1.000000    0.00011689
  521      -16.4170921211      -0.0000001540     1.000000    0.00011730
  522      -16.4170922762      -0.0000001551     1.000000    0.00011770
  523      -16.4170924324      -0.0000001562     1.000000    0.00011811
  524      -16.4170925896      -0.0000001573     1.000000    0.00011852
  525      -16.4170927480      -0.0000001584     1.000000    0.00011893
  526      -16.4170929076      -0.0000001595     1.000000    0.00011935
  527      -16.4170930682      -0.0000001607     1.000000    0.00011977
  528      -16.4170932300      -0.0000001618     1.000000    0.00012019
  529      -16.4170933930      -0.0000001630     1.000000    0.00012061
  530      -16.4170935571      -0.0000001641     1.000000    0.00012104
  531      -16.4170937225      -0.0000001653     1.000000    0.00012147
  532      -16.4170938890      -0.0000001665     1.000000    0.00012190
  533      -16.4170940567      -0.0000001677     1.000000    0.00012234
  534      -16.4170942257      -0.0000001690     1.000000    0.00012278
  535      -16.4170943959      -0.0000001702     1.000000    0.00012322
  536      -16.4170945674      -0.0000001715     1.000000    0.00012366
  537      -16.4170947401      -0.0000001727     1.000000    0.00012411
  538      -16.4170949141      -0.0000001740     1.000000    0.00012456
  539      -16.4170950894      -0.0000001753     1.000000    0.00012501
  540      -16.4170952660      -0.0000001766     1.000000    0.00012547
  541      -16.4170954439      -0.0000001779     1.000000    0.00012592
  542      -16.4170956231      -0.0000001792     1.000000    0.00012639
  543      -16.4170958037      -0.0000001806     1.000000    0.00012685
  544      -16.4170959857      -0.0000001820     1.000000    0.00012732
  545      -16.4170961690      -0.0000001833     1.000000    0.00012778
  546      -16.4170963537      -0.0000001847     1.000000    0.00012826
  547      -16.4170965398      -0.0000001861     1.000000    0.00012873
  548      -16.4170967273      -0.0000001875     1.000000    0.00012921
  549      -16.4170969163      -0.0000001890     1.000000    0.00012969
  550      -16.4170971067      -0.0000001904     1.000000    0.00013017
  551      -16.4170972986      -0.0000001919     1.000000    0.00013066
  552      -16.4170974919      -0.0000001933     1.000000    0.00013115
  553      -16.4170976867      -0.0000001948     1.000000    0.00013164
  554      -16.4170978831      -0.0000001963     1.000000    0.00013213
  555      -16.4170980809      -0.0000001979     1.000000    0.00013263
  556      -16.4170982803      -0.0000001994     1.000000    0.00013313
  557      -16.4170984813      -0.0000002009     1.000000    0.00013363
  558      -16.4170986838      -0.0000002025     1.000000    0.00013413
  559      -16.4170988879      -0.0000002041     1.000000    0.00013464
  560      -16.4170990935      -0.0000002057     1.000000    0.00013515
  561      -16.4170993008      -0.0000002073     1.000000    0.00013566
  562      -16.4170995097      -0.0000002089     1.000000    0.00013618
  563      -16.4170997203      -0.0000002106     1.000000    0.00013669
  564      -16.4170999325      -0.0000002122     1.000000    0.00013721
  565      -16.4171001464      -0.0000002139     1.000000    0.00013774
  566      -16.4171003620      -0.0000002156     1.000000    0.00013826
  567      -16.4171005793      -0.0000002173     1.000000    0.00013879
  568      -16.4171007983      -0.0000002190     1.000000    0.00013932
  569      -16.4171010191      -0.0000002208     1.000000    0.00013985
  570      -16.4171012416      -0.0000002225     1.000000    0.00014039
  571      -16.4171014659      -0.0000002243     1.000000    0.00014092
  572      -16.4171016919      -0.0000002261     1.000000    0.00014146
  573      -16.4171019198      -0.0000002279     1.000000    0.00014201
  574      -16.4171021495      -0.0000002297     1.000000    0.00014255
  575      -16.4171023810      -0.0000002315     1.000000    0.00014310
  576      -16.4171026144      -0.0000002334     1.000000    0.00014365
  577      -16.4171028496      -0.0000002352     1.000000    0.00014420
  578      -16.4171030868      -0.0000002371     1.000000    0.00014475
  579      -16.4171033258      -0.0000002390     1.000000    0.00014530
  580      -16.4171035668      -0.0000002410     1.000000    0.00014586
  581      -16.4171038096      -0.0000002429     1.000000    0.00014642
  582      -16.4171040545      -0.0000002448     1.000000    0.00014698
  583      -16.4171043013      -0.0000002468     1.000000    0.00014755
  584      -16.4171045501      -0.0000002488     1.000000    0.00014811
  585      -16.4171048009      -0.0000002508     1.000000    0.00014868
  586      -16.4171050537      -0.0000002528     1.000000    0.00014925
  587      -16.4171053086      -0.0000002549     1.000000    0.00014982
  588      -16.4171055655      -0.0000002569     1.000000    0.00015039
  589      -16.4171058245      -0.0000002590     1.000000    0.00015097
  590      -16.4171060856      -0.0000002611     1.000000    0.00015154
  591      -16.4171063487      -0.0000002632     1.000000    0.00015212
  592      -16.4171066140      -0.0000002653     1.000000    0.00015270
  593      -16.4171068815      -0.0000002674     1.000000    0.00015328
  594      -16.4171071511      -0.0000002696     1.000000    0.00015386
  595      -16.4171074228      -0.0000002718     1.000000    0.00015445
  596      -16.4171076967      -0.0000002739     1.000000    0.00015503
  597      -16.4171079729      -0.0000002761     1.000000    0.00015562
  598      -16.4171082512      -0.0000002784     1.000000    0.00015621
  599      -16.4171085318      -0.0000002806     1.000000    0.00015680
  600      -16.4171088147      -0.0000002828     1.000000    0.00015739
  601      -16.4171090998      -0.0000002851     1.000000    0.00015798
  602      -16.4171093872      -0.0000002874     1.000000    0.00015857
  603      -16.4171096769      -0.0000002897     1.000000    0.00015916
  604      -16.4171099689      -0.0000002920     1.000000    0.00015976
  605      -16.4171102632      -0.0000002943     1.000000    0.00016035
  606      -16.4171105599      -0.0000002967     1.000000    0.00016094
  607      -16.4171108590      -0.0000002990     1.000000    0.00016154
  608      -16.4171111604      -0.0000003014     1.000000    0.00016214
  609      -16.4171114642      -0.0000003038     1.000000    0.00016273
  610      -16.4171117704      -0.0000003062     1.000000    0.00016333
  611      -16.4171120790      -0.0000003086     1.000000    0.00016393
  612      -16.4171123901      -0.0000003111     1.000000    0.00016452
  613      -16.4171127036      -0.0000003135     1.000000    0.00016512
  614      -16.4171130196      -0.0000003160     1.000000    0.00016572
  615      -16.4171133380      -0.0000003184     1.000000    0.00016632
  616      -16.4171136590      -0.0000003209     1.000000    0.00016691
  617      -16.4171139824      -0.0000003234     1.000000    0.00016751
  618      -16.4171143084      -0.0000003260     1.000000    0.00016811
  619      -16.4171146368      -0.0000003285     1.000000    0.00016870
  620      -16.4171149679      -0.0000003310     1.000000    0.00016930
  621      -16.4171153014      -0.0000003336     1.000000    0.00016989
  622      -16.4171156376      -0.0000003361     1.000000    0.00017049
  623      -16.4171159763      -0.0000003387     1.000000    0.00017108
  624      -16.4171163175      -0.0000003413     1.000000    0.00017167
  625      -16.4171166614      -0.0000003439     1.000000    0.00017226
  626      -16.4171170079      -0.0000003465     1.000000    0.00017285
  627      -16.4171173570      -0.0000003491     1.000000    0.00017344
  628      -16.4171177087      -0.0000003517     1.000000    0.00017403
  629      -16.4171180631      -0.0000003544     1.000000    0.00017461
  630      -16.4171184201      -0.0000003570     1.000000    0.00017520
  631      -16.4171187797      -0.0000003596     1.000000    0.00017578
  632      -16.4171191420      -0.0000003623     1.000000    0.00017636
  633      -16.4171195069      -0.0000003650     1.000000    0.00017693
  634      -16.4171198746      -0.0000003676     1.000000    0.00017751
  635      -16.4171202449      -0.0000003703     1.000000    0.00017808
  636      -16.4171206178      -0.0000003730     1.000000    0.00017865
  637      -16.4171209935      -0.0000003757     1.000000    0.00017922
  638      -16.4171213718      -0.0000003783     1.000000    0.00017978
  639      -16.4171217529      -0.0000003810     1.000000    0.00018035
  640      -16.4171221366      -0.0000003837     1.000000    0.00018090
  641      -16.4171225230      -0.0000003864     1.000000    0.00018146
  642      -16.4171229122      -0.0000003891     1.000000    0.00018201
  643      -16.4171233040      -0.0000003918     1.000000    0.00018256
  644      -16.4171236985      -0.0000003945     1.000000    0.00018310
  645      -16.4171240957      -0.0000003972     1.000000    0.00018364
  646      -16.4171244956      -0.0000003999     1.000000    0.00018418
  647      -16.4171248982      -0.0000004026     1.000000    0.00018471
  648      -16.4171253035      -0.0000004053     1.000000    0.00018524
  649      -16.4171257115      -0.0000004080     1.000000    0.00018576
  650      -16.4171261222      -0.0000004107     1.000000    0.00018628
  651      -16.4171265356      -0.0000004134     1.000000    0.00018679
  652      -16.4171269516      -0.0000004160     1.000000    0.00018730
  653      -16.4171273703      -0.0000004187     1.000000    0.00018780
  654      -16.4171277916      -0.0000004213     1.000000    0.00018830
  655      -16.4171282156      -0.0000004240     1.000000    0.00018879
  656      -16.4171286423      -0.0000004266     1.000000    0.00018928
  657      -16.4171290715      -0.0000004293     1.000000    0.00018976
  658      -16.4171295034      -0.0000004319     1.000000    0.00019023
  659      -16.4171299379      -0.0000004345     1.000000    0.00019070
  660      -16.4171303750      -0.0000004371     1.000000    0.00019116
  661      -16.4171308146      -0.0000004397     1.000000    0.00019161
  662      -16.4171312568      -0.0000004422     1.000000    0.00019206
  663      -16.4171317016      -0.0000004448     1.000000    0.00019250
  664      -16.4171321489      -0.0000004473     1.000000    0.00019293
  665      -16.4171325987      -0.0000004498     1.000000    0.00019336
  666      -16.4171330510      -0.0000004523     1.000000    0.00019378
  667      -16.4171335057      -0.0000004548     1.000000    0.00019419
  668      -16.4171339629      -0.0000004572     1.000000    0.00019459
  669      -16.4171344225      -0.0000004596     1.000000    0.00019498
  670      -16.4171348846      -0.0000004620     1.000000    0.00019537
  671      -16.4171353490      -0.0000004644     1.000000    0.00019574
  672      -16.4171358157      -0.0000004667     1.000000    0.00019611
  673      -16.4171362847      -0.0000004691     1.000000    0.00019647
  674      -16.4171367561      -0.0000004713     1.000000    0.00019682
  675      -16.4171372297      -0.0000004736     1.000000    0.00019716
  676      -16.4171377055      -0.0000004758     1.000000    0.00019749
  677      -16.4171381836      -0.0000004780     1.000000    0.00019780
  678      -16.4171386638      -0.0000004802     1.000000    0.00019811
  679      -16.4171391461      -0.0000004823     1.000000    0.00019841
  680      -16.4171396305      -0.0000004844     1.000000    0.00019870
  681      -16.4171401170      -0.0000004865     1.000000    0.00019898
  682      -16.4171406054      -0.0000004885     1.000000    0.00019925
  683      -16.4171410959      -0.0000004904     1.000000    0.00019950
  684      -16.4171415883      -0.0000004924     1.000000    0.00019975
  685      -16.4171420825      -0.0000004943     1.000000    0.00019998
  686      -16.4171425786      -0.0000004961     1.000000    0.00020021
  687      -16.4171430766      -0.0000004979     1.000000    0.00020042
  688      -16.4171435762      -0.0000004997     1.000000    0.00020061
  689      -16.4171440776      -0.0000005014     1.000000    0.00020080
  690      -16.4171445806      -0.0000005030     1.000000    0.00020097
  691      -16.4171450853      -0.0000005046     1.000000    0.00020113
  692      -16.4171455915      -0.0000005062     1.000000    0.00020128
  693      -16.4171460992      -0.0000005077     1.000000    0.00020142
  694      -16.4171466083      -0.0000005091     1.000000    0.00020154
  695      -16.4171471188      -0.0000005105     1.000000    0.00020165
  696      -16.4171476307      -0.0000005119     1.000000    0.00020174
  697      -16.4171481439      -0.0000005131     1.000000    0.00020182
  698      -16.4171486582      -0.0000005144     1.000000    0.00020189
  699      -16.4171491737      -0.0000005155     1.000000    0.00020194
  700      -16.4171496904      -0.0000005166     1.000000    0.00020198
  701      -16.4171502080      -0.0000005177     1.000000    0.00020201
  702      -16.4171507267      -0.0000005186     1.000000    0.00020202
  703      -16.4171512462      -0.0000005195     1.000000    0.00020201
  704      -16.4171517666      -0.0000005204     1.000000    0.00020200
  705      -16.4171522877      -0.0000005211     1.000000    0.00020196
  706      -16.4171528096      -0.0000005219     1.000000    0.00020191
  707      -16.4171533321      -0.0000005225     1.000000    0.00020185
  708      -16.4171538551      -0.0000005231     1.000000    0.00020177
  709      -16.4171543787      -0.0000005236     1.000000    0.00020168
  710      -16.4171549026      -0.0000005240     1.000000    0.00020157
  711      -16.4171554270      -0.0000005243     1.000000    0.00020144
  712      -16.4171559516      -0.0000005246     1.000000    0.00020130
  713      -16.4171564764      -0.0000005248     1.000000    0.00020114
  714      -16.4171570013      -0.0000005249     1.000000    0.00020097
  715      -16.4171575263      -0.0000005250     1.000000    0.00020078
  716      -16.4171580513      -0.0000005250     1.000000    0.00020057
  717      -16.4171585761      -0.0000005249     1.000000    0.00020035
  718      -16.4171591008      -0.0000005247     1.000000    0.00020011
  719      -16.4171596252      -0.0000005244     1.000000    0.00019986
  720      -16.4171601493      -0.0000005241     1.000000    0.00019959
  721      -16.4171606730      -0.0000005237     1.000000    0.00019930
  722      -16.4171611961      -0.0000005232     1.000000    0.00019900
  723      -16.4171617187      -0.0000005226     1.000000    0.00019868
  724      -16.4171622406      -0.0000005219     1.000000    0.00019834
  725      -16.4171627618      -0.0000005212     1.000000    0.00019799
  726      -16.4171632821      -0.0000005204     1.000000    0.00019762
  727      -16.4171638016      -0.0000005194     1.000000    0.00019723
  728      -16.4171643200      -0.0000005185     1.000000    0.00019683
  729      -16.4171648374      -0.0000005174     1.000000    0.00019641
  730      -16.4171653537      -0.0000005162     1.000000    0.00019597
  731      -16.4171658687      -0.0000005150     1.000000    0.00019552
  732      -16.4171663823      -0.0000005137     1.000000    0.00019505
  733      -16.4171668946      -0.0000005123     1.000000    0.00019457
  734      -16.4171674054      -0.0000005108     1.000000    0.00019407
  735      -16.4171679147      -0.0000005092     1.000000    0.00019355
  736      -16.4171684223      -0.0000005076     1.000000    0.00019301
  737      -16.4171689281      -0.0000005059     1.000000    0.00019246
  738      -16.4171694322      -0.0000005041     1.000000    0.00019189
  739      -16.4171699344      -0.0000005022     1.000000    0.00019131
  740      -16.4171704346      -0.0000005002     1.000000    0.00019071
  741      -16.4171709328      -0.0000004982     1.000000    0.00019010
  742      -16.4171714288      -0.0000004960     1.000000    0.00018947
  743      -16.4171719226      -0.0000004938     1.000000    0.00018882
  744      -16.4171724142      -0.0000004916     1.000000    0.00018816
  745      -16.4171729034      -0.0000004892     1.000000    0.00018748
  746      -16.4171733902      -0.0000004868     1.000000    0.00018679
  747      -16.4171738745      -0.0000004843     1.000000    0.00018608
  748      -16.4171743562      -0.0000004817     1.000000    0.00018536
  749      -16.4171748352      -0.0000004790     1.000000    0.00018462
  750      -16.4171753115      -0.0000004763     1.000000    0.00018386
  751      -16.4171757851      -0.0000004735     1.000000    0.00018310
  752      -16.4171762557      -0.0000004707     1.000000    0.00018232
  753      -16.4171767234      -0.0000004677     1.000000    0.00018152
  754      -16.4171771882      -0.0000004647     1.000000    0.00018071
  755      -16.4171776498      -0.0000004617     1.000000    0.00017989
  756      -16.4171781084      -0.0000004585     1.000000    0.00017905
  757      -16.4171785637      -0.0000004553     1.000000    0.00017820
  758      -16.4171790158      -0.0000004521     1.000000    0.00017734
  759      -16.4171794646      -0.0000004488     1.000000    0.00017646
  760      -16.4171799100      -0.0000004454     1.000000    0.00017557
  761      -16.4171803520      -0.0000004420     1.000000    0.00017467
  762      -16.4171807905      -0.0000004385     1.000000    0.00017375
  763      -16.4171812254      -0.0000004350     1.000000    0.00017283
  764      -16.4171816568      -0.0000004314     1.000000    0.00017189
  765      -16.4171820845      -0.0000004277     1.000000    0.00017094
  766      -16.4171825085      -0.0000004240     1.000000    0.00016998
  767      -16.4171829288      -0.0000004203     1.000000    0.00016901
  768      -16.4171833453      -0.0000004165     1.000000    0.00016803
  769      -16.4171837580      -0.0000004127     1.000000    0.00016704
  770      -16.4171841668      -0.0000004088     1.000000    0.00016603
  771      -16.4171845717      -0.0000004049     1.000000    0.00016502
  772      -16.4171849727      -0.0000004010     1.000000    0.00016400
  773      -16.4171853697      -0.0000003970     1.000000    0.00016297
  774      -16.4171857626      -0.0000003930     1.000000    0.00016193
  775      -16.4171861515      -0.0000003889     1.000000    0.00016088
  776      -16.4171865364      -0.0000003848     1.000000    0.00015982
  777      -16.4171869171      -0.0000003807     1.000000    0.00015875
  778      -16.4171872937      -0.0000003766     1.000000    0.00015768
  779      -16.4171876661      -0.0000003724     1.000000    0.00015660
  780      -16.4171880344      -0.0000003682     1.000000    0.00015551
  781      -16.4171883984      -0.0000003640     1.000000    0.00015442
  782      -16.4171887582      -0.0000003598     1.000000    0.00015331
  783      -16.4171891138      -0.0000003556     1.000000    0.00015221
  784      -16.4171894651      -0.0000003513     1.000000    0.00015109
  785      -16.4171898122      -0.0000003471     1.000000    0.00014997
  786      -16.4171901550      -0.0000003428     1.000000    0.00014885
  787      -16.4171904935      -0.0000003385     1.000000    0.00014772
  788      -16.4171908276      -0.0000003342     1.000000    0.00014658
  789      -16.4171911575      -0.0000003299     1.000000    0.00014544
  790      -16.4171914831      -0.0000003256     1.000000    0.00014430
  791      -16.4171918044      -0.0000003213     1.000000    0.00014315
  792      -16.4171921213      -0.0000003170     1.000000    0.00014200
  793      -16.4171924340      -0.0000003126     1.000000    0.00014084
  794      -16.4171927423      -0.0000003083     1.000000    0.00013969
  795      -16.4171930463      -0.0000003040     1.000000    0.00013853
  796      -16.4171933461      -0.0000002997     1.000000    0.00013736
  797      -16.4171936415      -0.0000002954     1.000000    0.00013620
  798      -16.4171939327      -0.0000002912     1.000000    0.00013503
  799      -16.4171942196      -0.0000002869     1.000000    0.00013386
  800      -16.4171945022      -0.0000002826     1.000000    0.00013269
  801      -16.4171947806      -0.0000002784     1.000000    0.00013152
  802      -16.4171950548      -0.0000002742     1.000000    0.00013035
  803      -16.4171953248      -0.0000002700     1.000000    0.00012918
  804      -16.4171955906      -0.0000002658     1.000000    0.00012801
  805      -16.4171958522      -0.0000002616     1.000000    0.00012684
  806      -16.4171961096      -0.0000002575     1.000000    0.00012566
  807      -16.4171963629      -0.0000002533     1.000000    0.00012449
  808      -16.4171966122      -0.0000002492     1.000000    0.00012332
  809      -16.4171968573      -0.0000002451     1.000000    0.00012215
  810      -16.4171970984      -0.0000002411     1.000000    0.00012099
  811      -16.4171973355      -0.0000002371     1.000000    0.00011982
  812      -16.4171975686      -0.0000002331     1.000000    0.00011866
  813      -16.4171977977      -0.0000002291     1.000000    0.00011750
  814      -16.4171980228      -0.0000002252     1.000000    0.00011634
  815      -16.4171982441      -0.0000002213     1.000000    0.00011518
  816      -16.4171984615      -0.0000002174     1.000000    0.00011403
  817      -16.4171986750      -0.0000002135     1.000000    0.00011288
  818      -16.4171988848      -0.0000002097     1.000000    0.00011173
  819      -16.4171990907      -0.0000002060     1.000000    0.00011058
  820      -16.4171992930      -0.0000002022     1.000000    0.00010944
  821      -16.4171994915      -0.0000001985     1.000000    0.00010831
  822      -16.4171996864      -0.0000001949     1.000000    0.00010717
  823      -16.4171998776      -0.0000001913     1.000000    0.00010605
  824      -16.4172000653      -0.0000001877     1.000000    0.00010492
  825      -16.4172002494      -0.0000001841     1.000000    0.00010380
  826      -16.4172004301      -0.0000001806     1.000000    0.00010269
  827      -16.4172006072      -0.0000001772     1.000000    0.00010158
  828      -16.4172007809      -0.0000001737     1.000000    0.00010047
  829      -16.4172009513      -0.0000001703     1.000000    0.00009938
  830      -16.4172011183      -0.0000001670     1.000000    0.00009828
  831      -16.4172012820      -0.0000001637     1.000000    0.00009719
  832      -16.4172014424      -0.0000001604     1.000000    0.00009611
  833      -16.4172015996      -0.0000001572     1.000000    0.00009503
  834      -16.4172017537      -0.0000001540     1.000000    0.00009396
  835      -16.4172019046      -0.0000001509     1.000000    0.00009290
  836      -16.4172020524      -0.0000001478     1.000000    0.00009184
  837      -16.4172021972      -0.0000001448     1.000000    0.00009079
  838      -16.4172023390      -0.0000001418     1.000000    0.00008975
  839      -16.4172024778      -0.0000001388     1.000000    0.00008871
  840      -16.4172026137      -0.0000001359     1.000000    0.00008768
  841      -16.4172027467      -0.0000001330     1.000000    0.00008665
  842      -16.4172028769      -0.0000001302     1.000000    0.00008563
  843      -16.4172030043      -0.0000001274     1.000000    0.00008462
  844      -16.4172031290      -0.0000001247     1.000000    0.00008362
  845      -16.4172032510      -0.0000001220     1.000000    0.00008262
  846      -16.4172033703      -0.0000001193     1.000000    0.00008163
  847      -16.4172034870      -0.0000001167     1.000000    0.00008065
  848      -16.4172036012      -0.0000001141     1.000000    0.00007968
  849      -16.4172037128      -0.0000001116     1.000000    0.00007871
  850      -16.4172038219      -0.0000001091     1.000000    0.00007775
  851      -16.4172039286      -0.0000001067     1.000000    0.00007680
  852      -16.4172040328      -0.0000001043     1.000000    0.00007585
  853      -16.4172041348      -0.0000001019     1.000000    0.00007492
  854      -16.4172042344      -0.0000000996     1.000000    0.00007399
  855      -16.4172043317      -0.0000000973     1.000000    0.00007307
  856      -16.4172044268      -0.0000000951     1.000000    0.00007216
  857      -16.4172045197      -0.0000000929     1.000000    0.00007125
  858      -16.4172046104      -0.0000000907     1.000000    0.00007035
  859      -16.4172046991      -0.0000000886     1.000000    0.00006947
  860      -16.4172047856      -0.0000000866     1.000000    0.00006858
  861      -16.4172048702      -0.0000000845     1.000000    0.00006771
  862      -16.4172049527      -0.0000000825     1.000000    0.00006685
  863      -16.4172050333      -0.0000000806     1.000000    0.00006599
  864      -16.4172051119      -0.0000000787     1.000000    0.00006514
  865      -16.4172051887      -0.0000000768     1.000000    0.00006430
  866      -16.4172052636      -0.0000000749     1.000000    0.00006347
  867      -16.4172053367      -0.0000000731     1.000000    0.00006264
  868      -16.4172054081      -0.0000000713     1.000000    0.00006183
  869      -16.4172054777      -0.0000000696     1.000000    0.00006102
  870      -16.4172055456      -0.0000000679     1.000000    0.00006022
  871      -16.4172056118      -0.0000000662     1.000000    0.00005942
  872      -16.4172056765      -0.0000000646     1.000000    0.00005864
  873      -16.4172057395      -0.0000000630     1.000000    0.00005786
  874      -16.4172058009      -0.0000000615     1.000000    0.00005710
  875      -16.4172058609      -0.0000000599     1.000000    0.00005633
  876      -16.4172059193      -0.0000000584     1.000000    0.00005558
  877      -16.4172059762      -0.0000000570     1.000000    0.00005484
  878      -16.4172060318      -0.0000000555     1.000000    0.00005410
  879      -16.4172060859      -0.0000000541     1.000000    0.00005337
  880      -16.4172061387      -0.0000000528     1.000000    0.00005265
  881      -16.4172061901      -0.0000000514     1.000000    0.00005194
  882      -16.4172062402      -0.0000000501     1.000000    0.00005124
  883      -16.4172062890      -0.0000000488     1.000000    0.00005054
  884      -16.4172063366      -0.0000000476     1.000000    0.00004985
  885      -16.4172063829      -0.0000000463     1.000000    0.00004917
  886      -16.4172064281      -0.0000000451     1.000000    0.00004849
  887      -16.4172064720      -0.0000000440     1.000000    0.00004783
  888      -16.4172065149      -0.0000000428     1.000000    0.00004717
  889      -16.4172065566      -0.0000000417     1.000000    0.00004652
  890      -16.4172065972      -0.0000000406     1.000000    0.00004587
  891      -16.4172066368      -0.0000000396     1.000000    0.00004524
  892      -16.4172066753      -0.0000000385     1.000000    0.00004461
  893      -16.4172067128      -0.0000000375     1.000000    0.00004399
  894      -16.4172067493      -0.0000000365     1.000000    0.00004338
  895      -16.4172067849      -0.0000000355     1.000000    0.00004277
  896      -16.4172068195      -0.0000000346     1.000000    0.00004217
  897      -16.4172068532      -0.0000000337     1.000000    0.00004158
  898      -16.4172068859      -0.0000000328     1.000000    0.00004099
  899      -16.4172069178      -0.0000000319     1.000000    0.00004042
  900      -16.4172069489      -0.0000000310     1.000000    0.00003984
  901      -16.4172069791      -0.0000000302     1.000000    0.00003928
  902      -16.4172070085      -0.0000000294     1.000000    0.00003872
  903      -16.4172070371      -0.0000000286     1.000000    0.00003817
  904      -16.4172070649      -0.0000000278     1.000000    0.00003763
  905      -16.4172070920      -0.0000000271     1.000000    0.00003710
  906      -16.4172071183      -0.0000000263     1.000000    0.00003657
  907      -16.4172071439      -0.0000000256     1.000000    0.00003604
  908      -16.4172071688      -0.0000000249     1.000000    0.00003553
  909      -16.4172071931      -0.0000000242     1.000000    0.00003502
  910      -16.4172072166      -0.0000000236     1.000000    0.00003451
  911      -16.4172072395      -0.0000000229     1.000000    0.00003402
  912      -16.4172072618      -0.0000000223     1.000000    0.00003353
  913      -16.4172072835      -0.0000000217     1.000000    0.00003304
  914      -16.4172073045      -0.0000000211     1.000000    0.00003257
  915      -16.4172073250      -0.0000000205     1.000000    0.00003209
  916      -16.4172073449      -0.0000000199     1.000000    0.00003163
  917      -16.4172073643      -0.0000000194     1.000000    0.00003117
  918      -16.4172073831      -0.0000000188     1.000000    0.00003072
  919      -16.4172074014      -0.0000000183     1.000000    0.00003027
  920      -16.4172074192      -0.0000000178     1.000000    0.00002983
  921      -16.4172074364      -0.0000000173     1.000000    0.00002939
  922      -16.4172074532      -0.0000000168     1.000000    0.00002896
  923      -16.4172074696      -0.0000000163     1.000000    0.00002854
  924      -16.4172074854      -0.0000000159     1.000000    0.00002812
  925      -16.4172075008      -0.0000000154     1.000000    0.00002771
  926      -16.4172075158      -0.0000000150     1.000000    0.00002730
  927      -16.4172075303      -0.0000000145     1.000000    0.00002690
  928      -16.4172075445      -0.0000000141     1.000000    0.00002650
  929      -16.4172075582      -0.0000000137     1.000000    0.00002611
  930      -16.4172075716      -0.0000000133     1.000000    0.00002573
  931      -16.4172075845      -0.0000000130     1.000000    0.00002535
  932      -16.4172075971      -0.0000000126     1.000000    0.00002497
  933      -16.4172076093      -0.0000000122     1.000000    0.00002460
  934      -16.4172076212      -0.0000000119     1.000000    0.00002424
  935      -16.4172076327      -0.0000000115     1.000000    0.00002388
  936      -16.4172076440      -0.0000000112     1.000000    0.00002352
  937      -16.4172076548      -0.0000000109     1.000000    0.00002317
  938      -16.4172076654      -0.0000000106     1.000000    0.00002283
  939      -16.4172076757      -0.0000000103     1.000000    0.00002249
  940      -16.4172076856      -0.0000000100     1.000000    0.00002215
  941      -16.4172076953      -0.0000000097     1.000000    0.00002182
  942      -16.4172077047      -0.0000000094     1.000000    0.00002149
  943      -16.4172077138      -0.0000000091     1.000000    0.00002117
  944      -16.4172077227      -0.0000000089     1.000000    0.00002086
  945      -16.4172077313      -0.0000000086     1.000000    0.00002054
  946      -16.4172077397      -0.0000000084     1.000000    0.00002024
  947      -16.4172077478      -0.0000000081     1.000000    0.00001993
  948      -16.4172077556      -0.0000000079     1.000000    0.00001963
  949      -16.4172077633      -0.0000000076     1.000000    0.00001934
  950      -16.4172077707      -0.0000000074     1.000000    0.00001905
  951      -16.4172077779      -0.0000000072     1.000000    0.00001876
  952      -16.4172077849      -0.0000000070     1.000000    0.00001848
  953      -16.4172077917      -0.0000000068     1.000000    0.00001820
  954      -16.4172077983      -0.0000000066     1.000000    0.00001792
  955      -16.4172078047      -0.0000000064     1.000000    0.00001765
  956      -16.4172078109      -0.0000000062     1.000000    0.00001738
  957      -16.4172078169      -0.0000000060     1.000000    0.00001712
  958      -16.4172078227      -0.0000000058     1.000000    0.00001686
  959      -16.4172078284      -0.0000000057     1.000000    0.00001661
  960      -16.4172078339      -0.0000000055     1.000000    0.00001635
  961      -16.4172078392      -0.0000000053     1.000000    0.00001611
  962      -16.4172078444      -0.0000000052     1.000000    0.00001586
  963      -16.4172078494      -0.0000000050     1.000000    0.00001562
  964      -16.4172078543      -0.0000000049     1.000000    0.00001538
  965      -16.4172078591      -0.0000000047     1.000000    0.00001515
  966      -16.4172078636      -0.0000000046     1.000000    0.00001492
  967      -16.4172078681      -0.0000000045     1.000000    0.00001469
  968      -16.4172078724      -0.0000000043     1.000000    0.00001447
  969      -16.4172078766      -0.0000000042     1.000000    0.00001425
  970      -16.4172078807      -0.0000000041     1.000000    0.00001403
  971      -16.4172078846      -0.0000000039     1.000000    0.00001381
  972      -16.4172078885      -0.0000000038     1.000000    0.00001360
  973      -16.4172078922      -0.0000000037     1.000000    0.00001339
  974      -16.4172078958      -0.0000000036     1.000000    0.00001319
  975      -16.4172078993      -0.0000000035     1.000000    0.00001299
  976      -16.4172079027      -0.0000000034     1.000000    0.00001279
  977      -16.4172079060      -0.0000000033     1.000000    0.00001259
  978      -16.4172079092      -0.0000000032     1.000000    0.00001240
  979      -16.4172079122      -0.0000000031     1.000000    0.00001221
  980      -16.4172079152      -0.0000000030     1.000000    0.00001202
  981      -16.4172079182      -0.0000000029     1.000000    0.00001184
  982      -16.4172079210      -0.0000000028     1.000000    0.00001165
  983      -16.4172079237      -0.0000000027     1.000000    0.00001148
  984      -16.4172079264      -0.0000000027     1.000000    0.00001130
  985      -16.4172079290      -0.0000000026     1.000000    0.00001113
  986      -16.4172079314      -0.0000000025     1.000000    0.00001095
  987      -16.4172079339      -0.0000000024     1.000000    0.00001079
  988      -16.4172079362      -0.0000000023     1.000000    0.00001062
  989      -16.4172079385      -0.0000000023     1.000000    0.00001046
  990      -16.4172079407      -0.0000000022     1.000000    0.00001029
  991      -16.4172079429      -0.0000000021     1.000000    0.00001014
  992      -16.4172079449      -0.0000000021     1.000000    0.00000998
  993      -16.4172079469      -0.0000000020     1.000000    0.00000982
  994      -16.4172079489      -0.0000000020     1.000000    0.00000967
  995      -16.4172079508      -0.0000000019     1.000000    0.00000952
  996      -16.4172079526      -0.0000000018     1.000000    0.00000938
  997      -16.4172079544      -0.0000000018     1.000000    0.00000923
  998      -16.4172079561      -0.0000000017     1.000000    0.00000909
  999      -16.4172079578      -0.0000000017     1.000000    0.00000895
 1000      -16.4172079594      -0.0000000016     1.000000    0.00000881

Total Energy:                      -16.4172079594 H         -446.7350 eV
Extrapolated to 0:                 -16.3785395195 H         -445.6827 eV

----------------------------------------------------------------------------------
 Solving CP-REKS equation for  1 state vector...
----------------------------------------------------------------------------------
  CG solver: Constructing Y initial guess
  CG solver: Iteration    1    eps =    0.080553941606
  CG solver: Iteration    2    eps =    0.010887650891
  CG solver: Iteration    3    eps =    0.001756269466
  CG solver: Iteration    4    eps =    0.000364551769
  CG solver: Iteration    5    eps =    0.000203016934
  CG solver: Iteration    6    eps =    0.000242689755
  CG solver: Iteration    7    eps =    0.000402830608
  CG solver: Iteration    8    eps =    0.000162094100
  CG solver: Iteration    9    eps =    0.000023998926
  CG solver: Iteration   10    eps =    0.000002080004
  CG solver: Iteration   11    eps =    0.000000370440
  CG solver: Iteration   12    eps =    0.000000069156
  CG solver: Iteration   13    eps =    0.000000005848
  Convergence reached in CG solver after   13 iterations
  CG solver: Calculating converged R, Z, Q2 matrix
----------------------------------------------------------------------------------

----------------------------------------------------------------------------------
 Solving CP-REKS equation for SI between  1 and  2 state vectors...
----------------------------------------------------------------------------------
  CG solver: Constructing Y initial guess
  CG solver: Iteration    1    eps =    0.003992696659
  CG solver: Iteration    2    eps =    0.000816840943
  CG solver: Iteration    3    eps =    0.000030663303
  CG solver: Iteration    4    eps =    0.000166130849
  CG solver: Iteration    5    eps =    0.000138774471
  CG solver: Iteration    6    eps =    0.000104531639
  CG solver: Iteration    7    eps =    0.000068856593
  CG solver: Iteration    8    eps =    0.000012679516
  CG solver: Iteration    9    eps =    0.000000582768
  CG solver: Iteration   10    eps =    0.000000067600
  CG solver: Iteration   11    eps =    0.000000007341
  Convergence reached in CG solver after   11 iterations
  CG solver: Calculating converged R, Z, Q2 matrix
----------------------------------------------------------------------------------

--------------------------------------------------
 Gradient Information
--------------------------------------------------
           1 st state (SSR)
     0.00000000     0.00000000     0.00000000
     0.00000000     0.00000000     0.00000000
     0.00000000     0.00000000     0.00000000
     0.00000000     0.00000000     0.00000000
     0.00000000     0.00000000     0.00000000
     0.00000000     0.00000000     0.00000000
     0.00000000     0.00000000     0.00000000
     0.00000000     0.00000000     0.00000000
     0.00000000     0.00000000     0.00000000
     0.00000000     0.00000000     0.00000000
     0.00000000     0.00000000     0.00000000
     0.00000000     0.00000000     0.00000000
     0.00000000     0.00000000     0.00000000
     0.00000000     0.00000000     0.00000000

           2 st state (SSR)
     0.00000000     0.00000000     0.00000000
     0.00000000     0.00000000     0.00000000
     0.00000000     0.00000000     0.00000000
     0.00000000     0.00000000     0.00000000
     0.00000000     0.00000000     0.00000000
     0.00000000     0.00000000     0.00000000
     0.00000000     0.00000000     0.00000000
     0.00000000     0.00000000     0.00000000
     0.00000000     0.00000000     0.00000000
     0.00000000     0.00000000     0.00000000
     0.00000000     0.00000000     0.00000000
     0.00000000     0.00000000     0.00000000
     0.00000000     0.00000000     0.00000000
     0.00000000     0.00000000     0.00000000
--------------------------------------------------
 Coupling Information
--------------------------------------------------
 between  1 and  2 states
--------------------------------------------------
 g vector - difference gradient
    -0.00790396    -0.26066393     0.09905263
     0.12961651     0.14104605    -0.05377848
    -0.01633359     0.02233143     0.00791895
    -0.00256247     0.16995374    -0.13219952
     0.01958881     0.01022126     0.00543532
    -0.40847472    -0.04090274    -0.02098004
     0.36097831     0.43968299     0.26088462
    -0.07622236    -0.11602364     0.09449424
     0.04280238    -0.13797910    -0.07259663
    -0.43110302    -0.21196136    -0.12919225
     0.00878783    -0.12290548     0.10117739
     0.39479114     0.01173204    -0.14320630
     0.01242102     0.00741417     0.01356576
    -0.02638588     0.08805456    -0.03057570

 h vector - derivative coupling
    -0.00688213    -0.00959787    -0.00297215
     0.01576639     0.00208362     0.01402593
    -0.00017222     0.00094095    -0.00089060
    -0.00016320     0.00152883    -0.00156369
    -0.00198212    -0.00083558     0.00143709
    -0.00486663     0.01560894    -0.02091199
    -0.00526760    -0.00517432     0.00679343
    -0.00159835     0.00041849     0.00338744
     0.00371325    -0.00344249    -0.00018789
     0.00818521    -0.00402575    -0.00250407
     0.00072079    -0.00162111     0.00143642
    -0.00793657     0.00479298     0.00234356
     0.00028501     0.00041938    -0.00031174
     0.00019818    -0.00109607    -0.00008174

 G vector - GDV
     0.00000000     0.00000000     0.00000000
     0.00000000     0.00000000     0.00000000
     0.00000000     0.00000000     0.00000000
     0.00000000     0.00000000     0.00000000
     0.00000000     0.00000000     0.00000000
     0.00000000     0.00000000     0.00000000
     0.00000000     0.00000000     0.00000000
     0.00000000     0.00000000     0.00000000
     0.00000000     0.00000000     0.00000000
     0.00000000     0.00000000     0.00000000
     0.00000000     0.00000000     0.00000000
     0.00000000     0.00000000     0.00000000
     0.00000000     0.00000000     0.00000000
     0.00000000     0.00000000     0.00000000

 H vector - DCV - non-adiabatic coupling
     0.00000000     0.00000000     0.00000000
     0.00000000     0.00000000     0.00000000
     0.00000000     0.00000000     0.00000000
     0.00000000     0.00000000     0.00000000
     0.00000000     0.00000000     0.00000000
     0.00000000     0.00000000     0.00000000
     0.00000000     0.00000000     0.00000000
     0.00000000     0.00000000     0.00000000
     0.00000000     0.00000000     0.00000000
     0.00000000     0.00000000     0.00000000
     0.00000000     0.00000000     0.00000000
     0.00000000     0.00000000     0.00000000
     0.00000000     0.00000000     0.00000000
     0.00000000     0.00000000     0.00000000
--------------------------------------------------

WARNING!
-> SCC is NOT converged, maximal SCC iterations exceeded

--------------------------------------------------------------------------------
DFTB+ running times                          cpu [s]             wall clock [s]
--------------------------------------------------------------------------------
SCC                                    +     1.36  ( 80.6%)      1.36  ( 80.5%)
      Sparse to dense                        0.07  (  4.2%)      0.07  (  4.3%)
      Dense to sparse                        0.24  ( 14.3%)      0.24  ( 14.0%)
      Range separated Hamiltonian            0.12  (  7.4%)      0.13  (  7.5%)
  Density matrix creation                    0.15  (  9.0%)      0.16  (  9.2%)
  Force calculation                          0.32  ( 19.3%)      0.33  ( 19.3%)
--------------------------------------------------------------------------------
Missing                                +     0.33  ( 19.4%)      0.33  ( 19.5%)
Total                                  =     1.68  (100.0%)      1.69  (100.0%)
--------------------------------------------------------------------------------
