|===============================================================================
|
|  DFTB+ release 20.1
|
|  Copyright (C) 2006 - 2020  DFTB+ developers group
|
|===============================================================================
|
|  When publishing results obtained with DFTB+, please cite the following
|  reference:
|
|  * DFTB+, a software package for efficient approximate density functional
|    theory based atomistic simulations, J. Chem. Phys. 152, 124101 (2020).
|    [doi: 10.1063/1.5143190]
|
|  You should also cite additional publications crediting the parametrization
|  data you use. Please consult the documentation of the SK-files for the
|  references.
|
|===============================================================================

Reading input file 'dftb_in.hsd'
Parser version: 8

--------------------------------------------------------------------------------
Reading SK-files:
Done.


Processed input in HSD format written to 'dftb_pin.hsd'

Starting initialization...
--------------------------------------------------------------------------------
OpenMP threads:              1
Chosen random seed:          509736019
Mode:                        Static calculation
Self consistent charges:     Yes
SCC-tolerance:                 0.100000E-05
Max. scc iterations:                   1000
Shell resolved Hubbard:      No
Spin polarisation:           No
Nr. of up electrons:             6.000000
Nr. of down electrons:           6.000000
Periodic boundaries:         No
Electronic solver:           Relatively robust
Maximal SCC-cycles:                    1000
Initial charges:             Set automatically (system chrg:   0.100E+01)
Included shells:             C:  s, p
                             N:  s, p
                             H:  s
Spin coupling constants:     C   1(s)-1(s):  -0.455900E-01
                             C   1(s)-2(p):  -0.293000E-01
                             C   2(p)-1(s):  -0.293000E-01
                             C   2(p)-2(p):  -0.275500E-01
                             N   1(s)-1(s):  -0.468700E-01
                             N   1(s)-2(p):  -0.317000E-01
                             N   2(p)-1(s):  -0.317000E-01
                             N   2(p)-2(p):  -0.307200E-01
                             H   1(s)-1(s):  -0.792500E-01
Range separated hybrid:      Yes
  Screening parameter omega:   0.300000E+00
  Range separated algorithm:   MatrixBased
Extra options:
                             Mulliken analysis
                             Force calculation
Force type                   original
                             Eigenvector printing


REKS Calcuation:             Yes
SSR(2,2) Calcuation:         Yes
Energy Functional:           (PPS+OSS)/2
Number of Core Orbitals:                  5
Number of Active Orbitals:                2
Number of Basis:                         12
Number of States:                         2
State-Averaging Weight:          0.500000
                                 0.500000
State of Interest:                        1
Initial Guess:               Diagonalize H0 matrix
Newton-Raphson for FON opt:  Yes
NR max. Iterations:                      50
Level Shifting:              Yes
Shift Value:                     0.300000
W Scale Factor:              C  =    3.000000
                             N  =    3.000000
                             H  =    3.000000
Transition Dipole:           No
Gradient of Microstate:      No
CP-REKS Solver:              Preconditioned Conjugate-Gradient
CG max. Iterations:                     100
CG Tolerance:                  0.100000E-07
Memory for A and Hxc:        Direct Updating Without Saving
Non-Adiabatic Coupling:      Yes

--------------------------------------------------------------------------------

***  Geometry step: 0

  iSCC       reks energy        Diff energy         x_a       SCC error   
    1       -6.2836596143       0.0000000000     0.999959    1.19330629
    2       -6.2859576680      -0.0022980537     0.999965    0.02202261
    3       -6.2864189332      -0.0004612652     0.999968    0.00847177
    4       -6.2865433361      -0.0001244029     0.999970    0.00463222
    5       -6.2865877001      -0.0000443640     0.999971    0.00254811
    6       -6.2866077580      -0.0000200579     0.999972    0.00197819
    7       -6.2866183092      -0.0000105513     0.999972    0.00165954
    8       -6.2866243194      -0.0000060101     0.999972    0.00135976
    9       -6.2866278783      -0.0000035589     0.999972    0.00109910
   10       -6.2866300264      -0.0000021481     0.999973    0.00088111
   11       -6.2866313360      -0.0000013096     0.999973    0.00070268
   12       -6.2866321389      -0.0000008029     0.999973    0.00055846
   13       -6.2866326329      -0.0000004940     0.999973    0.00044281
   14       -6.2866329376      -0.0000003047     0.999973    0.00035054
   15       -6.2866331258      -0.0000001882     0.999973    0.00027717
   16       -6.2866332423      -0.0000001164     0.999973    0.00021898
   17       -6.2866333143      -0.0000000721     0.999973    0.00017291
   18       -6.2866333590      -0.0000000447     0.999973    0.00013647
   19       -6.2866333867      -0.0000000277     0.999973    0.00010767
   20       -6.2866334039      -0.0000000172     0.999973    0.00008493
   21       -6.2866334145      -0.0000000107     0.999973    0.00006698
   22       -6.2866334211      -0.0000000066     0.999973    0.00005282
   23       -6.2866334253      -0.0000000041     0.999973    0.00004165
   24       -6.2866334278      -0.0000000026     0.999973    0.00003284
   25       -6.2866334294      -0.0000000016     0.999973    0.00002589
   26       -6.2866334304      -0.0000000010     0.999973    0.00002041
   27       -6.2866334310      -0.0000000006     0.999973    0.00001609
   28       -6.2866334314      -0.0000000004     0.999973    0.00001268
   29       -6.2866334316      -0.0000000002     0.999973    0.00001000
   30       -6.2866334317      -0.0000000001     0.999973    0.00000788
   31       -6.2866334318      -0.0000000001     0.999973    0.00000621
   32       -6.2866334319      -0.0000000001     0.999973    0.00000490
   33       -6.2866334319      -0.0000000000     0.999973    0.00000386
   34       -6.2866334320      -0.0000000000     0.999973    0.00000304
   35       -6.2866334320      -0.0000000000     0.999973    0.00000240
   36       -6.2866334320      -0.0000000000     0.999973    0.00000189
   37       -6.2866334320      -0.0000000000     0.999973    0.00000149
   38       -6.2866334320      -0.0000000000     0.999973    0.00000118
   39       -6.2866334320      -0.0000000000     0.999973    0.00000093
  
--------------------------------------------------
 Final SA-REKS(2,2) energy:      -6.28663343
  
 State     Energy      FON(1)    FON(2)   Spin
  PPS   -6.41687488   1.999946  0.000054  0.00
  OSS   -6.15639198   1.000000  1.000000  0.00
 Trip   -6.23450535   1.000000  1.000000  1.00
--------------------------------------------------

 Lagrangian Wab:   0.00006027  0.00006027

--------------------------------------------------
 SSR: 2SI-2SA-REKS(2,2) Hamiltonian matrix
               PPS           OSS
   PPS    -6.41687488    0.00008480
   OSS     0.00008480   -6.15639198
--------------------------------------------------

----------------------------------------------------------------
 SSR: 2SI-2SA-REKS(2,2) states
                    E_n       C_{PPS}    C_{OSS}
 SSR state  1   -6.41687491  -1.000000   0.000326
 SSR state  2   -6.15639195  -0.000326  -1.000000
----------------------------------------------------------------

 unrelaxed SSR FONs for S0:  1.999946  0.000054

Total Energy:                       -6.4168749124 H         -174.6121 eV
Extrapolated to 0:                  -6.4168749124 H         -174.6121 eV

----------------------------------------------------------------------------------
 Solving CP-REKS equation for  1 state vector...
----------------------------------------------------------------------------------
  CG solver: Constructing Y initial guess
  CG solver: Iteration    1    eps =    0.000033807672
  CG solver: Iteration    2    eps =    0.000001768874
  CG solver: Iteration    3    eps =    0.000000349430
  CG solver: Iteration    4    eps =    0.000000003530
  Convergence reached in CG solver after    4 iterations
  CG solver: Calculating converged R, Z, Q2 matrix
----------------------------------------------------------------------------------

----------------------------------------------------------------------------------
 Solving CP-REKS equation for SI between  1 and  2 state vectors...
----------------------------------------------------------------------------------
  CG solver: Constructing Y initial guess
  CG solver: Iteration    1    eps =    0.000303475150
  CG solver: Iteration    2    eps =    0.000085606366
  CG solver: Iteration    3    eps =    0.000003548999
  CG solver: Iteration    4    eps =    0.000000382807
  CG solver: Iteration    5    eps =    0.000000001775
  Convergence reached in CG solver after    5 iterations
  CG solver: Calculating converged R, Z, Q2 matrix
----------------------------------------------------------------------------------

--------------------------------------------------
 Gradient Information
--------------------------------------------------
           1 st state (SSR)
    -0.00770890    -0.00568072     0.01691878
     0.00357512     0.01289267    -0.01288055
    -0.00029964     0.00107978    -0.00450091
    -0.00104827    -0.00456490     0.00364360
     0.00110830    -0.00471293     0.00874980
     0.00437340     0.00098609    -0.01193071

           2 st state (SSR)
     0.00168026     0.00225549     0.11627064
     0.00502031    -0.00431609    -0.13626876
    -0.01755656    -0.00147692     0.01541820
    -0.00847129     0.00288020    -0.00494151
     0.00630542     0.00223991    -0.00097065
     0.01302187    -0.00158259     0.01049208
--------------------------------------------------
 Coupling Information
--------------------------------------------------
 between  1 and  2 states
--------------------------------------------------
 g vector - difference gradient
    -0.00469633    -0.00396891    -0.04967606
    -0.00072011     0.00860428     0.06169408
     0.00862903     0.00128232    -0.00995942
     0.00371056    -0.00372628     0.00429215
    -0.00259932    -0.00347267     0.00486069
    -0.00432383     0.00128125    -0.01121143

 h vector - derivative coupling
    -0.00268528    -0.00123251    -0.00018517
     0.00381393    -0.00015475    -0.00006474
     0.00087710     0.00608777     0.00021069
    -0.00146333    -0.00572117    -0.00062457
    -0.00117295     0.00577019     0.00071153
     0.00063053    -0.00474954    -0.00004774

 G vector - GDV
    -0.00469458    -0.00396810    -0.04967593
    -0.00072260     0.00860438     0.06169410
     0.00862846     0.00127835    -0.00995955
     0.00371151    -0.00372255     0.00429255
    -0.00259856    -0.00347642     0.00486022
    -0.00432424     0.00128434    -0.01121140

 H vector - DCV - non-adiabatic coupling
    -0.01032060    -0.00474155    -0.00083504
     0.01463996    -0.00057258    -0.00009433
     0.00338878     0.02337430     0.00078396
    -0.00560849    -0.02197300    -0.00238702
    -0.00450947     0.02214321     0.00274372
     0.00240982    -0.01823039    -0.00021129
--------------------------------------------------


--------------------------------------------------------------------------------
DFTB+ running times                          cpu [s]             wall clock [s]
--------------------------------------------------------------------------------
SCC                                    +     0.02  ( 59.2%)      0.02  ( 48.0%)
Post-SCC processing                    +     0.01  ( 34.9%)      0.01  ( 30.0%)
  Force calculation                          0.01  ( 34.2%)      0.01  ( 26.0%)
--------------------------------------------------------------------------------
Missing                                +     0.00  (  5.9%)      0.01  ( 22.0%)
Total                                  =     0.04  (100.0%)      0.05  (100.0%)
--------------------------------------------------------------------------------
