     6
  Step:     0            Position(A)                                  Velocity(au)
C        -0.04276078    -0.00121782     0.01147429     0.00006418    -0.00009814     0.00029223
N        -0.04638831    -0.03916636     1.29487511     0.00021674     0.00009902    -0.00022964
H         0.95128479     0.07101496    -0.48719796    -0.00044515     0.00007070    -0.00006937
H         0.84610341    -0.20548524     1.84986619    -0.00191868     0.00000229    -0.00074854
H        -0.91363831    -0.10129644     1.90881054    -0.00102359    -0.00069650     0.00061500
H        -0.94251919     0.12476960    -0.51020555    -0.00038918     0.00041687    -0.00008826
     6
  Step:     1            Position(A)                                  Velocity(au)
C        -0.04236799    -0.00176631     0.01296819     0.00007840    -0.00010237     0.00025231
N        -0.04519767    -0.03862567     1.29378290     0.00021648     0.00009886    -0.00016877
H         0.94886766     0.07145310    -0.48775440    -0.00043606     0.00008976    -0.00013513
H         0.83531996    -0.20547241     1.84563963    -0.00200467    -0.00000119    -0.00078498
H        -0.91897443    -0.10511662     1.91198004    -0.00091633    -0.00069927     0.00053460
H        -0.94520823     0.12716069    -0.51121621    -0.00058531     0.00045663    -0.00027587
     6
  Step:     2            Position(A)                                  Velocity(au)
C        -0.04190304    -0.00233783     0.01423478     0.00009033    -0.00010645     0.00020910
N        -0.04401988    -0.03808471     1.29302864     0.00021182     0.00009909    -0.00010647
H         0.94651391     0.07199699    -0.48867639    -0.00042187     0.00010927    -0.00020277
H         0.82417073    -0.20549821     1.84127789    -0.00204837    -0.00001238    -0.00079568
H        -0.92366369    -0.10894705     1.91465946    -0.00078842    -0.00069970     0.00043696
H        -0.94892290     0.12976554    -0.51322375    -0.00076120     0.00049421    -0.00045080
     6
  Step:     3            Position(A)                                  Velocity(au)
C        -0.04137934    -0.00293141     0.01525690     0.00009970    -0.00011033     0.00016305
N        -0.04287918    -0.03754112     1.29261759     0.00020274     0.00009980    -0.00004379
H         0.94425017     0.07264907    -0.48997383    -0.00040316     0.00012919    -0.00027203
H         0.81289996    -0.20560792     1.83693062    -0.00204553    -0.00003235    -0.00077771
H        -0.92760390    -0.11277507     1.91676266    -0.00064403    -0.00069791     0.00032527
H        -0.95353983     0.13257000    -0.51615039    -0.00091260     0.00052884    -0.00061008
     6
  Step:     4            Position(A)                                  Velocity(au)
C        -0.04081142    -0.00354589     0.01602009     0.00010636    -0.00011399     0.00011467
N        -0.04179992    -0.03699194     1.29254921     0.00018926     0.00010110     0.00001825
H         0.94209953     0.07341156    -0.49165495    -0.00038062     0.00014948    -0.00034256
H         0.80177303    -0.20585238     1.83276232    -0.00199296    -0.00006200    -0.00072876
H        -0.93071555    -0.11658887     1.91822102    -0.00048726    -0.00069408     0.00020271
H        -0.95891549     0.13555606    -0.51990385    -0.00103650     0.00055988    -0.00075148
     6
  Step:     5            Position(A)                                  Velocity(au)
C        -0.04021433    -0.00417998     0.01651297     0.00011029    -0.00011741     0.00006457
N        -0.04080612    -0.03643369     1.29281743     0.00017149     0.00010308     0.00007867
H         0.94008102     0.07428640    -0.49372604    -0.00035506     0.00017009    -0.00041399
H         0.79107001    -0.20628703     1.82894812    -0.00188891    -0.00010203    -0.00064751
H        -0.93294108    -0.12037774     1.91898305    -0.00032202    -0.00068846     0.00007237
H        -0.96489319     0.13870270    -0.52438173    -0.00113121     0.00058691    -0.00087360
     6
  Step:     6            Position(A)                                  Velocity(au)
C        -0.03960295    -0.00483231     0.01672764     0.00011158    -0.00012058     0.00001340
N        -0.03992092    -0.03586248     1.29341116     0.00014966     0.00010580     0.00013663
H         0.93820905     0.07527520    -0.49619113    -0.00032735     0.00019094    -0.00048591
H         0.78107603    -0.20697037     1.82566744    -0.00173354    -0.00015281    -0.00053391
H        -0.93424391    -0.12413237     1.91901393    -0.00015206    -0.00068131    -0.00006278
H        -0.97131028     0.14198689    -0.52947600    -0.00119627     0.00060965    -0.00097582
     6
  Step:     7            Position(A)                                  Velocity(au)
C        -0.03899143    -0.00550152     0.01665984     0.00011039    -0.00012350    -0.00003819
N        -0.03916579    -0.03527409     1.29431493     0.00012417     0.00010930     0.00019143
H         0.93649315     0.07637919    -0.49905177    -0.00029840     0.00021199    -0.00055784
H         0.77206993    -0.20796186     1.82309629    -0.00152923    -0.00021425    -0.00038943
H        -0.93460766    -0.12784503     1.91829495     0.00001901    -0.00067294    -0.00019984
H        -0.97800459     0.14538459    -0.53507704    -0.00123221     0.00062797    -0.00105816
     6
  Step:     8            Position(A)                                  Velocity(au)
C        -0.03839277    -0.00618629     0.01630900     0.00010697    -0.00012620    -0.00008952
N        -0.03855963    -0.03466424     1.29550983     0.00009557     0.00011356     0.00024253
H         0.93493768     0.07759921    -0.50230680    -0.00026914     0.00023313    -0.00062926
H         0.76431095    -0.20931918     1.82139809    -0.00128084    -0.00028573    -0.00021727
H        -0.93403545    -0.13150985     1.91682304     0.00018770    -0.00066370    -0.00033600
H        -0.98481908     0.14887142    -0.54107669    -0.00124035     0.00064189    -0.00112112
     6
  Step:     9            Position(A)                                  Velocity(au)
C        -0.03781846    -0.00688537     0.01567819     0.00010161    -0.00012867    -0.00013995
N        -0.03811780    -0.03402878     1.29697443     0.00006459     0.00011855     0.00028954
H         0.93354180     0.07893559    -0.50595207    -0.00024051     0.00025426    -0.00069958
H         0.75802466    -0.21109506     1.82071381    -0.00099570    -0.00036602    -0.00002238
H        -0.93254943    -0.13512293     1.91461042     0.00035051    -0.00065393    -0.00046847
H        -0.99160594     0.15242331    -0.54737090    -0.00122260     0.00065146    -0.00116558
     6
  Step:    10            Position(A)                                  Velocity(au)
C        -0.03727831    -0.00759756     0.01477395     0.00009461    -0.00013091    -0.00018885
N        -0.03785113    -0.03336397     1.29868565     0.00003215     0.00012414     0.00033223
H         0.93229963     0.08038803    -0.50998010    -0.00021340     0.00027524    -0.00076812
H         0.75338975    -0.21333383     1.82115259    -0.00068343    -0.00045325     0.00018861
H        -0.93019087    -0.13868246     1.91168463     0.00050393    -0.00064402    -0.00059441
H        -0.99822903     0.15601687    -0.55386128    -0.00118113     0.00065680    -0.00119260
     6
  Step:    11            Position(A)                                  Velocity(au)
C        -0.03678042    -0.00832167     0.01360620     0.00008630    -0.00013292    -0.00023560
N        -0.03776509    -0.03266676     1.30061951    -0.00000072     0.00013019     0.00037045
H         0.93120045     0.08195543    -0.51437961    -0.00018864     0.00029589    -0.00083409
H         0.75052632    -0.21606794     1.82278314    -0.00035556    -0.00054491     0.00040769
H        -0.92702054    -0.14218885     1.90808875     0.00064425    -0.00063433    -0.00071089
H        -1.00456486     0.15962949    -0.56045567    -0.00111830     0.00065803    -0.00120329
     6
  Step:    12            Position(A)                                  Velocity(au)
C        -0.03633113    -0.00905645     0.01218807     0.00007698    -0.00013466    -0.00027959
N        -0.03785902    -0.03193505     1.30275163    -0.00003284     0.00013649     0.00040411
H         0.93022909     0.08363565    -0.51913497    -0.00016700     0.00031596    -0.00089657
H         0.74948711    -0.21931476     1.82562734    -0.00002490    -0.00063798     0.00062590
H        -0.92311961    -0.14564481     1.90388201     0.00076761    -0.00062528    -0.00081482
H        -1.01050343     0.16323932    -0.56706845    -0.00103655     0.00065523    -0.00119876
     6
  Step:    13            Position(A)                                  Velocity(au)
C        -0.03593510    -0.00980051     0.01053585     0.00006694    -0.00013611    -0.00032022
N        -0.03812570    -0.03116790     1.30505739    -0.00006299     0.00014281     0.00043316
H         0.92936649     0.08542521    -0.52422554    -0.00014913     0.00033516    -0.00095453
H         0.75025283    -0.22307411     1.82965665     0.00029528    -0.00072903     0.00083392
H        -0.91859084    -0.14905550     1.89914058     0.00086992    -0.00061729    -0.00090301
H        -1.01594807     0.16682515    -0.57362021    -0.00093830     0.00064850    -0.00118007
     6
  Step:    14            Position(A)                                  Velocity(au)
C        -0.03559545    -0.01055226     0.00866894     0.00005648    -0.00013720    -0.00035691
N        -0.03855130    -0.03036564     1.30751195    -0.00008999     0.00014890     0.00045749
H         0.92859023     0.08731901    -0.52962511    -0.00013555     0.00035316    -0.00100687
H         0.75273215    -0.22732673     1.83479195     0.00059214    -0.00081452     0.00102273
H        -0.91355938    -0.15242871     1.89395806     0.00094708    -0.00061085    -0.00097227
H        -1.02081516     0.17036618    -0.58003725    -0.00082601     0.00063788    -0.00114826
     6
  Step:    15            Position(A)                                  Velocity(au)
C        -0.03531382    -0.01130980     0.00660974     0.00004584    -0.00013789    -0.00038911
N        -0.03911565    -0.02952994     1.31008999    -0.00011274     0.00015453     0.00047700
H         0.92787533     0.08931013    -0.53530151    -0.00012667     0.00036960    -0.00105247
H         0.75676658    -0.23203412     1.84090709     0.00085422    -0.00089100     0.00118436
H        -0.90817262    -0.15577505     1.88844524     0.00099520    -0.00060647    -0.00101959
H        -1.02503444     0.17384206    -0.58625148    -0.00070223     0.00062349    -0.00110439
     6
  Step:    16            Position(A)                                  Velocity(au)
C        -0.03509053    -0.01207092     0.00438346     0.00003528    -0.00013812    -0.00041634
N        -0.03979302    -0.02866370     1.31276548    -0.00013034     0.00015949     0.00049156
H         0.92719512     0.09138968    -0.54121658    -0.00012269     0.00038413    -0.00109029
H         0.76214016    -0.23713983     1.84783600     0.00107226    -0.00095547     0.00131246
H        -0.90259866    -0.15910813     1.88272872     0.00101091    -0.00060473    -0.00104241
H        -1.02854921     0.17723300    -0.59220054    -0.00056958     0.00060547    -0.00104963
     6
  Step:    17            Position(A)                                  Velocity(au)
C        -0.03492468    -0.01283315     0.00201777     0.00002501    -0.00013785    -0.00043825
N        -0.04055321    -0.02777085     1.31551159    -0.00014213     0.00016363     0.00050107
H         0.92652214     0.09354685    -0.54732668    -0.00012364     0.00039644    -0.00111951
H         0.76859283    -0.24257224     1.85538260     0.00123980    -0.00100558     0.00140279
H        -0.89702295    -0.16244477     1.87694817     0.00099181    -0.00060620    -0.00103894
H        -1.03131652     0.18052000    -0.59782816    -0.00043075     0.00058409    -0.00098529
     6
  Step:    18            Position(A)                                  Velocity(au)
C        -0.03481430    -0.01359379    -0.00045794     0.00001520    -0.00013708    -0.00045465
N        -0.04136314    -0.02685607     1.31830086    -0.00014778     0.00016686     0.00050552
H         0.92582922     0.09576918    -0.55358383    -0.00012938     0.00040630    -0.00113959
H         0.77583625    -0.24824853     1.86333272     0.00135356    -0.00103990     0.00145350
H        -0.89164213    -0.16580488     1.87125149     0.00093685    -0.00061146    -0.00100848
H        -1.03330777     0.18368545    -0.60308503    -0.00028849     0.00055972    -0.00091288
     6
  Step:    19            Position(A)                                  Velocity(au)
C        -0.03475650    -0.01435008    -0.00301334     0.00000601    -0.00013582    -0.00046553
N        -0.04218851    -0.02592438     1.32110570    -0.00014728     0.00016917     0.00050504
H         0.92509044     0.09804298    -0.55993737    -0.00013957     0.00041359    -0.00115043
H         0.78357128    -0.25407968     1.87146699     0.00141343    -0.00105793     0.00146507
H        -0.88665578    -0.16921118     1.86578839     0.00084674    -0.00062099    -0.00095163
H        -1.03450899     0.18671381    -0.60793002    -0.00014551     0.00053288    -0.00083412
     6
  Step:    20            Position(A)                                  Velocity(au)
C        -0.03474763    -0.01509938    -0.00561829    -0.00000243    -0.00013413    -0.00047112
N        -0.04299575    -0.02498082     1.32389924    -0.00014097     0.00017062     0.00049993
H         0.92428211     0.10035385    -0.56633630    -0.00015375     0.00041835    -0.00115234
H         0.79150409    -0.25997561     1.87957300     0.00142214    -0.00106018     0.00144009
H        -0.88225610    -0.17268850     1.86070275     0.00072393    -0.00063516    -0.00087036
H        -1.03492073     0.18959239    -0.61233118    -0.00000430     0.00050421    -0.00075085
     6
  Step:    21            Position(A)                                  Velocity(au)
C        -0.03478353    -0.01583933    -0.00824402    -0.00001008    -0.00013210    -0.00047183
N        -0.04375364    -0.02402998     1.32665630    -0.00012944     0.00017135     0.00049067
H         0.92338335     0.10268784    -0.57273149    -0.00017139     0.00042077    -0.00114605
H         0.79936095    -0.26585061     1.88745592     0.00138468    -0.00104802     0.00138275
H        -0.87861816    -0.17626321     1.85612499     0.00057264    -0.00065420    -0.00076795
H        -1.03455677     0.19231188    -0.61626652     0.00013296     0.00047441    -0.00066496
     6
  Step:    22            Position(A)                                  Velocity(au)
C        -0.03485971    -0.01656805    -0.01086414    -0.00001690    -0.00012983    -0.00046826
N        -0.04443482    -0.02307579     1.32935451    -0.00011350     0.00017150     0.00047791
H         0.92237661     0.10503201    -0.57907812    -0.00019188     0.00042116    -0.00113267
H         0.80689899    -0.27162750     1.89494637     0.00130749    -0.00102342     0.00129825
H        -0.87588951    -0.17996190     1.85216465     0.00039857    -0.00067810    -0.00064874
H        -1.03344245     0.19486685    -0.61972418     0.00026457     0.00044423    -0.00057824
     6
  Step:    23            Position(A)                                  Velocity(au)
C        -0.03497164    -0.01728432    -0.01345555    -0.00002291    -0.00012747    -0.00046108
N        -0.04501685    -0.02212130     1.33197517    -0.00009410     0.00017126     0.00046240
H         0.92124781     0.10737517    -0.58533750    -0.00021464     0.00041991    -0.00111349
H         0.81391258    -0.27724071     1.90190475     0.00119762    -0.00098870     0.00119217
H        -0.87418231    -0.18381015     1.84890482     0.00020845    -0.00070664    -0.00051775
H        -1.03161228     0.19725594    -0.62270207     0.00038929     0.00041440    -0.00049232
