 Fermi distribution function

Calculation with static geometry


********************************************************************************
 iSCC Total electronic   Diff electronic      SCC error    
   10   -0.54215910E+01   -0.11990409E-12    0.46879003E-07
********************************************************************************

 Total charge:     1.00000000

 Atomic gross charges (e)
 Atom           Charge
    1       0.16455283
    2      -0.04555526
    3       0.17772222
    4       0.26759789
    5       0.28017936
    6       0.15550296

Nr. of electrons (up):     12.00000000
Atom populations (up)
 Atom       Population
    1       3.83544717
    2       5.04555526
    3       0.82227778
    4       0.73240211
    5       0.71982064
    6       0.84449704

l-shell populations (up)
 Atom Sh.   l       Population
    1   1   0       1.30835389
    1   2   1       2.52709328
    2   1   0       1.41860458
    2   2   1       3.62695068
    3   1   0       0.82227778
    4   1   0       0.73240211
    5   1   0       0.71982064
    6   1   0       0.84449704

Orbital populations (up)
 Atom Sh.   l   m       Population  Label
    1   1   0   0       1.30835389  s
    1   2   1  -1       0.60136854  p_y
    1   2   1   0       0.88064881  p_z
    1   2   1   1       1.04507593  p_x
    2   1   0   0       1.41860458  s
    2   2   1  -1       1.34337050  p_y
    2   2   1   0       1.10339447  p_z
    2   2   1   1       1.18018572  p_x
    3   1   0   0       0.82227778  s
    4   1   0   0       0.73240211  s
    5   1   0   0       0.71982064  s
    6   1   0   0       0.84449704  s

Fermi level:                        -0.4932881036 H          -13.4231 eV
Band energy:                        -8.9469821896 H         -243.4598 eV
TS:                                  0.0000000000 H            0.0000 eV
Band free energy (E-TS):            -8.9469821896 H         -243.4598 eV
Extrapolated E(0K):                 -8.9469821896 H         -243.4598 eV
Input / Output electrons (q):     12.0000000000     12.0000000000

Energy H0:                          -5.5554748843 H         -151.1722 eV
Energy SCC:                          0.1338838555 H            3.6432 eV
Total Electronic energy:            -5.4215910288 H         -147.5290 eV
Repulsive energy:                    0.1908373602 H            5.1929 eV
Total energy:                       -5.2307536686 H         -142.3360 eV
Extrapolated to 0:                  -5.2307536686 H         -142.3360 eV
Total Mermin free energy:           -5.2307536686 H         -142.3360 eV
Force related energy:               -5.2307536686 H         -142.3360 eV

SCC converged

Excitation Energy:                   0.1540311286 H            4.1914 eV

Total Forces
    1      0.005204333358     -0.000722408099      0.007887607618
    2      0.005539017942      0.008160041709     -0.027824464541
    3     -0.010888442266      0.003307368726      0.006424095960
    4     -0.008456312641     -0.008574681986      0.003597131459
    5      0.003283050677      0.004902315114      0.004723504448
    6      0.005318352930     -0.007072635465      0.005192125055

Maximal derivative component:        0.278245E-01 au


