     6
  Step:     0            Position(A)                                  Velocity(au)
C        -0.04493066     0.01725088     0.03596619    -0.00001312     0.00004267     0.00005196
N        -0.04190369    -0.05251998     1.28239688    -0.00013294     0.00005676    -0.00009278
H         0.92638281    -0.02183510    -0.50686951    -0.00033793    -0.00016309     0.00033991
H         0.84572374    -0.12234765     1.85593801     0.00061038    -0.00050138     0.00065383
H        -0.91931239    -0.06695127     1.84494648     0.00134208    -0.00021473    -0.00035100
H        -0.94802706     0.06562959    -0.55118680     0.00038927    -0.00041802     0.00002731
     6
  Step:     1            Position(A)                                  Velocity(au)
C        -0.04496133     0.01753069     0.03583138     0.00000176     0.00005994    -0.00010186
N        -0.04262706    -0.05221384     1.28227295    -0.00012992     0.00005528     0.00004805
H         0.92464137    -0.02285964    -0.50496798    -0.00029721    -0.00021266     0.00035236
H         0.84894254    -0.12520458     1.85930016     0.00055756    -0.00054371     0.00057039
H        -0.91200791    -0.06823966     1.84293640     0.00131463    -0.00025787    -0.00037492
H        -0.94639086     0.06321095    -0.55111240     0.00020943    -0.00046809    -0.00000185
     6
  Step:     2            Position(A)                                  Velocity(au)
C        -0.04491137     0.01790637     0.03485213     0.00001623     0.00007777    -0.00025658
N        -0.04332453    -0.05191545     1.28292240    -0.00012356     0.00005402     0.00018957
H         0.92313236    -0.02416089    -0.50301585    -0.00025438    -0.00026450     0.00035829
H         0.85182155    -0.12829397     1.86217618     0.00048752    -0.00058696     0.00047792
H        -0.90493472    -0.06977152     1.84084611     0.00125756    -0.00030428    -0.00037922
H        -0.94573656     0.06051025    -0.55120702     0.00003300    -0.00052168    -0.00003403
     6
  Step:     3            Position(A)                                  Velocity(au)
C        -0.04478383     0.01838102     0.03302597     0.00003002     0.00009604    -0.00041122
N        -0.04397805    -0.05162320     1.28434571    -0.00011390     0.00005303     0.00033054
H         0.92185999    -0.02575157    -0.50105051    -0.00021176    -0.00031813     0.00035703
H         0.85427294    -0.13162229     1.86452568     0.00040239    -0.00063084     0.00037939
H        -0.89825807    -0.07156655     1.83879008     0.00116945    -0.00035398    -0.00036142
H        -0.94603001     0.05750700    -0.55148450    -0.00013486    -0.00057837    -0.00006826
     6
  Step:     4            Position(A)                                  Velocity(au)
C        -0.04458316     0.01895637     0.03035616     0.00004286     0.00011433    -0.00056416
N        -0.04456987    -0.05133567     1.28653627    -0.00010102     0.00005219     0.00046920
H         0.92081717    -0.02763901    -0.49911239    -0.00017072    -0.00037198     0.00034806
H         0.85622091    -0.13519098     1.86632414     0.00030457    -0.00067366     0.00027754
H        -0.89214893    -0.07364167     1.83689460     0.00104938    -0.00040580    -0.00031983
H        -0.94721100     0.05418680    -0.55195332    -0.00029001    -0.00063622    -0.00010350
     6
  Step:     5            Position(A)                                  Velocity(au)
C        -0.04431509     0.01963144     0.02685607     0.00005450     0.00013208    -0.00071273
N        -0.04508290    -0.05105243     1.28947709    -0.00008509     0.00005131     0.00060301
H         0.91999290    -0.02981977    -0.49724392    -0.00013114    -0.00042389     0.00033110
H         0.85760391    -0.13898982     1.86756100     0.00019711    -0.00071300     0.00017483
H        -0.88678151    -0.07600459     1.83529227     0.00089714    -0.00045770    -0.00025404
H        -0.94920173     0.05054902    -0.55261640    -0.00042995    -0.00069230    -0.00013864
     6
  Step:     6            Position(A)                                  Velocity(au)
C        -0.04398665     0.02040202     0.02255493     0.00006467     0.00014864    -0.00085329
N        -0.04550125    -0.05077404     1.29313650    -0.00006642     0.00005025     0.00072868
H         0.91938175    -0.03227867    -0.49548834    -0.00009152    -0.00047180     0.00030607
H         0.85837833    -0.14299509     1.86823769     0.00008379    -0.00074647     0.00007358
H        -0.88232931    -0.07865141     1.83411401     0.00071381    -0.00050756    -0.00016533
H        -0.95191699     0.04660923    -0.55347079    -0.00055360    -0.00074372    -0.00017255
     6
  Step:     7            Position(A)                                  Velocity(au)
C        -0.04360618     0.02126079     0.01750257     0.00007310     0.00016346    -0.00098151
N        -0.04581101    -0.05050157     1.29746464    -0.00004551     0.00004897     0.00084246
H         0.91898965    -0.03499149    -0.49388889    -0.00004987    -0.00051424     0.00027310
H         0.85852234    -0.14717240     1.86836751    -0.00003085    -0.00077237    -0.00002369
H        -0.87895701    -0.08156829     1.83347999     0.00050254    -0.00055366    -0.00005675
H        -0.95527005     0.04239667    -0.55450778    -0.00066042    -0.00078812    -0.00020415
     6
  Step:     8            Position(A)                                  Velocity(au)
C        -0.04318353     0.02219783     0.01177187     0.00007951     0.00017605    -0.00109291
N        -0.04600124    -0.05023600     1.30239192    -0.00002307     0.00004752     0.00094055
H         0.91883385    -0.03792813    -0.49248803    -0.00000459    -0.00055017     0.00023253
H         0.85803944    -0.15148049     1.86797742    -0.00014167    -0.00078964    -0.00011405
H        -0.87680828    -0.08473396     1.83349056     0.00026918    -0.00059464     0.00006693
H        -0.95917249     0.03795079    -0.55571366    -0.00074968    -0.00082375    -0.00023255
     6
  Step:     9            Position(A)                                  Velocity(au)
C        -0.04273002     0.02320083     0.00545899     0.00008364     0.00018600    -0.00118339
N        -0.04606524    -0.04997792     1.30782924    -0.00000004     0.00004597     0.00101955
H         0.91893908    -0.04105422    -0.49132643     0.00004507    -0.00057888     0.00018503
H         0.85696122    -0.15587396     1.86711070    -0.00024321    -0.00079774    -0.00019423
H        -0.87599072    -0.08812102     1.83421756     0.00002240    -0.00062936     0.00019940
H        -0.96353129     0.03331917    -0.55707044    -0.00082026    -0.00084925    -0.00025699
     6
  Step:    10            Position(A)                                  Velocity(au)
C        -0.04225830     0.02425543    -0.00131904     0.00008533     0.00019302    -0.00124981
N        -0.04600169    -0.04972748     1.31367039     0.00002246     0.00004441     0.00107694
H         0.91933240    -0.04433180    -0.49044114     0.00009889    -0.00059986     0.00013167
H         0.85534901    -0.16030529     1.86582878    -0.00033007    -0.00079670    -0.00026093
H        -0.87656046    -0.09169612     1.83569639    -0.00022671    -0.00065685     0.00033324
H        -0.96824641     0.02855619    -0.55855649    -0.00087103    -0.00086372    -0.00027681
     6
  Step:    11            Position(A)                                  Velocity(au)
C        -0.04178176     0.02534575    -0.00842958     0.00008458     0.00019699    -0.00129071
N        -0.04581561    -0.04948444     1.31979679     0.00004326     0.00004292     0.00111167
H         0.92003797    -0.04772023    -0.48986328     0.00015584    -0.00061306     0.00007391
H         0.85329329    -0.16472730     1.86421106    -0.00039753    -0.00078724    -0.00031135
H        -0.87851005    -0.09542029     1.83792065    -0.00046590    -0.00067648     0.00046071
H        -0.97321070     0.02372101    -0.56014648    -0.00090140    -0.00086701    -0.00029142
     6
  Step:    12            Position(A)                                  Velocity(au)
C        -0.04131371     0.02645529    -0.01573308     0.00008158     0.00019807    -0.00130693
N        -0.04551859    -0.04924813     1.32608505     0.00006127     0.00004161     0.00112470
H         0.92107277    -0.05117822    -0.48961573     0.00021442    -0.00061909     0.00001352
H         0.85090962    -0.16909678     1.86235179    -0.00044227    -0.00077101    -0.00034373
H        -0.88176346    -0.09925075     1.84084140    -0.00068364    -0.00068833     0.00057498
H        -0.97831285     0.01887382    -0.56181093    -0.00091202    -0.00086003    -0.00030056
     6
  Step:    13            Position(A)                                  Velocity(au)
C        -0.04086628     0.02756849    -0.02309572     0.00007671     0.00019678    -0.00130203
N        -0.04512805    -0.04901752     1.33241792     0.00007573     0.00004056     0.00111929
H         0.92244412    -0.05466753    -0.48971162     0.00027308    -0.00061942    -0.00004782
H         0.84833028    -0.17337939     1.86035379    -0.00046299    -0.00075067    -0.00035782
H        -0.88618172    -0.10314462     1.84437291    -0.00087123    -0.00069346     0.00067128
H        -0.98344516     0.01406996    -0.56351934    -0.00090532    -0.00084497    -0.00030474
     6
  Step:    14            Position(A)                                  Velocity(au)
C        -0.04044932     0.02867254    -0.03040390     0.00007051     0.00019388    -0.00128174
N        -0.04466529    -0.04879108     1.33869682     0.00008629     0.00003990     0.00110059
H         0.92414972    -0.05815768    -0.49015451     0.00033073    -0.00061632    -0.00010879
H         0.84569286    -0.17755502     1.85832005    -0.00046043    -0.00072958    -0.00035480
H        -0.89158020    -0.10706445     1.84840516    -0.00102431    -0.00069388     0.00074772
H        -0.98851365     0.00935297    -0.56524460    -0.00088531    -0.00082509    -0.00030510
     6
  Step:    15            Position(A)                                  Velocity(au)
C        -0.04006968     0.02975885    -0.03757581     0.00006352     0.00019027    -0.00125263
N        -0.04415320    -0.04856672     1.34485150     0.00009299     0.00003974     0.00107438
H         0.92618041    -0.06163023    -0.49094062     0.00038689    -0.00061232    -0.00016875
H         0.84312874    -0.18162165     1.85634556    -0.00043672    -0.00071121    -0.00033680
H        -0.89775354    -0.11098355     1.85282003    -0.00114274    -0.00069207     0.00080496
H        -0.99344664     0.00474880    -0.56696612    -0.00085658    -0.00080394    -0.00030311
     6
  Step:    16            Position(A)                                  Velocity(au)
C        -0.03973113     0.03082365    -0.04456565     0.00005620     0.00018667    -0.00122031
N        -0.04361396    -0.04834177     1.35084339     0.00009609     0.00004016     0.00104559
H         0.92852370    -0.06508040    -0.49206234     0.00044139    -0.00060956    -0.00022759
H         0.84075541    -0.18559571     1.85451229    -0.00039437    -0.00069825    -0.00030608
H        -0.90449964    -0.11488872     1.85750572    -0.00122893    -0.00069017     0.00084503
H        -0.99819780     0.00026396    -0.56867141    -0.00082302    -0.00078443    -0.00030007
     6
  Step:    17            Position(A)                                  Velocity(au)
C        -0.03943492     0.03186719    -0.05135846     0.00004884     0.00018352    -0.00118824
N        -0.04306794    -0.04811319     1.35666081     0.00009587     0.00004117     0.00101723
H         0.93116567    -0.06851483    -0.49351107     0.00049387    -0.00060919    -0.00028528
H         0.83867453    -0.18950800     1.85288862    -0.00033551    -0.00069214    -0.00026446
H        -0.91163356    -0.11877864     1.86236413    -0.00128558    -0.00068939     0.00086991
H        -1.00274218    -0.00411086    -0.57035522    -0.00078701    -0.00076814    -0.00029684
     6
  Step:    18            Position(A)                                  Velocity(au)
C        -0.03918064     0.03289201    -0.05795797     0.00004162     0.00018089    -0.00115757
N        -0.04253344    -0.04787781     1.36230827     0.00009257     0.00004273     0.00099029
H         0.93408996    -0.07194634    -0.49527765     0.00054330    -0.00061129    -0.00034145
H         0.83697396    -0.19339664     1.85153163    -0.00026189    -0.00069300    -0.00021336
H        -0.91898895    -0.12265863     1.86731017    -0.00131436    -0.00068980     0.00088073
H        -1.00706788    -0.00839347    -0.57201702    -0.00074932    -0.00075524    -0.00029375
     6
  Step:    19            Position(A)                                  Velocity(au)
C        -0.03896700     0.03390109    -0.06437393     0.00003462     0.00017865    -0.00112786
N        -0.04202708    -0.04763271     1.36779543     0.00008639     0.00004477     0.00096441
H         0.93727444    -0.07538811    -0.49735029     0.00058809    -0.00061522    -0.00039535
H         0.83572993    -0.19729993     1.85048964    -0.00017533    -0.00069999    -0.00015406
H        -0.92641202    -0.12653468     1.87226693    -0.00131598    -0.00069073     0.00087793
H        -1.01116740    -0.01260266    -0.57365808    -0.00070978    -0.00074501    -0.00029074
     6
  Step:    20            Position(A)                                  Velocity(au)
C        -0.03879218     0.03489662    -0.07061360     0.00002794     0.00017657    -0.00109815
N        -0.04156407    -0.04737544     1.37312985     0.00007755     0.00004717     0.00093878
H         0.94068883    -0.07884964    -0.49971379     0.00062643    -0.00062000    -0.00044608
H         0.83500655    -0.20125119     1.84980295    -0.00007826    -0.00071186    -0.00008808
H        -0.93375537    -0.13040929     1.87716128    -0.00129087    -0.00069125     0.00086172
H        -1.01503227    -0.01675318    -0.57527943    -0.00066792    -0.00073640    -0.00028764
     6
  Step:    21            Position(A)                                  Velocity(au)
C        -0.03865392     0.03587953    -0.07667864     0.00002167     0.00017443    -0.00106751
N        -0.04115810    -0.04710416     1.37831441     0.00006638     0.00004982     0.00091262
H         0.94429352    -0.08233513    -0.50234859     0.00065660    -0.00062468    -0.00049273
H         0.83485303    -0.20527629     1.84950276     0.00002621    -0.00072720    -0.00001731
H        -0.94087613    -0.13428005     1.88192248    -0.00124005    -0.00069050     0.00083264
H        -1.01865140    -0.02085402    -0.57688109    -0.00062341    -0.00072843    -0.00028427
     6
  Step:    22            Position(A)                                  Velocity(au)
C        -0.03854952     0.03684956    -0.08256552     0.00001591     0.00017208    -0.00103537
N        -0.04082087    -0.04681768     1.38334763     0.00005330     0.00005260     0.00088547
H         0.94804014    -0.08584359    -0.50523045     0.00067720    -0.00062851    -0.00053448
H         0.83529997    -0.20939298     1.84960914     0.00013430    -0.00074466     0.00005598
H        -0.94763913    -0.13814017     1.88648354    -0.00116551    -0.00068794     0.00079169
H        -1.02201202    -0.02490878    -0.57846214    -0.00057625    -0.00072037    -0.00028055
     6
  Step:    23            Position(A)                                  Velocity(au)
C        -0.03847583     0.03780560    -0.08826746     0.00001075     0.00016942    -0.00100156
N        -0.04056150    -0.04651541     1.38822543     0.00003884     0.00005542     0.00085721
H         0.95187339    -0.08936997    -0.50833100     0.00068732    -0.00063098    -0.00057072
H         0.83635619    -0.21361115     1.85012938     0.00024183    -0.00076299     0.00012937
H        -0.95392156    -0.14198008     1.89078378    -0.00107007    -0.00068333     0.00074039
H        -1.02510135    -0.02891702    -0.58002123    -0.00052676    -0.00071175    -0.00027649
     6
  Step:    24            Position(A)                                  Velocity(au)
C        -0.03842924     0.03874601    -0.09377653     0.00000626     0.00016643    -0.00096620
N        -0.04038617    -0.04619730     1.39294282     0.00002354     0.00005820     0.00082796
H         0.95573365    -0.09290645    -0.51161886     0.00068650    -0.00063180    -0.00060110
H         0.83800687    -0.21793354     1.85105725     0.00034455    -0.00078110     0.00020043
H        -0.95961698    -0.14578907     1.89477106    -0.00095723    -0.00067673     0.00068057
H        -1.02790829    -0.03287577    -0.58155709    -0.00047546    -0.00070236    -0.00027221
     6
  Step:    25            Position(A)                                  Velocity(au)
C        -0.03840580     0.03966899    -0.09908534     0.00000249     0.00016311    -0.00092963
N        -0.04029793    -0.04586376     1.39749547     0.00000799     0.00006087     0.00079803
H         0.95955968    -0.09644381    -0.51506109     0.00067480    -0.00063091    -0.00062552
H         0.84021383    -0.22235659     1.85237342     0.00043847    -0.00079803     0.00026693
H        -0.96463893    -0.14955691     1.89840362    -0.00083089    -0.00066840     0.00061430
H        -1.03042469    -0.03678080    -0.58306900    -0.00042302    -0.00069214    -0.00026787
     6
  Step:    26            Position(A)                                  Velocity(au)
C        -0.03840134     0.04057281    -0.10418822    -0.00000052     0.00015951    -0.00089231
N        -0.04029672    -0.04551559     1.40188056    -0.00000729     0.00006337     0.00076782
H         0.96329127    -0.09997252    -0.51862455     0.00065266    -0.00062839    -0.00064411
H         0.84291763    -0.22687131     1.85404683     0.00052013    -0.00081297     0.00032700
H        -0.96892281    -0.15327506     1.90165106    -0.00069513    -0.00065881     0.00054368
H        -1.03264603    -0.04062760    -0.58455718    -0.00037016    -0.00068117    -0.00026367
     6
  Step:    27            Position(A)                                  Velocity(au)
C        -0.03841164     0.04145595    -0.10908190    -0.00000279     0.00015568    -0.00085471
N        -0.04037956    -0.04515381     1.40609735    -0.00002180     0.00006568     0.00073774
H         0.96687145    -0.10348371    -0.52227712     0.00062085    -0.00062446    -0.00065720
H         0.84604086    -0.23146428     1.85603685     0.00058676    -0.00082524     0.00037919
H        -0.97242647    -0.15693760     1.90449448    -0.00055389    -0.00064851     0.00047074
H        -1.03457162    -0.04441194    -0.58602295    -0.00031756    -0.00066955    -0.00025984
     6
  Step:    28            Position(A)                                  Velocity(au)
C        -0.03843258     0.04231724    -0.11376561    -0.00000434     0.00015169    -0.00081731
N        -0.04054096    -0.04477964     1.41014720    -0.00003514     0.00006777     0.00070817
H         0.97024809    -0.10696984    -0.52598868     0.00058036    -0.00061942    -0.00066521
H         0.84949249    -0.23611846     1.85829578     0.00063639    -0.00083432     0.00042251
H        -0.97512942    -0.16054184     1.90692589    -0.00041090    -0.00063812     0.00039734
H        -1.03620446    -0.04813020    -0.58746879    -0.00026585    -0.00065742    -0.00025659
     6
  Step:    29            Position(A)                                  Velocity(au)
C        -0.03846024     0.04315586    -0.11824100    -0.00000522     0.00014761    -0.00078049
N        -0.04077333    -0.04439437     1.41403341    -0.00004698     0.00006964     0.00067943
H         0.97337516    -0.11042525    -0.52973174     0.00053232    -0.00061367    -0.00066866
H         0.85317247    -0.24081398     1.86077162     0.00066783    -0.00083975     0.00045643
H        -0.97703124    -0.16408865     1.90894724    -0.00026951    -0.00062832     0.00032511
H        -1.03755088    -0.05177930    -0.58889839    -0.00021555    -0.00064485    -0.00025413
     6
  Step:    30            Position(A)                                  Velocity(au)
C        -0.03849108     0.04397134    -0.12251180    -0.00000551     0.00014349    -0.00074457
N        -0.04106743    -0.04399930     1.41776088    -0.00005707     0.00007129     0.00065174
H         0.97621329    -0.11384660    -0.53348168     0.00047794    -0.00060764    -0.00066806
H         0.85697621    -0.24552877     1.86341058     0.00068064    -0.00084118     0.00048087
H        -0.97814951    -0.16758277     1.91056907    -0.00013266    -0.00061980     0.00025544
H        -1.03861995    -0.05535646    -0.59031661    -0.00016708    -0.00063185    -0.00025269
     6
  Step:    31            Position(A)                                  Velocity(au)
C        -0.03852200     0.04476355    -0.12658338    -0.00000531     0.00013939    -0.00070977
N        -0.04141279    -0.04359566     1.42133564    -0.00006523     0.00007274     0.00062524
H         0.97873008    -0.11723335    -0.53721685     0.00041844    -0.00060188    -0.00066392
H         0.86079854    -0.25023881     1.86615937     0.00067502    -0.00083824     0.00049608
H        -0.97851764    -0.17103302     1.91180921    -0.00000297    -0.00061334     0.00018946
H        -1.03942290    -0.05885865    -0.59172961    -0.00012075    -0.00061826    -0.00025250
     6
  Step:    32            Position(A)                                  Velocity(au)
C        -0.03855054     0.04553263    -0.13046212    -0.00000473     0.00013534    -0.00067617
N        -0.04179808    -0.04318456     1.42476431    -0.00007131     0.00007401     0.00059994
H         0.98090034    -0.12058841    -0.54091836     0.00035512    -0.00059714    -0.00065668
H         0.86453724    -0.25491802     1.86896722     0.00065172    -0.00083045     0.00050267
H        -0.97818279    -0.17445285     1.91269126     0.00011731    -0.00060984     0.00012806
H        -1.03997247    -0.06228173    -0.59314491    -0.00007675    -0.00060375    -0.00025384
     6
  Step:    33            Position(A)                                  Velocity(au)
C        -0.03857501     0.04627892    -0.13415450    -0.00000396     0.00013137    -0.00064368
N        -0.04221127    -0.04276694     1.42805325    -0.00007520     0.00007514     0.00057573
H         0.98270639    -0.12391955    -0.54456980     0.00028939    -0.00059451    -0.00064674
H         0.86809591    -0.25953741     1.87178786     0.00061195    -0.00081704     0.00050164
H        -0.97720410    -0.17786139     1.91324313     0.00022618    -0.00061053     0.00007182
H        -1.04028232    -0.06561893    -0.59457192    -0.00003520    -0.00058759    -0.00025718
     6
  Step:    34            Position(A)                                  Velocity(au)
C        -0.03859491     0.04700297    -0.13766631    -0.00000329     0.00012753    -0.00061203
N        -0.04263976    -0.04234355     1.43120799    -0.00007676     0.00007616     0.00055234
H         0.98413917    -0.12724228    -0.54815681     0.00022308    -0.00059607    -0.00063444
H         0.87138623    -0.26406249     1.87458164     0.00055725    -0.00079637     0.00049445
H        -0.97565134    -0.18128594     1.91349511     0.00032178    -0.00061743     0.00002090
H        -1.04036644    -0.06885809    -0.59602332     0.00000389    -0.00056819    -0.00026347
     6
  Step:    35            Position(A)                                  Velocity(au)
C        -0.03861183     0.04770553    -0.14100099    -0.00000336     0.00012386    -0.00058005
N        -0.04307000    -0.04191494     1.43423202    -0.00007567     0.00007709     0.00052888
H         0.98520186    -0.13058752    -0.55166695     0.00015987    -0.00060679    -0.00062044
H         0.87432964    -0.26844598     1.87731903     0.00048950    -0.00076390     0.00048378
H        -0.97360445    -0.18476827     1.91347697     0.00040203    -0.00063482    -0.00002536
H        -1.04023884    -0.07197501    -0.59751927     0.00004021    -0.00054167    -0.00027565
     6
  Step:    36            Position(A)                                  Velocity(au)
C        -0.03863250     0.04838781    -0.14415146    -0.00000593     0.00012057    -0.00053957
N        -0.04348577    -0.04148169     1.43712108    -0.00007097     0.00007776     0.00049952
H         0.98592662    -0.13402644    -0.55509354     0.00011488    -0.00064092    -0.00061187
H         0.87685903    -0.27260323     1.87999052     0.00041176    -0.00070594     0.00047662
H        -0.97115648    -0.18838353     1.91321158     0.00046287    -0.00067138    -0.00006851
H        -1.03991693    -0.07491421    -0.59910525     0.00006749    -0.00049905    -0.00030822
     6
  Step:    37            Position(A)                                  Velocity(au)
C        -0.03867814     0.04905271    -0.14703001    -0.00001104     0.00012724    -0.00050886
N        -0.04386303    -0.04104604     1.43981352    -0.00006861     0.00008387     0.00048631
H         0.98648549    -0.13774902    -0.55850383     0.00012117    -0.00074682    -0.00068552
H         0.87893051    -0.27633395     1.88264462     0.00035650    -0.00067886     0.00051263
H        -0.96843243    -0.19227011     1.91271143     0.00054175    -0.00076313    -0.00010751
H        -1.03948475    -0.07755130    -0.60096328     0.00006563    -0.00049288    -0.00041393
     6
  Step:    38            Position(A)                                  Velocity(au)
C        -0.03871192     0.04975205    -0.14976784    -0.00000231     0.00012337    -0.00047779
N        -0.04424756    -0.04057684     1.44245226    -0.00006737     0.00008441     0.00046312
H         0.98695828    -0.14172754    -0.56236440     0.00004391    -0.00069006    -0.00068755
H         0.88067597    -0.28022531     1.88537171     0.00026400    -0.00070339     0.00046526
H        -0.96526625    -0.19636311     1.91211469     0.00058369    -0.00071980    -0.00010784
H        -1.03912297    -0.08044193    -0.60327792     0.00007209    -0.00052979    -0.00041232
     6
  Step:    39            Position(A)                                  Velocity(au)
C        -0.03870388     0.05042962    -0.15236264     0.00000466     0.00011961    -0.00045405
N        -0.04461495    -0.04010393     1.44498251    -0.00006319     0.00008521     0.00044501
H         0.98697552    -0.14545082    -0.56617761    -0.00003759    -0.00064964    -0.00067657
H         0.88187707    -0.28418459     1.88783741     0.00016389    -0.00071067     0.00041863
H        -0.96191775    -0.20030392     1.91150780     0.00060809    -0.00070011    -0.00010776
H        -1.03868014    -0.08346437    -0.60556518     0.00008819    -0.00054896    -0.00040789
     6
  Step:    40            Position(A)                                  Velocity(au)
C        -0.03865990     0.05108626    -0.15483265     0.00001083     0.00011600    -0.00043288
N        -0.04495245    -0.03962636     1.44741625    -0.00005702     0.00008618     0.00042852
H         0.98653899    -0.14897413    -0.56991130    -0.00011806    -0.00061675    -0.00066149
H         0.88250413    -0.28815265     1.89004142     0.00005965    -0.00070999     0.00037174
H        -0.95848322    -0.20417264     1.91091267     0.00061568    -0.00069193    -0.00010287
H        -1.03813918    -0.08656539    -0.60782786     0.00010603    -0.00056119    -0.00040407
     6
  Step:    41            Position(A)                                  Velocity(au)
C        -0.03858317     0.05172281    -0.15718848     0.00001650     0.00011253    -0.00041335
N        -0.04525058    -0.03914316     1.44975976    -0.00004931     0.00008734     0.00041295
H         0.98565938    -0.15232657    -0.57355214    -0.00019623    -0.00058812    -0.00064469
H         0.88254211    -0.29209977     1.89198172    -0.00004627    -0.00070521     0.00032465
H        -0.95505402    -0.20801772     1.91036100     0.00060735    -0.00069130    -0.00009212
H        -1.03749810    -0.08972064    -0.61006990     0.00012382    -0.00057006    -0.00040086
     6
  Step:    42            Position(A)                                  Velocity(au)
C        -0.03847605     0.05234009    -0.15943821     0.00002177     0.00010921    -0.00039514
N        -0.04550191    -0.03865319     1.45201734    -0.00004042     0.00008872     0.00039804
H         0.98435265    -0.15552693    -0.57709440    -0.00027120    -0.00056241    -0.00062723
H         0.88198864    -0.29601004     1.89365858    -0.00015167    -0.00069830     0.00027786
H        -0.95171612    -0.21187503     1.90988627     0.00058419    -0.00069651    -0.00007548
H        -1.03675955    -0.09291699    -0.61229418     0.00014099    -0.00057706    -0.00039807
     6
  Step:    43            Position(A)                                  Velocity(au)
C        -0.03834072     0.05293894    -0.16158859     0.00002666     0.00010604    -0.00037803
N        -0.04570071    -0.03815519     1.45419224    -0.00003064     0.00009034     0.00038364
H         0.98263938    -0.15858933    -0.58053670    -0.00034218    -0.00053899    -0.00060976
H         0.88085319    -0.29987578     1.89507588    -0.00025449    -0.00069052     0.00023208
H        -0.94854874    -0.21577385     1.90952050     0.00054751    -0.00070660    -0.00005336
H        -1.03592804    -0.09614655    -0.61450269     0.00015730    -0.00058289    -0.00039557
     6
  Step:    44            Position(A)                                  Velocity(au)
C        -0.03817939     0.05352021    -0.16364544     0.00003113     0.00010301    -0.00036187
N        -0.04584289    -0.03764771     1.45628703    -0.00002025     0.00009223     0.00036963
H         0.98054442    -0.16152561    -0.58388072    -0.00040839    -0.00051756    -0.00059278
H         0.87915634    -0.30369519     1.89624154    -0.00035277    -0.00068282     0.00018805
H        -0.94562262    -0.21973908     1.90929236     0.00049898    -0.00072083    -0.00002649
H        -1.03500889    -0.09940423    -0.61669663     0.00017264    -0.00058794    -0.00039321
     6