     6
  Step:     0            Position(A)                                  Velocity(au)
C        -0.03140423     0.02223030     0.04233478    -0.00002191    -0.00000904     0.00001206
N        -0.05425803    -0.05039320     1.27714036    -0.00016511     0.00006986     0.00006074
H         0.89629658    -0.02953514    -0.51164625     0.00062525     0.00008048    -0.00043612
H         0.87749880    -0.15106415     1.80753219     0.00150268    -0.00060382     0.00044546
H        -0.88941889    -0.07175096     1.87774930     0.00066974    -0.00012941    -0.00093396
H        -0.96911058     0.01795602    -0.53364905    -0.00024208    -0.00021030    -0.00006315
     6
  Step:     1            Position(A)                                  Velocity(au)
C        -0.03154834     0.02223917     0.04194314    -0.00003035     0.00001216    -0.00015497
N        -0.05511549    -0.05002204     1.27789113    -0.00014652     0.00006586     0.00021277
H         0.90016525    -0.02928168    -0.51413179     0.00078141     0.00001297    -0.00046753
H         0.88537812    -0.15444363     1.80977157     0.00136508    -0.00063046     0.00036730
H        -0.88598115    -0.07259074     1.87258028     0.00057449    -0.00017823    -0.00094617
H        -0.97066305     0.01665846    -0.53400005    -0.00032309    -0.00026434    -0.00006374
     6
  Step:     2            Position(A)                                  Velocity(au)
C        -0.03173622     0.02236327     0.04063973    -0.00003783     0.00003308    -0.00032048
N        -0.05586075    -0.04967279     1.27946768    -0.00012422     0.00006195     0.00036177
H         0.90484385    -0.02939326    -0.51676018     0.00091953    -0.00005321    -0.00048796
H         0.89243044    -0.15796030     1.81154983     0.00120229    -0.00065437     0.00027850
H        -0.88313496    -0.07370044     1.86739988     0.00045335    -0.00022855    -0.00093750
H        -0.97264457     0.01506455    -0.53434627    -0.00039808    -0.00031887    -0.00006147
     6
  Step:     3            Position(A)                                  Velocity(au)
C        -0.03196220     0.02260099     0.03843727    -0.00004419     0.00005364    -0.00048252
N        -0.05647436    -0.04934433     1.28184868    -0.00009849     0.00005831     0.00050571
H         0.91022426    -0.02986377    -0.51946973     0.00103578    -0.00011831    -0.00049680
H         0.89853024    -0.16160201     1.81281810     0.00101805    -0.00067603     0.00018228
H        -0.88102181    -0.07509092     1.86232473     0.00030664    -0.00028104    -0.00090680
H        -0.97501778     0.01317025    -0.53467249    -0.00046520    -0.00037402    -0.00005655
     6
  Step:     4            Position(A)                                  Velocity(au)
C        -0.03221981     0.02295025     0.03535905    -0.00004926     0.00007367    -0.00063869
N        -0.05693862    -0.04903463     1.28500221    -0.00006973     0.00005506     0.00064230
H         0.91617947    -0.03068805    -0.52219714     0.00112657    -0.00018219    -0.00049392
H         0.90357201    -0.16535875     1.81354475     0.00081610    -0.00069544     0.00008191
H        -0.87977914    -0.07677617     1.85747584     0.00013594    -0.00033591    -0.00085354
H        -0.97773576     0.01097122    -0.53496519    -0.00052256    -0.00042948    -0.00004943
     6
  Step:     5            Position(A)                                  Velocity(au)
C        -0.03250177     0.02340797     0.03144093    -0.00005289     0.00009289    -0.00078615
N        -0.05723822    -0.04874114     1.28888458    -0.00003851     0.00005227     0.00076896
H         0.92256495    -0.03185947    -0.52488027     0.00118863    -0.00024415    -0.00047975
H         0.90746999    -0.16921997     1.81371535     0.00060048    -0.00071209    -0.00001926
H        -0.87953273    -0.07877058     1.85297492    -0.00005535    -0.00039272    -0.00077811
H        -0.98074200     0.00846568    -0.53521399    -0.00056830    -0.00048426    -0.00004082
     6
  Step:     6            Position(A)                                  Velocity(au)
C        -0.03280009     0.02396936     0.02673384    -0.00005496     0.00011087    -0.00092156
N        -0.05736113    -0.04846111     1.29343882    -0.00000560     0.00004992     0.00088282
H         0.92922045    -0.03336679    -0.52746073     0.00121932    -0.00030294    -0.00045520
H         0.91016015    -0.17317146     1.81333348     0.00037597    -0.00072496    -0.00011762
H        -0.88038638    -0.08108493     1.84893880    -0.00026165    -0.00045024    -0.00068223
H        -0.98397082     0.00565817    -0.53541305    -0.00060081    -0.00053671    -0.00003166
     6
  Step:     7            Position(A)                                  Velocity(au)
C        -0.03310617     0.02462720     0.02130652    -0.00005539     0.00012708    -0.00104117
N        -0.05729982    -0.04819212     1.29859304     0.00002797     0.00004793     0.00098082
H         0.93597394    -0.03519087    -0.52988609     0.00121723    -0.00035675    -0.00042155
H         0.91160453    -0.17719241     1.81242185     0.00014843    -0.00073261    -0.00020942
H        -0.88241015    -0.08372190     1.84547238    -0.00047518    -0.00050645    -0.00056915
H        -0.98734920     0.00256340    -0.53556220    -0.00061911    -0.00058458    -0.00002307
     6
  Step:     8            Position(A)                                  Velocity(au)
C        -0.03341111     0.02537130     0.01524785    -0.00005417     0.00014096    -0.00114117
N        -0.05705256    -0.04793232     1.30425904     0.00006098     0.00004618     0.00105994
H         0.94264865    -0.03730241    -0.53211118     0.00118255    -0.00040366    -0.00038031
H         0.91179762    -0.18125344     1.81102325    -0.00007503    -0.00073357    -0.00029081
H        -0.88562846    -0.08667202     1.84266007    -0.00068623    -0.00055885    -0.00044377
H        -0.99080073    -0.00079075    -0.53566760    -0.00062308    -0.00062534    -0.00001618
     6
  Step:     9            Position(A)                                  Velocity(au)
C        -0.03370612     0.02618837     0.00866743    -0.00005140     0.00015200    -0.00121824
N        -0.05662449    -0.04768061     1.31033246     0.00009205     0.00004457     0.00111772
H         0.94907136    -0.03966159    -0.53409823     0.00111743    -0.00044197    -0.00033302
H         0.91077353    -0.18531707     1.80920092    -0.00028636    -0.00072684    -0.00035822
H        -0.89001055    -0.08991143     1.84055740    -0.00088409    -0.00060489    -0.00031238
H        -0.99425015    -0.00436261    -0.53574138    -0.00061362    -0.00065681    -0.00001196
     6
  Step:    10            Position(A)                                  Velocity(au)
C        -0.03398303     0.02706261     0.00169236    -0.00004728     0.00015993    -0.00127053
N        -0.05602829    -0.04743644     1.31669599     0.00011987     0.00004302     0.00115305
H         0.95508239    -0.04222024    -0.53581673     0.00102625    -0.00047075    -0.00028163
H         0.90861128    -0.18934103     1.80703730    -0.00047738    -0.00071242    -0.00040872
H        -0.89546587    -0.09340273     1.83918423    -0.00105849    -0.00064269    -0.00018202
H        -0.99762850    -0.00809913    -0.53580068    -0.00059265    -0.00067770    -0.00001113
     6
  Step:    11            Position(A)                                  Velocity(au)
C        -0.03423484     0.02797685    -0.00554086    -0.00004211     0.00016479    -0.00129850
N        -0.05528401    -0.04719949     1.32322697     0.00014334     0.00004157     0.00116690
H         0.96054783    -0.04492601    -0.53724763     0.00091547    -0.00049015    -0.00022860
H         0.90543503    -0.19328404     1.80463023    -0.00064113    -0.00069164    -0.00044058
H        -0.90184763    -0.09709861     1.83852190    -0.00120145    -0.00067149    -0.00005948
H        -1.00087775    -0.01194126    -0.53586582    -0.00056296    -0.00068810    -0.00001400
     6
  Step:    12            Position(A)                                  Velocity(au)
C        -0.03445622     0.02891439    -0.01289893    -0.00003625     0.00016701    -0.00130538
N        -0.05441756    -0.04696927     1.32980848     0.00016186     0.00004031     0.00116258
H         0.96536960    -0.04772811    -0.53838551     0.00079276    -0.00050150    -0.00017649
H         0.90140681    -0.19711303     1.80208648    -0.00077324    -0.00066712    -0.00045357
H        -0.90896663    -0.10094834     1.83851583    -0.00130893    -0.00069204     0.00004981
H        -1.00395457    -0.01583136    -0.53595795    -0.00052787    -0.00068965    -0.00002045
     6
  Step:    13            Position(A)                                  Velocity(au)
C        -0.03464382     0.02986096    -0.02026721    -0.00003008     0.00016732    -0.00129679
N        -0.05345798    -0.04674472     1.33634240     0.00017539     0.00003938     0.00114536
H         0.96949119    -0.05058353    -0.53923867     0.00066567    -0.00050709    -0.00012747
H         0.89671186    -0.20080996     1.79951334    -0.00087244    -0.00064233    -0.00044881
H        -0.91661406    -0.10490570     1.83908385    -0.00138140    -0.00070641     0.00014264
H        -1.00683279    -0.01972138    -0.53609657    -0.00049074    -0.00068519    -0.00003009
     6
  Step:    14            Position(A)                                  Velocity(au)
C        -0.03479629     0.03080639    -0.02756250    -0.00002388     0.00016656    -0.00127913
N        -0.05243428    -0.04652398     1.34275975     0.00018432     0.00003893     0.00112099
H         0.97289665    -0.05346209    -0.53982692     0.00054022    -0.00050960    -0.00008301
H         0.89154162    -0.20437621     1.79701150    -0.00093991    -0.00062080    -0.00042805
H        -0.92458684    -0.10893616     1.84012872    -0.00142252    -0.00071734     0.00021807
H        -1.00950367    -0.02357913    -0.53629816    -0.00045450    -0.00067792    -0.00004254
     6
  Step:    15            Position(A)                                  Velocity(au)
C        -0.03491396     0.03174510    -0.03473679    -0.00001787     0.00016543    -0.00125764
N        -0.05137300    -0.04630437     1.34902312     0.00018914     0.00003907     0.00109407
H         0.97560223    -0.05634816    -0.54017773     0.00042020    -0.00051129    -0.00004384
H         0.88607957    -0.20783246     1.79467122    -0.00097771    -0.00060523    -0.00039286
H        -0.93270563    -0.11302032     1.84155072    -0.00143676    -0.00072721     0.00027683
H        -1.01197407    -0.02739003    -0.53657781    -0.00042107    -0.00067045    -0.00005766
     6
  Step:    16            Position(A)                                  Velocity(au)
C        -0.03499820     0.03267533    -0.04177097    -0.00001846     0.00024952    -0.00187572
N        -0.05029745    -0.04608256     1.35512028     0.00028885     0.00006054     0.00162037
H         0.97764401    -0.05923849    -0.54032219     0.00046666    -0.00077978    -0.00001542
H         0.88049568    -0.21121395     1.79257311    -0.00149924    -0.00090667    -0.00052258
H        -0.94081895    -0.11715201     1.84325627    -0.00216734    -0.00111963     0.00048631
H        -1.01426085    -0.03115370    -0.53694964    -0.00059409    -0.00100851    -0.00011440
     6
  Step:    17            Position(A)                                  Velocity(au)
C        -0.03508314     0.03404577    -0.05191451    -0.00001187     0.00023401    -0.00170183
N        -0.04869370    -0.04574766     1.36390323     0.00027374     0.00005805     0.00147710
H         0.98017440    -0.06352275    -0.54064625     0.00042896    -0.00073255    -0.00009792
H         0.87219874    -0.21619279     1.78985372    -0.00140431    -0.00085534    -0.00042606
H        -0.95284608    -0.12328389     1.84613967    -0.00205505    -0.00104310     0.00051831
H        -1.01774095    -0.03674254    -0.53796960    -0.00063207    -0.00096419    -0.00024149
     6
  Step:    18            Position(A)                                  Velocity(au)
C        -0.03513292     0.03533079    -0.06108292    -0.00000610     0.00021946    -0.00153315
N        -0.04719111    -0.04542377     1.37188201     0.00025356     0.00005661     0.00133780
H         0.98251174    -0.06755121    -0.54143341     0.00039783    -0.00068952    -0.00017819
H         0.86455991    -0.22092011     1.78773826    -0.00126966    -0.00081800    -0.00031137
H        -0.96413912    -0.12898879     1.84913790    -0.00191142    -0.00096906     0.00052870
H        -1.02143344    -0.04209503    -0.53969003    -0.00066761    -0.00092514    -0.00036064
     6
  Step:    19            Position(A)                                  Velocity(au)
C        -0.03515233     0.03653589    -0.06931035    -0.00000118     0.00020643    -0.00137473
N        -0.04581669    -0.04510539     1.37908259     0.00022963     0.00005621     0.00120674
H         0.98468843    -0.07134634    -0.54266812     0.00037259    -0.00065195    -0.00025603
H         0.85779260    -0.22547426     1.78632071    -0.00110333    -0.00079619    -0.00018249
H        -0.97453405    -0.13427931     1.85213853    -0.00174629    -0.00089949     0.00052248
H        -1.02531595    -0.04723965    -0.54206165    -0.00069986    -0.00089325    -0.00047186
     6
  Step:    20            Position(A)                                  Velocity(au)
C        -0.03514633     0.03766944    -0.07665764     0.00000288     0.00019488    -0.00122723
N        -0.04458957    -0.04478696     1.38555349     0.00020274     0.00005675     0.00108442
H         0.98673295    -0.07493732    -0.54433400     0.00035167    -0.00061944    -0.00033126
H         0.85205997    -0.22994040     1.78567082    -0.00091137    -0.00078912    -0.00004263
H        -0.98392330    -0.13917933     1.85505727    -0.00156476    -0.00083412     0.00050327
H        -1.02936237    -0.05221488    -0.54503589    -0.00072710    -0.00086821    -0.00057503
     6
  Step:    21            Position(A)                                  Velocity(au)
C        -0.03511978     0.03873965    -0.08318819     0.00000611     0.00018462    -0.00108979
N        -0.04352410    -0.04446359     1.39134541     0.00017354     0.00005808     0.00097010
H         0.98866524    -0.07835106    -0.54641409     0.00033332    -0.00059103    -0.00040361
H         0.84748662    -0.23439785     1.78583863    -0.00070000    -0.00079494     0.00010478
H        -0.99222871    -0.14371174     1.85782963    -0.00137026    -0.00077206     0.00047384
H        -1.03353811    -0.05705755    -0.54856425    -0.00074737    -0.00084898    -0.00066979
     6
  Step:    22            Position(A)                                  Velocity(au)
C        -0.03507732     0.03975355    -0.08895989     0.00000857     0.00017542    -0.00096138
N        -0.04263059    -0.04413135     1.39650452     0.00014275     0.00006000     0.00086295
H         0.99049568    -0.08160918    -0.54889014     0.00031590    -0.00056576    -0.00047272
H         0.84415798    -0.23891417     1.78685365    -0.00047653    -0.00081134     0.00025590
H        -0.99939168    -0.14789476     1.86040626    -0.00116604    -0.00071248     0.00043661
H        -1.03779916    -0.06179866    -0.55259683    -0.00075905    -0.00083448    -0.00075570
     6
  Step:    23            Position(A)                                  Velocity(au)
C        -0.03502321     0.04071690    -0.09402445     0.00001030     0.00016710    -0.00084119
N        -0.04191511    -0.04378732     1.40107212     0.00011118     0.00006234     0.00076236
H         0.99222588    -0.08472805    -0.55174232     0.00029799    -0.00054286    -0.00053830
H         0.84211543    -0.24354291     1.78872298    -0.00024922    -0.00083586     0.00040659
H        -1.00537181    -0.15174245     1.86275093    -0.00095550    -0.00065487     0.00039381
H        -1.04209375    -0.06646336    -0.55708210    -0.00076099    -0.00082384    -0.00083248
     6
  Step:    24            Position(A)                                  Velocity(au)
C        -0.03496132     0.04163446    -0.09842861     0.00001140     0.00015951    -0.00072856
N        -0.04137914    -0.04342963     1.40508592     0.00007966     0.00006493     0.00066791
H         0.99385002    -0.08771979    -0.55494945     0.00027843    -0.00052169    -0.00060015
H         0.84135270    -0.24832290     1.79143043    -0.00002666    -0.00086594     0.00055275
H        -1.01014716    -0.15526622     1.86483913    -0.00074201    -0.00059894     0.00034742
H        -1.04636519    -0.07107210    -0.56196752    -0.00075257    -0.00081641    -0.00090002
     6
  Step:    25            Position(A)                                  Velocity(au)
C        -0.03489500     0.04251020    -0.10221522     0.00001196     0.00015255    -0.00062294
N        -0.04101957    -0.04305738     1.40858108     0.00004899     0.00006759     0.00057928
H         0.99535608    -0.09059315    -0.55848949     0.00025621    -0.00050177    -0.00065815
H         0.84181573    -0.25327825     1.79493721     0.00018284    -0.00089907     0.00069046
H        -1.01371378    -0.15847606     1.86665674    -0.00052874    -0.00054457     0.00029919
H        -1.05055449    -0.07564177    -0.56720059    -0.00073357    -0.00081166    -0.00095840
     6
  Step:    26            Position(A)                                  Velocity(au)
C        -0.03482703     0.04334749    -0.10542375     0.00001206     0.00014612    -0.00052380
N        -0.04082901    -0.04267062     1.41159077     0.00001991     0.00007018     0.00049615
H         0.99672708    -0.09335431    -0.56233994     0.00023056    -0.00048269    -0.00071220
H         0.84340591    -0.25841881     1.79918384     0.00037181    -0.00093278     0.00081627
H        -1.01608457    -0.16138136     1.86819884    -0.00031862    -0.00049171     0.00025067
H        -1.05460260    -0.08018643    -0.57272965    -0.00070407    -0.00080915    -0.00100778
     6
  Step:    27            Position(A)                                  Velocity(au)
C        -0.03475968     0.04414916    -0.10809056     0.00001181     0.00014013    -0.00043065
N        -0.04079630    -0.04227023     1.41414626    -0.00000697     0.00007254     0.00041823
H         0.99794216    -0.09600739    -0.56647802     0.00020085    -0.00046414    -0.00076225
H         0.84598620    -0.26374095     1.80409310     0.00053398    -0.00096477     0.00092725
H        -1.01728766    -0.16399144     1.86946840    -0.00011430    -0.00044039     0.00020317
H        -1.05845189    -0.08471777    -0.57850452    -0.00066442    -0.00080847    -0.00104840
     6
  Step:    28            Position(A)                                  Velocity(au)
C        -0.03469466     0.04491758    -0.11024904     0.00001129     0.00013450    -0.00034298
N        -0.04090711    -0.04185784     1.41627691    -0.00003112     0.00007456     0.00034518
H         0.99897760    -0.09855493    -0.57088074     0.00016668    -0.00044587    -0.00080822
H         0.84938904    -0.26922887     1.80957347     0.00066458    -0.00099300     0.00102110
H        -1.01736530    -0.16631588     1.87047533     0.00008173    -0.00039071     0.00015788
H        -1.06204725    -0.08924518    -0.58447674    -0.00061509    -0.00080922    -0.00108056
     6
  Step:    29            Position(A)                                  Velocity(au)
C        -0.03463325     0.04565472    -0.11192972     0.00001058     0.00012917    -0.00026033
N        -0.04114464    -0.04143566     1.41801007    -0.00005215     0.00007614     0.00027667
H         0.99980788    -0.10099831    -0.57552491     0.00012778    -0.00042771    -0.00085003
H         0.85342523    -0.27485628     1.81552293     0.00076043    -0.00101574     0.00109621
H        -1.01637282    -0.16836488     1.87123562     0.00026713    -0.00034280     0.00011583
H        -1.06533698    -0.09377591    -0.59059987    -0.00055673    -0.00081101    -0.00110457
     6
  Step:    30            Position(A)                                  Velocity(au)
C        -0.03457631     0.04636217    -0.11316043     0.00000974     0.00012408    -0.00018228
N        -0.04149032    -0.04100636     1.41937100    -0.00006978     0.00007721     0.00021234
H         1.00040666    -0.10333816    -0.58038702     0.00008410    -0.00040955    -0.00088761
H         0.85789321    -0.28058835     1.82183289     0.00081999    -0.00103163     0.00115167
H        -1.01437787    -0.17014952     1.87177071     0.00043968    -0.00029686     0.00007797
H        -1.06827338    -0.09831503    -0.59682961    -0.00049005    -0.00081344    -0.00112079
     6
  Step:    31            Position(A)                                  Velocity(au)
C        -0.03452442     0.04704119    -0.11396656     0.00000881     0.00011917    -0.00010844
N        -0.04192442    -0.04057288     1.42038285    -0.00008386     0.00007774     0.00015186
H         1.00074764    -0.10557467    -0.58544324     0.00003571    -0.00039134    -0.00092087
H         0.86258789    -0.28638394     1.82839194     0.00084321    -0.00103972     0.00118722
H        -1.01145976    -0.17168202     1.87210693     0.00059727    -0.00025312     0.00004516
H        -1.07081285    -0.10286549    -0.60312376    -0.00041580    -0.00081616    -0.00112957
     6
  Step:    32            Position(A)                                  Velocity(au)
C        -0.03447795     0.04769278    -0.11437130     0.00000782     0.00011440    -0.00003848
N        -0.04242666    -0.04013828     1.42106664    -0.00009430     0.00007772     0.00009486
H         1.00080536    -0.10770790    -0.59066939    -0.00001718    -0.00037310    -0.00094973
H         0.86730842    -0.29219777     1.83508932     0.00083131    -0.00103941     0.00120315
H        -1.00770883    -0.17297587     1.87227502     0.00073789    -0.00021185     0.00001819
H        -1.07291619    -0.10742825    -0.60944232    -0.00033481    -0.00081882    -0.00113131
     6
  Step:    33            Position(A)                                  Velocity(au)
C        -0.03443710     0.04831770    -0.11439591     0.00000681     0.00010973     0.00002792
N        -0.04297668    -0.03970561     1.42144134    -0.00010112     0.00007716     0.00004101
H         1.00055598    -0.10973797    -0.59604103    -0.00007420    -0.00035484    -0.00097416
H         0.87186421    -0.29798242     1.84181758     0.00078654    -0.00103050     0.00120026
H        -1.00322583    -0.17404596     1.87230985     0.00085970    -0.00017330    -0.00000224
H        -1.07454894    -0.11200249    -0.61574769    -0.00024797    -0.00082113    -0.00112643
     6
  Step:    34            Position(A)                                  Velocity(au)
C        -0.03440199     0.04891654    -0.11405991     0.00000578     0.00010515     0.00009101
N        -0.04355440    -0.03927778     1.42152397    -0.00010440     0.00007609    -0.00001002
H         0.99997783    -0.11166523    -0.60153356    -0.00013493    -0.00033663    -0.00099412
H         0.87608027    -0.30369024     1.84847512     0.00071196    -0.00101306     0.00117972
H        -0.99812110    -0.17490857     1.87225000     0.00096104    -0.00013773    -0.00001549
H        -1.07568161    -0.11658585    -0.62200472    -0.00015616    -0.00082285    -0.00111539
     6
  Step:    35            Position(A)                                  Velocity(au)
C        -0.03437266     0.04948977    -0.11338141     0.00000475     0.00010063     0.00015102
N        -0.04414041    -0.03885748     1.42132966    -0.00010427     0.00007455    -0.00005852
H         0.99905193    -0.11349032    -0.60712237    -0.00019884    -0.00031851    -0.00100963
H         0.87980034    -0.30927491     1.85496779     0.00061111    -0.00098746     0.00114296
H        -0.99251318    -0.17558124     1.87213723     0.00104055    -0.00010536    -0.00002102
H        -1.07628969    -0.12117469    -0.62818082    -0.00006032    -0.00082377    -0.00109864
     6
  Step:    36            Position(A)                                  Velocity(au)
C        -0.03434912     0.05003774    -0.11237723     0.00000370     0.00009615     0.00020813
N        -0.04471622    -0.03844708     1.42087192    -0.00010093     0.00007262    -0.00010477
H         0.99776236    -0.11521417    -0.61278297    -0.00026534    -0.00030056    -0.00102070
H         0.88288933    -0.31469268     1.86121019     0.00048793    -0.00095425     0.00109164
H        -0.98652711    -0.17608251     1.87201581     0.00109722    -0.00007634    -0.00001847
H        -1.07635373    -0.12576441    -0.63424599     0.00003865    -0.00082374    -0.00107665
     6
  Step:    37            Position(A)                                  Velocity(au)
C        -0.03433139     0.05056075    -0.11106319     0.00000266     0.00009172     0.00026250
N        -0.04526459    -0.03804865     1.42016271    -0.00009461     0.00007034    -0.00014901
H         0.99609649    -0.11683804    -0.61849112    -0.00033383    -0.00028283    -0.00102740
H         0.88523493    -0.31990354     1.86712661     0.00034658    -0.00091419     0.00102754
H        -0.98029211    -0.17643155     1.87193154     0.00113054    -0.00005076    -0.00000765
H        -1.07585922    -0.13034966    -0.64017272     0.00013984    -0.00082266    -0.00104986
     6
  Step:    38            Position(A)                                  Velocity(au)
C        -0.03431950     0.05105907    -0.10945428     0.00000161     0.00008733     0.00031425
N        -0.04576974    -0.03766387     1.41921275    -0.00008561     0.00006778    -0.00019142
H         0.99404521    -0.11836346    -0.62422292    -0.00040364    -0.00026537    -0.00102978
H         0.88674843    -0.32487206     1.87265174     0.00019130    -0.00086814     0.00095256
H        -0.97393876    -0.17664772     1.87193058     0.00114047    -0.00002861     0.00001138
H        -1.07479661    -0.13492456    -0.64593600     0.00024237    -0.00082043    -0.00101870
     6
  Step:    39            Position(A)                                  Velocity(au)
C        -0.03431351     0.05153294    -0.10756486     0.00000054     0.00008297     0.00036345
N        -0.04621758    -0.03729409     1.41803172    -0.00007423     0.00006500    -0.00023217
H         0.99160307    -0.11979216    -0.62995487    -0.00047409    -0.00024820    -0.00102790
H         0.88736449    -0.32956786     1.87773076     0.00002622    -0.00081702     0.00086856
H        -0.96759605    -0.17675005     1.87205819     0.00112759    -0.00000979     0.00003832
H        -1.07316111    -0.13948290    -0.65151314     0.00034536    -0.00081701    -0.00098358
     6
  Step:    40            Position(A)                                  Velocity(au)
C        -0.03431350     0.05198260    -0.10540889    -0.00000055     0.00007865     0.00041015
N        -0.04659591    -0.03694036     1.41662859    -0.00006083     0.00006206    -0.00027134
H         0.98876833    -0.12112607    -0.63566389    -0.00054450    -0.00023138    -0.00102184
H         0.88704028    -0.33396586     1.88231915    -0.00014469    -0.00076180     0.00077735
H        -0.96138817    -0.17675665     1.87235714     0.00109302     0.00000592     0.00007261
H        -1.07095264    -0.14401822    -0.65688365     0.00044795    -0.00081235    -0.00094488
     6
  Step:    41            Position(A)                                  Velocity(au)
C        -0.03431959     0.05240831    -0.10300013    -0.00000166     0.00007438     0.00045434
N        -0.04689453    -0.03660344     1.41501189    -0.00004578     0.00005899    -0.00030896
H         0.98554314    -0.12236724    -0.64132735    -0.00061412    -0.00021490    -0.00101167
H         0.88575413    -0.33804625     1.88638226    -0.00031768    -0.00070344     0.00068072
H        -0.95543135    -0.17668416     1.87286628     0.00103848     0.00001882     0.00011336
H        -1.06817567    -0.14852392    -0.66202908     0.00054931    -0.00080643    -0.00090295
     6
  Step:    42            Position(A)                                  Velocity(au)
C        -0.03433196     0.05281035    -0.10035239    -0.00000280     0.00007014     0.00049598
N        -0.04710543    -0.03628388     1.41319007    -0.00002951     0.00005583    -0.00034501
H         0.98193354    -0.12351780    -0.64692305    -0.00068224    -0.00019880    -0.00099745
H         0.88350468    -0.34179465     1.88989514    -0.00048912    -0.00064292     0.00058041
H        -0.94983060    -0.17654722     1.87361879     0.00096627     0.00002931     0.00015940
H        -1.06483924    -0.15299328    -0.66693287     0.00064856    -0.00079923    -0.00085813
     6
  Step:    43            Position(A)                                  Velocity(au)
C        -0.03435077     0.05318904    -0.09747972    -0.00000398     0.00006597     0.00053499
N        -0.04722297    -0.03598206     1.41117183    -0.00001246     0.00005261    -0.00037940
H         0.97794960    -0.12457997    -0.65242923    -0.00074810    -0.00018309    -0.00097926
H         0.88031008    -0.34520214     1.89284240    -0.00065551    -0.00058126     0.00047815
H        -0.94467649    -0.17635791     1.87464047     0.00087927     0.00003791     0.00020924
H        -1.06095701    -0.15741955    -0.67158026     0.00074485    -0.00079073    -0.00081073
     6
  Step:    44            Position(A)                                  Velocity(au)
C        -0.03437625     0.05354473    -0.09439671    -0.00000519     0.00006186     0.00057124
N        -0.04724409    -0.03569820     1.40896640     0.00000491     0.00004936    -0.00041201
H         0.97360544    -0.12555603    -0.65782457    -0.00081093    -0.00016778    -0.00095720
H         0.87620730    -0.34826540     1.89521813    -0.00081349    -0.00051947     0.00037568
H        -0.94004224    -0.17612524     1.87594814     0.00078082     0.00004517     0.00026113
H        -1.05654726    -0.16179594    -0.67595824     0.00083731    -0.00078093    -0.00076109
     6