|===============================================================================
|
|  DFTB+ release 20.1
|
|  Copyright (C) 2006 - 2020  DFTB+ developers group
|
|===============================================================================
|
|  When publishing results obtained with DFTB+, please cite the following
|  reference:
|
|  * DFTB+, a software package for efficient approximate density functional
|    theory based atomistic simulations, J. Chem. Phys. 152, 124101 (2020).
|    [doi: 10.1063/1.5143190]
|
|  You should also cite additional publications crediting the parametrization
|  data you use. Please consult the documentation of the SK-files for the
|  references.
|
|===============================================================================

Reading input file 'dftb_in.hsd'
Parser version: 8

--------------------------------------------------------------------------------
Reading SK-files:
Done.


Processed input in HSD format written to 'dftb_pin.hsd'

Starting initialization...
--------------------------------------------------------------------------------
OpenMP threads:              1
Chosen random seed:          509978538
Mode:                        Static calculation
Self consistent charges:     Yes
SCC-tolerance:                 0.100000E-05
Max. scc iterations:                   1000
Shell resolved Hubbard:      No
Spin polarisation:           No
Nr. of up electrons:             6.000000
Nr. of down electrons:           6.000000
Periodic boundaries:         No
Electronic solver:           Relatively robust
Maximal SCC-cycles:                    1000
Initial charges:             Set automatically (system chrg:   0.100E+01)
Included shells:             C:  s, p
                             N:  s, p
                             H:  s
Spin coupling constants:     C   1(s)-1(s):  -0.455900E-01
                             C   1(s)-2(p):  -0.293000E-01
                             C   2(p)-1(s):  -0.293000E-01
                             C   2(p)-2(p):  -0.275500E-01
                             N   1(s)-1(s):  -0.468700E-01
                             N   1(s)-2(p):  -0.317000E-01
                             N   2(p)-1(s):  -0.317000E-01
                             N   2(p)-2(p):  -0.307200E-01
                             H   1(s)-1(s):  -0.792500E-01
Range separated hybrid:      Yes
  Screening parameter omega:   0.300000E+00
  Range separated algorithm:   MatrixBased
Extra options:
                             Mulliken analysis
                             Force calculation
Force type                   original
                             Eigenvector printing


REKS Calcuation:             Yes
SSR(2,2) Calcuation:         Yes
Energy Functional:           (PPS+OSS)/2
Number of Core Orbitals:                  5
Number of Active Orbitals:                2
Number of Basis:                         12
Number of States:                         2
State-Averaging Weight:          0.500000
                                 0.500000
State of Interest:                        1
Initial Guess:               Diagonalize H0 matrix
Newton-Raphson for FON opt:  Yes
NR max. Iterations:                      50
Level Shifting:              Yes
Shift Value:                     0.300000
W Scale Factor:              C  =    3.000000
                             N  =    3.000000
                             H  =    3.000000
Transition Dipole:           No
Gradient of Microstate:      No
CP-REKS Solver:              Preconditioned Conjugate-Gradient
CG max. Iterations:                     100
CG Tolerance:                  0.100000E-07
Memory for A and Hxc:        Direct Updating Without Saving
Non-Adiabatic Coupling:      Yes

--------------------------------------------------------------------------------

***  Geometry step: 0

  iSCC       reks energy        Diff energy         x_a       SCC error   
    1       -6.2641965575       0.0000000000     0.998386    1.17468428
    2       -6.2778489496      -0.0136523921     0.999426    0.11172031
    3       -6.2815963304      -0.0037473807     0.999705    0.05271824
    4       -6.2831212035      -0.0015248731     0.999811    0.02699102
    5       -6.2838654727      -0.0007442693     0.999858    0.01484051
    6       -6.2843022855      -0.0004368128     0.999882    0.00847988
    7       -6.2846009100      -0.0002986245     0.999895    0.00520628
    8       -6.2848255098      -0.0002245997     0.999902    0.00503917
    9       -6.2850031390      -0.0001776292     0.999907    0.00473856
   10       -6.2851469464      -0.0001438074     0.999909    0.00438037
   11       -6.2852644088      -0.0001174625     0.999911    0.00400340
   12       -6.2853604635      -0.0000960546     0.999913    0.00362845
   13       -6.2854387852      -0.0000783218     0.999914    0.00326720
   14       -6.2855023346      -0.0000635494     0.999914    0.00292636
   15       -6.2855535991      -0.0000512645     0.999915    0.00260961
   16       -6.2855947038      -0.0000411048     0.999915    0.00231863
   17       -6.2856274674      -0.0000327636     0.999915    0.00205378
   18       -6.2856534365      -0.0000259690     0.999915    0.00181448
   19       -6.2856739135      -0.0000204771     0.999916    0.00160177
   20       -6.2856899841      -0.0000160705     0.999916    0.00143936
   21       -6.2857025429      -0.0000125588     0.999916    0.00128847
   22       -6.2857123200      -0.0000097772     0.999916    0.00114955
   23       -6.2857199061      -0.0000075860     0.999916    0.00102260
   24       -6.2857257744      -0.0000058684     0.999916    0.00090734
   25       -6.2857303021      -0.0000045277     0.999916    0.00080326
   26       -6.2857337873      -0.0000034852     0.999916    0.00070970
   27       -6.2857364645      -0.0000026772     0.999916    0.00062593
   28       -6.2857385174      -0.0000020529     0.999916    0.00055120
   29       -6.2857400892      -0.0000015718     0.999916    0.00048472
   30       -6.2857412909      -0.0000012017     0.999916    0.00042574
   31       -6.2857422086      -0.0000009177     0.999916    0.00037354
   32       -6.2857429086      -0.0000007000     0.999916    0.00032742
   33       -6.2857434421      -0.0000005335     0.999915    0.00028676
   34       -6.2857438484      -0.0000004063     0.999915    0.00025096
   35       -6.2857441576      -0.0000003092     0.999915    0.00021948
   36       -6.2857443927      -0.0000002351     0.999915    0.00019184
   37       -6.2857445715      -0.0000001787     0.999915    0.00016760
   38       -6.2857447073      -0.0000001358     0.999915    0.00014635
   39       -6.2857448104      -0.0000001031     0.999915    0.00012774
   40       -6.2857448887      -0.0000000783     0.999915    0.00011146
   41       -6.2857449481      -0.0000000594     0.999915    0.00009723
   42       -6.2857449932      -0.0000000451     0.999915    0.00008479
   43       -6.2857450274      -0.0000000342     0.999915    0.00007392
   44       -6.2857450534      -0.0000000259     0.999915    0.00006443
   45       -6.2857450730      -0.0000000197     0.999915    0.00005615
   46       -6.2857450879      -0.0000000149     0.999915    0.00004892
   47       -6.2857450993      -0.0000000113     0.999915    0.00004262
   48       -6.2857451078      -0.0000000086     0.999915    0.00003713
   49       -6.2857451143      -0.0000000065     0.999915    0.00003234
   50       -6.2857451192      -0.0000000049     0.999915    0.00002816
   51       -6.2857451230      -0.0000000037     0.999915    0.00002452
   52       -6.2857451258      -0.0000000028     0.999915    0.00002135
   53       -6.2857451279      -0.0000000021     0.999915    0.00001859
   54       -6.2857451295      -0.0000000016     0.999915    0.00001619
   55       -6.2857451308      -0.0000000012     0.999915    0.00001409
   56       -6.2857451317      -0.0000000009     0.999915    0.00001227
   57       -6.2857451324      -0.0000000007     0.999915    0.00001068
   58       -6.2857451329      -0.0000000005     0.999915    0.00000930
   59       -6.2857451334      -0.0000000004     0.999915    0.00000809
   60       -6.2857451337      -0.0000000003     0.999915    0.00000704
   61       -6.2857451339      -0.0000000002     0.999915    0.00000613
   62       -6.2857451341      -0.0000000002     0.999915    0.00000534
   63       -6.2857451342      -0.0000000001     0.999915    0.00000464
   64       -6.2857451343      -0.0000000001     0.999915    0.00000404
   65       -6.2857451344      -0.0000000001     0.999915    0.00000352
   66       -6.2857451344      -0.0000000001     0.999915    0.00000306
   67       -6.2857451345      -0.0000000000     0.999915    0.00000266
   68       -6.2857451345      -0.0000000000     0.999915    0.00000232
   69       -6.2857451345      -0.0000000000     0.999915    0.00000202
   70       -6.2857451346      -0.0000000000     0.999915    0.00000176
   71       -6.2857451346      -0.0000000000     0.999915    0.00000153
   72       -6.2857451346      -0.0000000000     0.999915    0.00000133
   73       -6.2857451346      -0.0000000000     0.999915    0.00000116
   74       -6.2857451346      -0.0000000000     0.999915    0.00000101
   75       -6.2857451346      -0.0000000000     0.999915    0.00000088
  
--------------------------------------------------
 Final SA-REKS(2,2) energy:      -6.28574513
  
 State     Energy      FON(1)    FON(2)   Spin
  PPS   -6.40598798   1.999831  0.000169  0.00
  OSS   -6.16550229   1.000000  1.000000  0.00
 Trip   -6.24800106   1.000000  1.000000  1.00
--------------------------------------------------

 Lagrangian Wab:   0.00961732  0.00961697

--------------------------------------------------
 SSR: 2SI-2SA-REKS(2,2) Hamiltonian matrix
               PPS           OSS
   PPS    -6.40598798    0.01347521
   OSS     0.01347521   -6.16550229
--------------------------------------------------

----------------------------------------------------------------
 SSR: 2SI-2SA-REKS(2,2) states
                    E_n       C_{PPS}    C_{OSS}
 SSR state  1   -6.40674069  -0.998444   0.055772
 SSR state  2   -6.16474958  -0.055772  -0.998444
----------------------------------------------------------------

 unrelaxed SSR FONs for S0:  1.996721  0.003279

Total Energy:                       -6.4067406883 H         -174.3363 eV
Extrapolated to 0:                  -6.4067406883 H         -174.3363 eV

----------------------------------------------------------------------------------
 Solving CP-REKS equation for  1 state vector...
----------------------------------------------------------------------------------
  CG solver: Constructing Y initial guess
  CG solver: Iteration    1    eps =    0.000343478847
  CG solver: Iteration    2    eps =    0.000053521363
  CG solver: Iteration    3    eps =    0.000020774918
  CG solver: Iteration    4    eps =    0.000003471461
  CG solver: Iteration    5    eps =    0.000000031686
  CG solver: Iteration    6    eps =    0.000000016156
  CG solver: Iteration    7    eps =    0.000000000244
  Convergence reached in CG solver after    7 iterations
  CG solver: Calculating converged R, Z, Q2 matrix
----------------------------------------------------------------------------------

----------------------------------------------------------------------------------
 Solving CP-REKS equation for SI between  1 and  2 state vectors...
----------------------------------------------------------------------------------
  CG solver: Constructing Y initial guess
  CG solver: Iteration    1    eps =    0.006265218330
  CG solver: Iteration    2    eps =    0.010549341214
  CG solver: Iteration    3    eps =    0.001002707220
  CG solver: Iteration    4    eps =    0.000014575895
  CG solver: Iteration    5    eps =    0.000002271379
  CG solver: Iteration    6    eps =    0.000000072477
  CG solver: Iteration    7    eps =    0.000000005530
  Convergence reached in CG solver after    7 iterations
  CG solver: Calculating converged R, Z, Q2 matrix
----------------------------------------------------------------------------------

--------------------------------------------------
 Gradient Information
--------------------------------------------------
           1 st state (SSR)
    -0.00576782     0.00147797    -0.02922873
     0.01628578    -0.00207498     0.03346522
     0.01464205    -0.00111524     0.00328159
     0.01026126    -0.00625698    -0.00554610
    -0.02110110     0.00436228    -0.00890490
    -0.01432016     0.00360696     0.00693293

           2 st state (SSR)
     0.00530857    -0.00770407     0.08099982
    -0.01711193     0.00161062    -0.09034744
    -0.01517303    -0.00521615     0.01770879
    -0.00861857     0.00426073    -0.01383113
     0.01883733     0.00009254    -0.01468775
     0.01675762     0.00695633     0.02015771
--------------------------------------------------
 Coupling Information
--------------------------------------------------
 between  1 and  2 states
--------------------------------------------------
 g vector - difference gradient
    -0.00574618     0.00514094    -0.06126875
     0.01790579    -0.00196930     0.06701095
     0.01707054     0.00104234    -0.00689883
     0.01167347    -0.00531669     0.00439538
    -0.02300217     0.00181275     0.00281202
    -0.01790146    -0.00071004    -0.00605078

 h vector - derivative coupling
    -0.00154655     0.00465071    -0.05183938
     0.00983707    -0.00102589     0.04209192
     0.01846832    -0.00911015     0.00321175
     0.01940334    -0.00022232     0.00202498
    -0.02594835    -0.00299367    -0.00087003
    -0.02021382     0.00870132     0.00538077

 G vector - GDV
    -0.00553820     0.00459102    -0.05511428
     0.01669885    -0.00184280     0.06190633
     0.01490754     0.00205045    -0.00721360
     0.00943991    -0.00525885     0.00414251
    -0.01996922     0.00213487     0.00289142
    -0.01553889    -0.00167469    -0.00661239

 H vector - DCV - non-adiabatic coupling
    -0.00899571     0.02146491    -0.24108471
     0.04863827    -0.00511930     0.20369771
     0.08369963    -0.03693272     0.01001461
     0.08505561    -0.00335983     0.01033879
    -0.11714756    -0.01145977    -0.00227877
    -0.09125023     0.03540671     0.01931238
--------------------------------------------------


--------------------------------------------------------------------------------
DFTB+ running times                          cpu [s]             wall clock [s]
--------------------------------------------------------------------------------
SCC                                    +     0.03  ( 73.8%)      0.04  ( 68.6%)
Post-SCC processing                    +     0.01  ( 23.3%)      0.01  ( 23.5%)
  Force calculation                          0.01  ( 22.8%)      0.01  ( 19.6%)
--------------------------------------------------------------------------------
Missing                                +     0.00  (  3.0%)      0.00  (  7.8%)
Total                                  =     0.04  (100.0%)      0.05  (100.0%)
--------------------------------------------------------------------------------
