 Fermi distribution function

Calculation with static geometry


********************************************************************************
 iSCC Total electronic   Diff electronic      SCC error    
   13   -0.52686621E+01   -0.45208282E-12    0.44329638E-07
********************************************************************************

 Total charge:     1.00000000

 Atomic gross charges (e)
 Atom           Charge
    1       0.29903936
    2      -0.19541069
    3       0.17983277
    4       0.25988244
    5       0.27080027
    6       0.18585585

Nr. of electrons (up):     12.00000000
Atom populations (up)
 Atom       Population
    1       3.70096064
    2       5.19541069
    3       0.82016723
    4       0.74011756
    5       0.72919973
    6       0.81414415

l-shell populations (up)
 Atom Sh.   l       Population
    1   1   0       1.41554590
    1   2   1       2.28541473
    2   1   0       1.52294012
    2   2   1       3.67247057
    3   1   0       0.82016723
    4   1   0       0.74011756
    5   1   0       0.72919973
    6   1   0       0.81414415

Orbital populations (up)
 Atom Sh.   l   m       Population  Label
    1   1   0   0       1.41554590  s
    1   2   1  -1       0.43658954  p_y
    1   2   1   0       0.85636509  p_z
    1   2   1   1       0.99246011  p_x
    2   1   0   0       1.52294012  s
    2   2   1  -1       1.41277737  p_y
    2   2   1   0       1.07386714  p_z
    2   2   1   1       1.18582606  p_x
    3   1   0   0       0.82016723  s
    4   1   0   0       0.74011756  s
    5   1   0   0       0.72919973  s
    6   1   0   0       0.81414415  s

Fermi level:                        -0.5096334159 H          -13.8678 eV
Band energy:                        -8.6158233952 H         -234.4485 eV
TS:                                  0.0000000000 H            0.0000 eV
Band free energy (E-TS):            -8.6158233952 H         -234.4485 eV
Extrapolated E(0K):                 -8.6158233952 H         -234.4485 eV
Input / Output electrons (q):     12.0000000000     12.0000000000

Energy H0:                          -5.4022459092 H         -147.0026 eV
Energy SCC:                          0.1335838537 H            3.6350 eV
Total Electronic energy:            -5.2686620554 H         -143.3676 eV
Repulsive energy:                    0.1314709081 H            3.5775 eV
Total energy:                       -5.1371911473 H         -139.7901 eV
Extrapolated to 0:                  -5.1371911473 H         -139.7901 eV
Total Mermin free energy:           -5.1371911473 H         -139.7901 eV
Force related energy:               -5.1371911473 H         -139.7901 eV

SCC converged

Excitation Energy:                   0.1082308460 H            2.9451 eV

Total Forces
    1     -0.009560862002      0.003367085301      0.025705498136
    2     -0.033365515245     -0.011146326912     -0.024936472685
    3     -0.000088152794     -0.011068002825      0.001285276609
    4      0.013308222635      0.004004506504      0.007565304256
    5      0.023275869781      0.008440054642     -0.013602525741
    6      0.006430437625      0.006402683290      0.003982919425

Maximal derivative component:        0.333655E-01 au


