|===============================================================================
|
|  DFTB+ release 20.1
|
|  Copyright (C) 2006 - 2020  DFTB+ developers group
|
|===============================================================================
|
|  When publishing results obtained with DFTB+, please cite the following
|  reference:
|
|  * DFTB+, a software package for efficient approximate density functional
|    theory based atomistic simulations, J. Chem. Phys. 152, 124101 (2020).
|    [doi: 10.1063/1.5143190]
|
|  You should also cite additional publications crediting the parametrization
|  data you use. Please consult the documentation of the SK-files for the
|  references.
|
|===============================================================================

Reading input file 'dftb_in.hsd'
Parser version: 8

--------------------------------------------------------------------------------
Reading SK-files:
Done.


Processed input in HSD format written to 'dftb_pin.hsd'

Starting initialization...
--------------------------------------------------------------------------------
OpenMP threads:              1
Chosen random seed:          500197748
Mode:                        Static calculation
Self consistent charges:     Yes
SCC-tolerance:                 0.100000E-05
Max. scc iterations:                   1000
Shell resolved Hubbard:      No
Spin polarisation:           No
Nr. of up electrons:            16.000000
Nr. of down electrons:          16.000000
Periodic boundaries:         No
Electronic solver:           Relatively robust
Maximal SCC-cycles:                    1000
Initial charges:             Set automatically (system chrg:   0.100E+01)
Included shells:             C:  s, p
                             H:  s
                             N:  s, p
Spin coupling constants:     C   1(s)-1(s):  -0.455900E-01
                             C   1(s)-2(p):  -0.293000E-01
                             C   2(p)-1(s):  -0.293000E-01
                             C   2(p)-2(p):  -0.275500E-01
                             H   1(s)-1(s):  -0.792500E-01
                             N   1(s)-1(s):  -0.468700E-01
                             N   1(s)-2(p):  -0.317000E-01
                             N   2(p)-1(s):  -0.317000E-01
                             N   2(p)-2(p):  -0.307200E-01
Range separated hybrid:      Yes
  Screening parameter omega:   0.300000E+00
  Range separated algorithm:   MatrixBased
Extra options:
                             Mulliken analysis
                             Force calculation
Force type                   original
                             Eigenvector printing


REKS Calcuation:             Yes
SSR(2,2) Calcuation:         Yes
Energy Functional:           (PPS+OSS)/2
Number of Core Orbitals:                 15
Number of Active Orbitals:                2
Number of Basis:                         32
Number of States:                         2
State-Averaging Weight:          0.500000
                                 0.500000
State of Interest:                        1
Initial Guess:               Diagonalize H0 matrix
Newton-Raphson for FON opt:  Yes
NR max. Iterations:                      50
Level Shifting:              Yes
Shift Value:                     0.300000
W Scale Factor:              C  =    3.200000
                             H  =    3.200000
                             N  =    3.200000
Transition Dipole:           No
Gradient of Microstate:      No
CP-REKS Solver:              Preconditioned Conjugate-Gradient
CG max. Iterations:                     100
CG Tolerance:                  0.100000E-07
Memory for A and Hxc:        Direct Updating Without Saving
Non-Adiabatic Coupling:      Yes

--------------------------------------------------------------------------------

***  Geometry step: 0

  iSCC       reks energy        Diff energy         x_a       SCC error   
    1      -16.4082205553       0.0000000000     0.998490    1.18286057
    2      -16.4242814422      -0.0160608869     0.999832    0.05518341
    3      -16.4276132062      -0.0033317640     0.999942    0.02473747
    4      -16.4288369218      -0.0012237157     0.999970    0.01316317
    5      -16.4294030433      -0.0005661215     0.999981    0.00814892
    6      -16.4296969128      -0.0002938695     0.999986    0.00545504
    7      -16.4298630432      -0.0001661303     0.999989    0.00386636
    8      -16.4299646739      -0.0001016307     0.999991    0.00279946
    9      -16.4300318974      -0.0000672235     0.999993    0.00208458
   10      -16.4300797710      -0.0000478736     0.999993    0.00173229
   11      -16.4301161139      -0.0000363429     0.999994    0.00146405
   12      -16.4301451340      -0.0000290201     0.999994    0.00125920
   13      -16.4301691885      -0.0000240545     0.999995    0.00110144
   14      -16.4301896614      -0.0000204729     0.999995    0.00097837
   15      -16.4302074093      -0.0000177479     0.999995    0.00088083
   16      -16.4302229932      -0.0000155839     0.999996    0.00082790
   17      -16.4302368010      -0.0000138078     0.999996    0.00080211
   18      -16.4302491150      -0.0000123140     0.999996    0.00077477
   19      -16.4302601494      -0.0000110344     0.999996    0.00074670
   20      -16.4302700728      -0.0000099234     0.999996    0.00071843
   21      -16.4302790218      -0.0000089490     0.999997    0.00069036
   22      -16.4302871094      -0.0000080876     0.999997    0.00066274
   23      -16.4302944309      -0.0000073215     0.999997    0.00063576
   24      -16.4303010678      -0.0000066369     0.999997    0.00060953
   25      -16.4303070905      -0.0000060227     0.999997    0.00058412
   26      -16.4303125606      -0.0000054701     0.999997    0.00055956
   27      -16.4303175322      -0.0000049716     0.999997    0.00053589
   28      -16.4303220532      -0.0000045210     0.999997    0.00051309
   29      -16.4303261663      -0.0000041131     0.999997    0.00049117
   30      -16.4303299097      -0.0000037434     0.999998    0.00047010
   31      -16.4303333175      -0.0000034078     0.999998    0.00044987
   32      -16.4303364206      -0.0000031030     0.999998    0.00043045
   33      -16.4303392466      -0.0000028260     0.999998    0.00041182
   34      -16.4303418207      -0.0000025741     0.999998    0.00039395
   35      -16.4303441656      -0.0000023449     0.999998    0.00037681
   36      -16.4303463018      -0.0000021362     0.999998    0.00036039
   37      -16.4303482480      -0.0000019462     0.999998    0.00034464
   38      -16.4303500213      -0.0000017732     0.999998    0.00032955
   39      -16.4303516369      -0.0000016157     0.999998    0.00031510
   40      -16.4303531090      -0.0000014721     0.999998    0.00030125
   41      -16.4303544503      -0.0000013413     0.999998    0.00028798
   42      -16.4303556725      -0.0000012221     0.999998    0.00027528
   43      -16.4303567860      -0.0000011135     0.999998    0.00026311
   44      -16.4303578006      -0.0000010146     0.999998    0.00025146
   45      -16.4303587250      -0.0000009244     0.999998    0.00024031
   46      -16.4303595672      -0.0000008422     0.999998    0.00022964
   47      -16.4303603345      -0.0000007673     0.999998    0.00021943
   48      -16.4303610336      -0.0000006991     0.999998    0.00020965
   49      -16.4303616704      -0.0000006369     0.999998    0.00020030
   50      -16.4303622506      -0.0000005802     0.999998    0.00019135
   51      -16.4303627791      -0.0000005285     0.999998    0.00018279
   52      -16.4303632606      -0.0000004815     0.999998    0.00017460
   53      -16.4303636991      -0.0000004386     0.999998    0.00016677
   54      -16.4303640986      -0.0000003995     0.999998    0.00015929
   55      -16.4303644625      -0.0000003639     0.999998    0.00015213
   56      -16.4303647939      -0.0000003314     0.999998    0.00014528
   57      -16.4303650958      -0.0000003019     0.999998    0.00013874
   58      -16.4303653707      -0.0000002749     0.999998    0.00013248
   59      -16.4303656211      -0.0000002504     0.999999    0.00012651
   60      -16.4303658492      -0.0000002281     0.999999    0.00012079
   61      -16.4303660569      -0.0000002077     0.999999    0.00011533
   62      -16.4303662460      -0.0000001891     0.999999    0.00011011
   63      -16.4303664183      -0.0000001722     0.999999    0.00010513
   64      -16.4303665751      -0.0000001568     0.999999    0.00010036
   65      -16.4303667179      -0.0000001428     0.999999    0.00009581
   66      -16.4303668480      -0.0000001301     0.999999    0.00009146
   67      -16.4303669664      -0.0000001184     0.999999    0.00008731
   68      -16.4303670743      -0.0000001078     0.999999    0.00008334
   69      -16.4303671725      -0.0000000982     0.999999    0.00007956
   70      -16.4303672619      -0.0000000894     0.999999    0.00007594
   71      -16.4303673433      -0.0000000814     0.999999    0.00007248
   72      -16.4303674174      -0.0000000741     0.999999    0.00006918
   73      -16.4303674849      -0.0000000675     0.999999    0.00006603
   74      -16.4303675463      -0.0000000614     0.999999    0.00006302
   75      -16.4303676022      -0.0000000559     0.999999    0.00006015
   76      -16.4303676531      -0.0000000509     0.999999    0.00005740
   77      -16.4303676995      -0.0000000464     0.999999    0.00005478
   78      -16.4303677417      -0.0000000422     0.999999    0.00005228
   79      -16.4303677801      -0.0000000384     0.999999    0.00004989
   80      -16.4303678151      -0.0000000350     0.999999    0.00004761
   81      -16.4303678470      -0.0000000318     0.999999    0.00004544
   82      -16.4303678759      -0.0000000290     0.999999    0.00004336
   83      -16.4303679023      -0.0000000264     0.999999    0.00004138
   84      -16.4303679264      -0.0000000240     0.999999    0.00003949
   85      -16.4303679482      -0.0000000219     0.999999    0.00003768
   86      -16.4303679681      -0.0000000199     0.999999    0.00003595
   87      -16.4303679863      -0.0000000181     0.999999    0.00003431
   88      -16.4303680028      -0.0000000165     0.999999    0.00003274
   89      -16.4303680178      -0.0000000150     0.999999    0.00003124
   90      -16.4303680314      -0.0000000137     0.999999    0.00002981
   91      -16.4303680439      -0.0000000124     0.999999    0.00002844
   92      -16.4303680552      -0.0000000113     0.999999    0.00002714
   93      -16.4303680655      -0.0000000103     0.999999    0.00002589
   94      -16.4303680749      -0.0000000094     0.999999    0.00002471
   95      -16.4303680834      -0.0000000085     0.999999    0.00002357
   96      -16.4303680912      -0.0000000078     0.999999    0.00002249
   97      -16.4303680983      -0.0000000071     0.999999    0.00002146
   98      -16.4303681047      -0.0000000064     0.999999    0.00002048
   99      -16.4303681106      -0.0000000059     0.999999    0.00001954
  100      -16.4303681159      -0.0000000053     0.999999    0.00001864
  101      -16.4303681208      -0.0000000049     0.999999    0.00001778
  102      -16.4303681252      -0.0000000044     0.999999    0.00001697
  103      -16.4303681292      -0.0000000040     0.999999    0.00001619
  104      -16.4303681329      -0.0000000037     0.999999    0.00001545
  105      -16.4303681362      -0.0000000033     0.999999    0.00001474
  106      -16.4303681392      -0.0000000030     0.999999    0.00001406
  107      -16.4303681420      -0.0000000028     0.999999    0.00001341
  108      -16.4303681445      -0.0000000025     0.999999    0.00001280
  109      -16.4303681468      -0.0000000023     0.999999    0.00001221
  110      -16.4303681489      -0.0000000021     0.999999    0.00001165
  111      -16.4303681508      -0.0000000019     0.999999    0.00001111
  112      -16.4303681525      -0.0000000017     0.999999    0.00001060
  113      -16.4303681541      -0.0000000016     0.999999    0.00001012
  114      -16.4303681555      -0.0000000014     0.999999    0.00000965
  115      -16.4303681568      -0.0000000013     0.999999    0.00000921
  116      -16.4303681580      -0.0000000012     0.999999    0.00000878
  117      -16.4303681591      -0.0000000011     0.999999    0.00000838
  118      -16.4303681600      -0.0000000010     0.999999    0.00000800
  119      -16.4303681609      -0.0000000009     0.999999    0.00000763
  120      -16.4303681617      -0.0000000008     0.999999    0.00000728
  121      -16.4303681625      -0.0000000007     0.999999    0.00000694
  122      -16.4303681632      -0.0000000007     0.999999    0.00000662
  123      -16.4303681638      -0.0000000006     0.999999    0.00000632
  124      -16.4303681643      -0.0000000006     0.999999    0.00000603
  125      -16.4303681648      -0.0000000005     0.999999    0.00000575
  126      -16.4303681653      -0.0000000005     0.999999    0.00000549
  127      -16.4303681657      -0.0000000004     0.999999    0.00000523
  128      -16.4303681661      -0.0000000004     0.999999    0.00000499
  129      -16.4303681664      -0.0000000003     0.999999    0.00000476
  130      -16.4303681668      -0.0000000003     0.999999    0.00000455
  131      -16.4303681670      -0.0000000003     0.999999    0.00000434
  132      -16.4303681673      -0.0000000003     0.999999    0.00000414
  133      -16.4303681675      -0.0000000002     0.999999    0.00000395
  134      -16.4303681678      -0.0000000002     0.999999    0.00000376
  135      -16.4303681680      -0.0000000002     0.999999    0.00000359
  136      -16.4303681681      -0.0000000002     0.999999    0.00000343
  137      -16.4303681683      -0.0000000002     0.999999    0.00000327
  138      -16.4303681685      -0.0000000001     0.999999    0.00000312
  139      -16.4303681686      -0.0000000001     0.999999    0.00000298
  140      -16.4303681687      -0.0000000001     0.999999    0.00000284
  141      -16.4303681688      -0.0000000001     0.999999    0.00000271
  142      -16.4303681689      -0.0000000001     0.999999    0.00000258
  143      -16.4303681690      -0.0000000001     0.999999    0.00000246
  144      -16.4303681691      -0.0000000001     0.999999    0.00000235
  145      -16.4303681692      -0.0000000001     0.999999    0.00000224
  146      -16.4303681693      -0.0000000001     0.999999    0.00000214
  147      -16.4303681693      -0.0000000001     0.999999    0.00000204
  148      -16.4303681694      -0.0000000001     0.999999    0.00000195
  149      -16.4303681694      -0.0000000001     0.999999    0.00000186
  150      -16.4303681695      -0.0000000000     0.999999    0.00000177
  151      -16.4303681695      -0.0000000000     0.999999    0.00000169
  152      -16.4303681696      -0.0000000000     0.999999    0.00000161
  153      -16.4303681696      -0.0000000000     0.999999    0.00000154
  154      -16.4303681696      -0.0000000000     0.999999    0.00000147
  155      -16.4303681697      -0.0000000000     0.999999    0.00000140
  156      -16.4303681697      -0.0000000000     0.999999    0.00000134
  157      -16.4303681697      -0.0000000000     0.999999    0.00000127
  158      -16.4303681697      -0.0000000000     0.999999    0.00000122
  159      -16.4303681698      -0.0000000000     0.999999    0.00000116
  160      -16.4303681698      -0.0000000000     0.999999    0.00000111
  161      -16.4303681698      -0.0000000000     0.999999    0.00000106
  162      -16.4303681698      -0.0000000000     0.999999    0.00000101
  163      -16.4303681698      -0.0000000000     0.999999    0.00000096
  
--------------------------------------------------
 Final SA-REKS(2,2) energy:     -16.43036817
  
 State     Energy      FON(1)    FON(2)   Spin
  PPS  -16.49274573   1.999997  0.000003  0.00
  OSS  -16.36799061   1.000000  1.000000  0.00
 Trip  -16.40039108   1.000000  1.000000  1.00
--------------------------------------------------

 Lagrangian Wab:   0.00016231  0.00016277

--------------------------------------------------
 SSR: 2SI-2SA-REKS(2,2) Hamiltonian matrix
               PPS           OSS
   PPS   -16.49274573    0.00022928
   OSS     0.00022928  -16.36799061
--------------------------------------------------

----------------------------------------------------------------
 SSR: 2SI-2SA-REKS(2,2) states
                    E_n       C_{PPS}    C_{OSS}
 SSR state  1  -16.49274615  -0.999998   0.001838
 SSR state  2  -16.36799019  -0.001838  -0.999998
----------------------------------------------------------------

 unrelaxed SSR FONs for S0:  1.999994  0.000006

Total Energy:                      -16.4927461502 H         -448.7905 eV
Extrapolated to 0:                 -16.4927461502 H         -448.7905 eV

----------------------------------------------------------------------------------
 Solving CP-REKS equation for  1 state vector...
----------------------------------------------------------------------------------
  CG solver: Constructing Y initial guess
  CG solver: Iteration    1    eps =    0.000085584553
  CG solver: Iteration    2    eps =    0.000017669638
  CG solver: Iteration    3    eps =    0.000026490354
  CG solver: Iteration    4    eps =    0.000014179769
  CG solver: Iteration    5    eps =    0.000004617964
  CG solver: Iteration    6    eps =    0.000001199517
  CG solver: Iteration    7    eps =    0.000000088439
  CG solver: Iteration    8    eps =    0.000000042227
  CG solver: Iteration    9    eps =    0.000000010806
  CG solver: Iteration   10    eps =    0.000000000651
  Convergence reached in CG solver after   10 iterations
  CG solver: Calculating converged R, Z, Q2 matrix
----------------------------------------------------------------------------------

----------------------------------------------------------------------------------
 Solving CP-REKS equation for SI between  1 and  2 state vectors...
----------------------------------------------------------------------------------
  CG solver: Constructing Y initial guess
  CG solver: Iteration    1    eps =    0.038152165109
  CG solver: Iteration    2    eps =    0.003517500585
  CG solver: Iteration    3    eps =    0.003283413382
  CG solver: Iteration    4    eps =    0.005241933580
  CG solver: Iteration    5    eps =    0.000410481236
  CG solver: Iteration    6    eps =    0.000123868213
  CG solver: Iteration    7    eps =    0.000032413410
  CG solver: Iteration    8    eps =    0.000003097452
  CG solver: Iteration    9    eps =    0.000000915922
  CG solver: Iteration   10    eps =    0.000000309243
  CG solver: Iteration   11    eps =    0.000000063128
  CG solver: Iteration   12    eps =    0.000000004160
  Convergence reached in CG solver after   12 iterations
  CG solver: Calculating converged R, Z, Q2 matrix
----------------------------------------------------------------------------------

--------------------------------------------------
 Gradient Information
--------------------------------------------------
           1 st state (SSR)
    -0.00577969     0.00771978     0.00253441
     0.08282408    -0.08244080     0.05349209
     0.00999830     0.02715413    -0.00266753
    -0.03131187    -0.02050910    -0.00308876
    -0.02939088     0.04538691    -0.01480754
    -0.07137187    -0.04678144    -0.05706175
    -0.01980804     0.01555399     0.06591791
    -0.01080644     0.02933037    -0.03013197
     0.02067008     0.00694163    -0.01411152
     0.02840567     0.01081397    -0.02786853
    -0.01507395    -0.01121614    -0.00714513
     0.04365126     0.04100687     0.02432263
     0.00577278    -0.00732855     0.00204082
    -0.00777944    -0.01563163     0.00857485

           2 st state (SSR)
     0.05386215    -0.00530939    -0.00525245
     0.02197604    -0.08515454     0.05224412
     0.00976215     0.02437478    -0.00942839
    -0.02702907    -0.01649880     0.00570441
    -0.03023996     0.04719435    -0.01888288
    -0.04359068    -0.01253949    -0.01408087
    -0.07139550    -0.00709726     0.04679755
    -0.00679835     0.02724674    -0.03419707
     0.02376673     0.00426096    -0.01715689
     0.07854483     0.03339777     0.00236425
    -0.01297910    -0.01326328    -0.00890153
     0.00529083     0.01799683    -0.01415561
     0.00794260    -0.00109381     0.00271510
    -0.00911267    -0.01351486     0.01223025
--------------------------------------------------
 Coupling Information
--------------------------------------------------
 between  1 and  2 states
--------------------------------------------------
 g vector - difference gradient
    -0.03000656     0.00659277     0.00396833
     0.03061992     0.00132741     0.00069397
     0.00012269     0.00140760     0.00341768
    -0.00216040    -0.00202982    -0.00446751
     0.00042393    -0.00091563     0.00202961
    -0.01369743    -0.01705755    -0.02150605
     0.02564510     0.01127290     0.00947951
    -0.00199098     0.00102659     0.00201933
    -0.00154347     0.00132893     0.00150717
    -0.02512665    -0.01131046    -0.01509240
    -0.00104979     0.00102411     0.00088069
     0.01918817     0.01151446     0.01924014
    -0.00109206    -0.00312430    -0.00033572
     0.00066753    -0.00105701    -0.00183475

 h vector - derivative coupling
    -0.05045040     0.02125729     0.02037015
     0.05324209    -0.00801815     0.01903790
     0.00125540     0.00487546     0.01012767
    -0.00516441    -0.00670966    -0.01928894
    -0.00016600    -0.00323866    -0.00219756
     0.05257962     0.01728661    -0.00420552
    -0.04048607    -0.01436537    -0.02196605
     0.00355716    -0.00414367    -0.00359990
     0.00132250    -0.00310541    -0.00422318
    -0.01547946    -0.00502707     0.00655563
    -0.00064242     0.00014434     0.00067514
     0.00213031     0.00254777     0.00024235
    -0.00194541    -0.00188042     0.00038796
     0.00024711     0.00037694    -0.00191565

 G vector - GDV
    -0.02982092     0.00651459     0.00389343
     0.03042402     0.00135687     0.00062399
     0.00011808     0.00138967     0.00338043
    -0.00214140    -0.00200515    -0.00439658
     0.00042454    -0.00090372     0.00203767
    -0.01389060    -0.01712097    -0.02149044
     0.02579373     0.01132563     0.00956018
    -0.00200404     0.00104182     0.00203255
    -0.00154832     0.00134033     0.00152269
    -0.02506958    -0.01129190    -0.01511639
    -0.00104742     0.00102357     0.00087820
     0.01918021     0.01150502     0.01923912
    -0.00108491    -0.00311737    -0.00033714
     0.00066661    -0.00105839    -0.00182770

 H vector - DCV - non-adiabatic coupling
    -0.40527407     0.17058406     0.16339578
     0.42766916    -0.06423117     0.15262052
     0.01006635     0.03912119     0.08127998
    -0.04145946    -0.05384171    -0.15474395
    -0.00131809    -0.02598673    -0.01755499
     0.42105339     0.13805993    -0.03434335
    -0.32376436    -0.11481486    -0.17579163
     0.02845406    -0.03318377    -0.02879582
     0.01055512    -0.02485254    -0.03380687
    -0.12481739    -0.04062816     0.05210260
    -0.00518027     0.00118712     0.00543763
     0.01764100     0.02076110     0.00250944
    -0.01562581    -0.01516475     0.00309982
     0.00200037     0.00299028    -0.01540916
--------------------------------------------------


--------------------------------------------------------------------------------
DFTB+ running times                          cpu [s]             wall clock [s]
--------------------------------------------------------------------------------
SCC                                    +     0.23  ( 42.7%)      0.23  ( 42.6%)
      Sparse to dense                        0.01  (  2.2%)      0.01  (  1.8%)
      Dense to sparse                        0.04  (  7.8%)      0.05  (  8.7%)
      Range separated Hamiltonian            0.02  (  3.8%)      0.02  (  4.3%)
  Density matrix creation                    0.03  (  4.6%)      0.02  (  4.2%)
Post-SCC processing                    +     0.31  ( 57.0%)      0.31  ( 56.5%)
  Force calculation                          0.31  ( 57.0%)      0.31  ( 56.3%)
--------------------------------------------------------------------------------
Missing                                +     0.00  (  0.3%)      0.00  (  0.9%)
Total                                  =     0.54  (100.0%)      0.55  (100.0%)
--------------------------------------------------------------------------------
