 Fermi distribution function

Calculation with static geometry


********************************************************************************
 iSCC Total electronic   Diff electronic      SCC error    
   10   -0.54107344E+01   -0.41033843E-12    0.17558283E-07
********************************************************************************

 Total charge:     1.00000000

 Atomic gross charges (e)
 Atom           Charge
    1       0.13493437
    2      -0.02241448
    3       0.15628090
    4       0.27415197
    5       0.27143573
    6       0.18561152

Nr. of electrons (up):     12.00000000
Atom populations (up)
 Atom       Population
    1       3.86506563
    2       5.02241448
    3       0.84371910
    4       0.72584803
    5       0.72856427
    6       0.81438848

l-shell populations (up)
 Atom Sh.   l       Population
    1   1   0       1.32112299
    1   2   1       2.54394265
    2   1   0       1.42282046
    2   2   1       3.59959402
    3   1   0       0.84371910
    4   1   0       0.72584803
    5   1   0       0.72856427
    6   1   0       0.81438848

Orbital populations (up)
 Atom Sh.   l   m       Population  Label
    1   1   0   0       1.32112299  s
    1   2   1  -1       0.62287997  p_y
    1   2   1   0       0.87703269  p_z
    1   2   1   1       1.04402999  p_x
    2   1   0   0       1.42282046  s
    2   2   1  -1       1.33782280  p_y
    2   2   1   0       1.10981286  p_z
    2   2   1   1       1.15195836  p_x
    3   1   0   0       0.84371910  s
    4   1   0   0       0.72584803  s
    5   1   0   0       0.72856427  s
    6   1   0   0       0.81438848  s

Fermi level:                        -0.4975064602 H          -13.5378 eV
Band energy:                        -8.9465774383 H         -243.4488 eV
TS:                                  0.0000000000 H            0.0000 eV
Band free energy (E-TS):            -8.9465774383 H         -243.4488 eV
Extrapolated E(0K):                 -8.9465774383 H         -243.4488 eV
Input / Output electrons (q):     12.0000000000     12.0000000000

Energy H0:                          -5.5449481475 H         -150.8857 eV
Energy SCC:                          0.1342137715 H            3.6521 eV
Total Electronic energy:            -5.4107343760 H         -147.2336 eV
Repulsive energy:                    0.1872947256 H            5.0965 eV
Total energy:                       -5.2234396505 H         -142.1370 eV
Extrapolated to 0:                  -5.2234396505 H         -142.1370 eV
Total Mermin free energy:           -5.2234396505 H         -142.1370 eV
Force related energy:               -5.2234396505 H         -142.1370 eV

SCC converged

Excitation Energy:                   0.1475351245 H            4.0146 eV

Total Forces
    1     -0.003752513848      0.007928505238      0.014186588424
    2     -0.014128409265      0.005048632459     -0.030021153588
    3     -0.007680761268     -0.005919801850      0.003094204353
    4      0.000777379757      0.002602880608      0.007480493484
    5      0.013190305930     -0.006825136243      0.001265125154
    6      0.011593998693     -0.002835080212      0.003994742174

Maximal derivative component:        0.300212E-01 au


