|===============================================================================
|
|  DFTB+ release 20.1
|
|  Copyright (C) 2006 - 2020  DFTB+ developers group
|
|===============================================================================
|
|  When publishing results obtained with DFTB+, please cite the following
|  reference:
|
|  * DFTB+, a software package for efficient approximate density functional
|    theory based atomistic simulations, J. Chem. Phys. 152, 124101 (2020).
|    [doi: 10.1063/1.5143190]
|
|  You should also cite additional publications crediting the parametrization
|  data you use. Please consult the documentation of the SK-files for the
|  references.
|
|===============================================================================

Reading input file 'dftb_in.hsd'
Parser version: 8

--------------------------------------------------------------------------------
Reading SK-files:
Done.


Processed input in HSD format written to 'dftb_pin.hsd'

Starting initialization...
--------------------------------------------------------------------------------
OpenMP threads:              1
Chosen random seed:          500488056
Mode:                        Static calculation
Self consistent charges:     Yes
SCC-tolerance:                 0.100000E-05
Max. scc iterations:                   1000
Shell resolved Hubbard:      No
Spin polarisation:           No
Nr. of up electrons:            16.000000
Nr. of down electrons:          16.000000
Periodic boundaries:         No
Electronic solver:           Relatively robust
Maximal SCC-cycles:                    1000
Initial charges:             Set automatically (system chrg:   0.100E+01)
Included shells:             C:  s, p
                             H:  s
                             N:  s, p
Spin coupling constants:     C   1(s)-1(s):  -0.455900E-01
                             C   1(s)-2(p):  -0.293000E-01
                             C   2(p)-1(s):  -0.293000E-01
                             C   2(p)-2(p):  -0.275500E-01
                             H   1(s)-1(s):  -0.792500E-01
                             N   1(s)-1(s):  -0.468700E-01
                             N   1(s)-2(p):  -0.317000E-01
                             N   2(p)-1(s):  -0.317000E-01
                             N   2(p)-2(p):  -0.307200E-01
Range separated hybrid:      Yes
  Screening parameter omega:   0.300000E+00
  Range separated algorithm:   MatrixBased
Extra options:
                             Mulliken analysis
                             Force calculation
Force type                   original
                             Eigenvector printing


REKS Calcuation:             Yes
SSR(2,2) Calcuation:         Yes
Energy Functional:           (PPS+OSS)/2
Number of Core Orbitals:                 15
Number of Active Orbitals:                2
Number of Basis:                         32
Number of States:                         2
State-Averaging Weight:          0.500000
                                 0.500000
State of Interest:                        1
Initial Guess:               Diagonalize H0 matrix
Newton-Raphson for FON opt:  Yes
NR max. Iterations:                      50
Level Shifting:              Yes
Shift Value:                     0.300000
W Scale Factor:              C  =    3.200000
                             H  =    3.200000
                             N  =    3.200000
Transition Dipole:           No
Gradient of Microstate:      No
CP-REKS Solver:              Preconditioned Conjugate-Gradient
CG max. Iterations:                     100
CG Tolerance:                  0.100000E-07
Memory for A and Hxc:        Direct Updating Without Saving
Non-Adiabatic Coupling:      Yes

--------------------------------------------------------------------------------

***  Geometry step: 0

  iSCC       reks energy        Diff energy         x_a       SCC error   
    1      -16.3993155686       0.0000000000     0.998374    1.21054324
    2      -16.4127871696      -0.0134716010     0.999749    0.05731021
    3      -16.4159635255      -0.0031763559     0.999905    0.02189024
    4      -16.4172154208      -0.0012518953     0.999949    0.01383741
    5      -16.4178096162      -0.0005941954     0.999966    0.00947457
    6      -16.4181286758      -0.0003190595     0.999975    0.00669875
    7      -16.4183202625      -0.0001915867     0.999980    0.00483708
    8      -16.4184480284      -0.0001277660     0.999982    0.00356452
    9      -16.4185413319      -0.0000933034     0.999984    0.00268400
   10      -16.4186144304      -0.0000730986     0.999985    0.00206744
   11      -16.4186746011      -0.0000601706     0.999986    0.00163006
   12      -16.4187257715      -0.0000511704     0.999987    0.00131530
   13      -16.4187702049      -0.0000444334     0.999987    0.00124443
   14      -16.4188093048      -0.0000391000     0.999988    0.00122093
   15      -16.4188440093      -0.0000347045     0.999988    0.00119021
   16      -16.4188749901      -0.0000309808     0.999988    0.00115500
   17      -16.4189027568      -0.0000277667     0.999989    0.00111708
   18      -16.4189277139      -0.0000249571     0.999989    0.00107765
   19      -16.4189501929      -0.0000224790     0.999989    0.00104239
   20      -16.4189704724      -0.0000202795     0.999989    0.00100911
   21      -16.4189887902      -0.0000183178     0.999990    0.00097477
   22      -16.4190053521      -0.0000165619     0.999990    0.00094002
   23      -16.4190203380      -0.0000149859     0.999990    0.00090531
   24      -16.4190339061      -0.0000135681     0.999990    0.00087095
   25      -16.4190461965      -0.0000122904     0.999990    0.00083714
   26      -16.4190573337      -0.0000111372     0.999991    0.00080404
   27      -16.4190674289      -0.0000100952     0.999991    0.00077173
   28      -16.4190765817      -0.0000091528     0.999991    0.00074030
   29      -16.4190848816      -0.0000082998     0.999991    0.00070977
   30      -16.4190924088      -0.0000075273     0.999991    0.00068019
   31      -16.4190992361      -0.0000068272     0.999991    0.00065156
   32      -16.4191054288      -0.0000061927     0.999992    0.00062389
   33      -16.4191110460      -0.0000056173     0.999992    0.00059718
   34      -16.4191161414      -0.0000050954     0.999992    0.00057142
   35      -16.4191207634      -0.0000046220     0.999992    0.00054660
   36      -16.4191249558      -0.0000041925     0.999992    0.00052270
   37      -16.4191287586      -0.0000038028     0.999992    0.00049971
   38      -16.4191322077      -0.0000034491     0.999992    0.00047760
   39      -16.4191353360      -0.0000031283     0.999992    0.00045636
   40      -16.4191381731      -0.0000028371     0.999992    0.00043597
   41      -16.4191407461      -0.0000025729     0.999993    0.00041640
   42      -16.4191430793      -0.0000023332     0.999993    0.00039762
   43      -16.4191451950      -0.0000021157     0.999993    0.00037962
   44      -16.4191471133      -0.0000019184     0.999993    0.00036237
   45      -16.4191488526      -0.0000017393     0.999993    0.00034585
   46      -16.4191504295      -0.0000015769     0.999993    0.00033002
   47      -16.4191518590      -0.0000014295     0.999993    0.00031487
   48      -16.4191531549      -0.0000012959     0.999993    0.00030037
   49      -16.4191543296      -0.0000011747     0.999993    0.00028650
   50      -16.4191553943      -0.0000010647     0.999993    0.00027324
   51      -16.4191563593      -0.0000009650     0.999993    0.00026056
   52      -16.4191572339      -0.0000008746     0.999993    0.00024843
   53      -16.4191580265      -0.0000007926     0.999993    0.00023685
   54      -16.4191587448      -0.0000007183     0.999993    0.00022578
   55      -16.4191593957      -0.0000006509     0.999993    0.00021521
   56      -16.4191599854      -0.0000005898     0.999993    0.00020511
   57      -16.4191605198      -0.0000005344     0.999993    0.00019548
   58      -16.4191610040      -0.0000004842     0.999993    0.00018627
   59      -16.4191614426      -0.0000004386     0.999993    0.00017749
   60      -16.4191618400      -0.0000003974     0.999993    0.00016911
   61      -16.4191622000      -0.0000003600     0.999993    0.00016111
   62      -16.4191625262      -0.0000003261     0.999994    0.00015348
   63      -16.4191628216      -0.0000002954     0.999994    0.00014621
   64      -16.4191630892      -0.0000002676     0.999994    0.00013926
   65      -16.4191633316      -0.0000002424     0.999994    0.00013265
   66      -16.4191635511      -0.0000002195     0.999994    0.00012633
   67      -16.4191637500      -0.0000001988     0.999994    0.00012032
   68      -16.4191639301      -0.0000001801     0.999994    0.00011458
   69      -16.4191640932      -0.0000001631     0.999994    0.00010911
   70      -16.4191642409      -0.0000001477     0.999994    0.00010390
   71      -16.4191643747      -0.0000001338     0.999994    0.00009893
   72      -16.4191644958      -0.0000001212     0.999994    0.00009420
   73      -16.4191646055      -0.0000001097     0.999994    0.00008969
   74      -16.4191647049      -0.0000000993     0.999994    0.00008539
   75      -16.4191647949      -0.0000000900     0.999994    0.00008129
   76      -16.4191648763      -0.0000000815     0.999994    0.00007739
   77      -16.4191649501      -0.0000000738     0.999994    0.00007368
   78      -16.4191650169      -0.0000000668     0.999994    0.00007014
   79      -16.4191650774      -0.0000000605     0.999994    0.00006677
   80      -16.4191651321      -0.0000000548     0.999994    0.00006355
   81      -16.4191651817      -0.0000000496     0.999994    0.00006050
   82      -16.4191652266      -0.0000000449     0.999994    0.00005758
   83      -16.4191652672      -0.0000000406     0.999994    0.00005481
   84      -16.4191653040      -0.0000000368     0.999994    0.00005217
   85      -16.4191653373      -0.0000000333     0.999994    0.00004965
   86      -16.4191653675      -0.0000000302     0.999994    0.00004726
   87      -16.4191653948      -0.0000000273     0.999994    0.00004498
   88      -16.4191654195      -0.0000000247     0.999994    0.00004281
   89      -16.4191654419      -0.0000000224     0.999994    0.00004074
   90      -16.4191654622      -0.0000000203     0.999994    0.00003877
   91      -16.4191654805      -0.0000000183     0.999994    0.00003690
   92      -16.4191654971      -0.0000000166     0.999994    0.00003511
   93      -16.4191655122      -0.0000000150     0.999994    0.00003342
   94      -16.4191655258      -0.0000000136     0.999994    0.00003180
   95      -16.4191655381      -0.0000000123     0.999994    0.00003026
   96      -16.4191655493      -0.0000000112     0.999994    0.00002880
   97      -16.4191655593      -0.0000000101     0.999994    0.00002740
   98      -16.4191655685      -0.0000000091     0.999994    0.00002608
   99      -16.4191655768      -0.0000000083     0.999994    0.00002482
  100      -16.4191655843      -0.0000000075     0.999994    0.00002361
  101      -16.4191655910      -0.0000000068     0.999994    0.00002247
  102      -16.4191655972      -0.0000000061     0.999994    0.00002138
  103      -16.4191656027      -0.0000000056     0.999994    0.00002035
  104      -16.4191656078      -0.0000000050     0.999994    0.00001936
  105      -16.4191656123      -0.0000000046     0.999994    0.00001842
  106      -16.4191656164      -0.0000000041     0.999994    0.00001753
  107      -16.4191656202      -0.0000000037     0.999994    0.00001668
  108      -16.4191656235      -0.0000000034     0.999994    0.00001587
  109      -16.4191656266      -0.0000000031     0.999994    0.00001510
  110      -16.4191656294      -0.0000000028     0.999994    0.00001437
  111      -16.4191656319      -0.0000000025     0.999994    0.00001367
  112      -16.4191656341      -0.0000000023     0.999994    0.00001301
  113      -16.4191656362      -0.0000000021     0.999994    0.00001238
  114      -16.4191656380      -0.0000000019     0.999994    0.00001177
  115      -16.4191656397      -0.0000000017     0.999994    0.00001120
  116      -16.4191656412      -0.0000000015     0.999994    0.00001066
  117      -16.4191656426      -0.0000000014     0.999994    0.00001014
  118      -16.4191656439      -0.0000000012     0.999994    0.00000965
  119      -16.4191656450      -0.0000000011     0.999994    0.00000918
  120      -16.4191656460      -0.0000000010     0.999994    0.00000874
  121      -16.4191656469      -0.0000000009     0.999994    0.00000831
  122      -16.4191656478      -0.0000000008     0.999994    0.00000791
  123      -16.4191656485      -0.0000000008     0.999994    0.00000752
  124      -16.4191656492      -0.0000000007     0.999994    0.00000716
  125      -16.4191656498      -0.0000000006     0.999994    0.00000681
  126      -16.4191656504      -0.0000000006     0.999994    0.00000648
  127      -16.4191656509      -0.0000000005     0.999994    0.00000616
  128      -16.4191656514      -0.0000000005     0.999994    0.00000587
  129      -16.4191656518      -0.0000000004     0.999994    0.00000558
  130      -16.4191656522      -0.0000000004     0.999994    0.00000531
  131      -16.4191656525      -0.0000000003     0.999994    0.00000505
  132      -16.4191656528      -0.0000000003     0.999994    0.00000481
  133      -16.4191656531      -0.0000000003     0.999994    0.00000457
  134      -16.4191656533      -0.0000000003     0.999994    0.00000435
  135      -16.4191656536      -0.0000000002     0.999994    0.00000414
  136      -16.4191656538      -0.0000000002     0.999994    0.00000394
  137      -16.4191656540      -0.0000000002     0.999994    0.00000375
  138      -16.4191656541      -0.0000000002     0.999994    0.00000356
  139      -16.4191656543      -0.0000000002     0.999994    0.00000339
  140      -16.4191656544      -0.0000000001     0.999994    0.00000323
  141      -16.4191656545      -0.0000000001     0.999994    0.00000307
  142      -16.4191656547      -0.0000000001     0.999994    0.00000292
  143      -16.4191656548      -0.0000000001     0.999994    0.00000278
  144      -16.4191656549      -0.0000000001     0.999994    0.00000264
  145      -16.4191656549      -0.0000000001     0.999994    0.00000251
  146      -16.4191656550      -0.0000000001     0.999994    0.00000239
  147      -16.4191656551      -0.0000000001     0.999994    0.00000228
  148      -16.4191656552      -0.0000000001     0.999994    0.00000217
  149      -16.4191656552      -0.0000000001     0.999994    0.00000206
  150      -16.4191656553      -0.0000000001     0.999994    0.00000196
  151      -16.4191656553      -0.0000000000     0.999994    0.00000186
  152      -16.4191656553      -0.0000000000     0.999994    0.00000177
  153      -16.4191656554      -0.0000000000     0.999994    0.00000169
  154      -16.4191656554      -0.0000000000     0.999994    0.00000161
  155      -16.4191656555      -0.0000000000     0.999994    0.00000153
  156      -16.4191656555      -0.0000000000     0.999994    0.00000145
  157      -16.4191656555      -0.0000000000     0.999994    0.00000138
  158      -16.4191656555      -0.0000000000     0.999994    0.00000132
  159      -16.4191656555      -0.0000000000     0.999994    0.00000125
  160      -16.4191656556      -0.0000000000     0.999994    0.00000119
  161      -16.4191656556      -0.0000000000     0.999994    0.00000113
  162      -16.4191656556      -0.0000000000     0.999994    0.00000108
  163      -16.4191656556      -0.0000000000     0.999994    0.00000103
  164      -16.4191656556      -0.0000000000     0.999994    0.00000098
  
--------------------------------------------------
 Final SA-REKS(2,2) energy:     -16.41916566
  
 State     Energy      FON(1)    FON(2)   Spin
  PPS  -16.48012322   1.999988  0.000012  0.00
  OSS  -16.35820809   1.000000  1.000000  0.00
 Trip  -16.39542867   1.000000  1.000000  1.00
--------------------------------------------------

 Lagrangian Wab:   0.00197255  0.00197261

--------------------------------------------------
 SSR: 2SI-2SA-REKS(2,2) Hamiltonian matrix
               PPS           OSS
   PPS   -16.48012322    0.00278278
   OSS     0.00278278  -16.35820809
--------------------------------------------------

----------------------------------------------------------------
 SSR: 2SI-2SA-REKS(2,2) states
                    E_n       C_{PPS}    C_{OSS}
 SSR state  1  -16.48018671  -0.999740   0.022808
 SSR state  2  -16.35814460  -0.022808  -0.999740
----------------------------------------------------------------

 unrelaxed SSR FONs for S0:  1.999468  0.000532

Total Energy:                      -16.4801867074 H         -448.4487 eV
Extrapolated to 0:                 -16.4801867074 H         -448.4487 eV

----------------------------------------------------------------------------------
 Solving CP-REKS equation for  1 state vector...
----------------------------------------------------------------------------------
  CG solver: Constructing Y initial guess
  CG solver: Iteration    1    eps =    0.000436706368
  CG solver: Iteration    2    eps =    0.000106767703
  CG solver: Iteration    3    eps =    0.000021405881
  CG solver: Iteration    4    eps =    0.000001579502
  CG solver: Iteration    5    eps =    0.000000263105
  CG solver: Iteration    6    eps =    0.000000090976
  CG solver: Iteration    7    eps =    0.000000016310
  CG solver: Iteration    8    eps =    0.000000002021
  Convergence reached in CG solver after    8 iterations
  CG solver: Calculating converged R, Z, Q2 matrix
----------------------------------------------------------------------------------

----------------------------------------------------------------------------------
 Solving CP-REKS equation for SI between  1 and  2 state vectors...
----------------------------------------------------------------------------------
  CG solver: Constructing Y initial guess
  CG solver: Iteration    1    eps =    0.042036268007
  CG solver: Iteration    2    eps =    0.001385954335
  CG solver: Iteration    3    eps =    0.000576777241
  CG solver: Iteration    4    eps =    0.000084931313
  CG solver: Iteration    5    eps =    0.000016350831
  CG solver: Iteration    6    eps =    0.000029112591
  CG solver: Iteration    7    eps =    0.000006557842
  CG solver: Iteration    8    eps =    0.000001785659
  CG solver: Iteration    9    eps =    0.000000308302
  CG solver: Iteration   10    eps =    0.000000146684
  CG solver: Iteration   11    eps =    0.000000022589
  CG solver: Iteration   12    eps =    0.000000002430
  Convergence reached in CG solver after   12 iterations
  CG solver: Calculating converged R, Z, Q2 matrix
----------------------------------------------------------------------------------

--------------------------------------------------
 Gradient Information
--------------------------------------------------
           1 st state (SSR)
     0.14552012     0.03376784     0.04958789
    -0.12518161    -0.03385498     0.01635339
    -0.05824079     0.03161821    -0.01029636
     0.00721719    -0.04536049    -0.02861456
     0.00071111    -0.00032655     0.00808366
     0.05434108    -0.02163455    -0.04938221
    -0.06394668     0.00253055     0.02360175
     0.01117827     0.03257405     0.00547707
     0.02129345    -0.01875715    -0.00559166
     0.04495058    -0.01274490     0.02598218
     0.01743674     0.01199371    -0.01630152
    -0.03704642     0.04640114    -0.01854498
    -0.01110360    -0.00186342     0.02032260
    -0.00712945    -0.02434345    -0.02067723

           2 st state (SSR)
     0.13145884     0.03315611     0.04131164
    -0.09336439    -0.04470455     0.01380880
    -0.05161899     0.03341880    -0.02134483
     0.00424181    -0.04343413    -0.00934893
    -0.00121648     0.00003110    -0.00965484
     0.05275494    -0.00683084    -0.00881484
    -0.08011162    -0.00969917     0.00563936
     0.01451013     0.03320254     0.00061619
     0.02009260    -0.01879273    -0.00115052
     0.09464863    -0.00808488     0.02240262
     0.01695454     0.01408990    -0.01155659
    -0.09383085     0.04076099    -0.01751791
    -0.00767395     0.00433575     0.01583788
    -0.00684522    -0.02744889    -0.02022802
--------------------------------------------------
 Coupling Information
--------------------------------------------------
 between  1 and  2 states
--------------------------------------------------
 g vector - difference gradient
     0.00756013     0.00057751     0.00440812
    -0.01669609     0.00485534     0.00100506
    -0.00339812    -0.00095295     0.00554362
     0.00152695    -0.00098047    -0.00979134
     0.00098925    -0.00016833     0.00911588
     0.00205637    -0.00708058    -0.02050874
     0.00693314     0.00585316     0.00887035
    -0.00169253    -0.00028368     0.00270124
     0.00057063     0.00002549    -0.00210234
    -0.02493395    -0.00207228     0.00155078
     0.00024524    -0.00107437    -0.00239118
     0.02870324     0.00287253    -0.00045207
    -0.00172473    -0.00315573     0.00228206
    -0.00013953     0.00158435    -0.00023143

 h vector - derivative coupling
     0.01143827     0.00594330     0.00581998
    -0.01688697    -0.01259759    -0.00588291
    -0.00183505    -0.00113289     0.00029866
     0.00082610    -0.00035678    -0.00325278
     0.00053561     0.00023398     0.00520014
     0.02765481     0.00720640    -0.00446704
    -0.02536073    -0.00587198    -0.00263306
    -0.00054484     0.00067683     0.00587640
    -0.00066642     0.00016835     0.00264041
    -0.00129332     0.00569885    -0.00527611
     0.00008511    -0.00055149    -0.00035581
     0.00616527     0.00108465     0.00135816
    -0.00017779    -0.00115906     0.00081842
     0.00005996     0.00065744    -0.00014446

 G vector - GDV
     0.00703064     0.00030587     0.00413812
    -0.01590861     0.00542478     0.00127230
    -0.00331090    -0.00090029     0.00552423
     0.00148769    -0.00096318    -0.00963282
     0.00096379    -0.00017883     0.00886925
     0.00079307    -0.00740185    -0.02028369
     0.00808247     0.00611486     0.00898120
    -0.00166593    -0.00031425     0.00243044
     0.00060043     0.00001779    -0.00222057
    -0.02484903    -0.00233001     0.00178978
     0.00024110    -0.00104810    -0.00237247
     0.02839221     0.00282007    -0.00051354
    -0.00171482    -0.00309959     0.00224236
    -0.00014211     0.00155272    -0.00022460

 H vector - DCV - non-adiabatic coupling
     0.09645146     0.04886389     0.04928586
    -0.14446496    -0.10130166    -0.04777824
    -0.01629034    -0.00962923     0.00451611
     0.00733248    -0.00328674    -0.03028395
     0.00475378     0.00185228     0.04597142
     0.22713320     0.05634124    -0.04422787
    -0.20499619    -0.04587714    -0.01823794
    -0.00509219     0.00543408     0.04910989
    -0.00524168     0.00138756     0.02082710
    -0.01990339     0.04587282    -0.04260741
     0.00078831    -0.00491564    -0.00380598
     0.06119061     0.00995162     0.01094809
    -0.00209977    -0.01066652     0.00755184
     0.00043866     0.00597344    -0.00126892
--------------------------------------------------


--------------------------------------------------------------------------------
DFTB+ running times                          cpu [s]             wall clock [s]
--------------------------------------------------------------------------------
SCC                                    +     0.22  ( 44.1%)      0.22  ( 43.8%)
      Sparse to dense                        0.01  (  2.2%)      0.01  (  1.8%)
      Dense to sparse                        0.04  (  8.1%)      0.04  (  7.8%)
      Range separated Hamiltonian            0.02  (  4.1%)      0.02  (  4.5%)
  Density matrix creation                    0.02  (  4.9%)      0.03  (  6.1%)
Post-SCC processing                    +     0.28  ( 55.7%)      0.28  ( 55.0%)
  Force calculation                          0.28  ( 55.6%)      0.28  ( 55.0%)
--------------------------------------------------------------------------------
Missing                                +     0.00  (  0.3%)      0.01  (  1.2%)
Total                                  =     0.50  (100.0%)      0.51  (100.0%)
--------------------------------------------------------------------------------
