     6
  Step:     0            Position(A)                                  Velocity(au)
C        -0.03574712     0.00092320     0.03165274    -0.00004303     0.00001819     0.00015885
N        -0.04323127    -0.04049863     1.28806076     0.00017724     0.00004860    -0.00018748
H         0.91967482     0.04050343    -0.52109389     0.00028969    -0.00027426    -0.00042160
H         0.83857222    -0.17874939     1.83319096    -0.00125057    -0.00000339    -0.00005314
H        -0.94105642    -0.11436909     1.84879991    -0.00116195    -0.00053670     0.00078569
H        -1.00340674     0.13461902    -0.54537691     0.00017263    -0.00007783     0.00040151
     6
  Step:     1            Position(A)                                  Velocity(au)
C        -0.03599672     0.00102281     0.03230144    -0.00004800     0.00001825     0.00007743
N        -0.04227404    -0.04023378     1.28725120     0.00017124     0.00004829    -0.00010768
H         0.92132133     0.03903813    -0.52359716     0.00030874    -0.00026197    -0.00049098
H         0.83158239    -0.17878644     1.83289558    -0.00129427    -0.00001192    -0.00004808
H        -0.94711520    -0.11732917     1.85298221    -0.00104099    -0.00054469     0.00073434
H        -1.00233221     0.13421377    -0.54324030     0.00021894    -0.00007002     0.00037840
     6
  Step:     2            Position(A)                                  Velocity(au)
C        -0.03627216     0.00112277     0.03249967    -0.00005247     0.00001831    -0.00000535
N        -0.04135831    -0.03997041     1.28688302     0.00016224     0.00004811    -0.00002669
H         0.92305162     0.03763816    -0.52646391     0.00032052    -0.00025047    -0.00055471
H         0.82441615    -0.17887978     1.83266506    -0.00131470    -0.00002417    -0.00002873
H        -0.95244225    -0.12032664     1.85683177    -0.00089706    -0.00055073     0.00066581
H        -1.00101212     0.13385316    -0.54123812     0.00026207    -0.00006148     0.00035223
     6
  Step:     3            Position(A)                                  Velocity(au)
C        -0.03657050     0.00122301     0.03224297    -0.00005637     0.00001834    -0.00008846
N        -0.04049999    -0.03970765     1.28695937     0.00015043     0.00004813     0.00005435
H         0.92482619     0.03629917    -0.52966296     0.00032522    -0.00023978    -0.00061285
H         0.81720606    -0.17905070     1.83258136    -0.00131030    -0.00004046     0.00000617
H        -0.95692463    -0.12335139     1.86026292    -0.00073468    -0.00055509     0.00058311
H        -0.99946647     0.13354145    -0.53938861     0.00030112    -0.00005211     0.00032247
     6
  Step:     4            Position(A)                                  Velocity(au)
C        -0.03688844     0.00132323     0.03153257    -0.00005964     0.00001829    -0.00017089
N        -0.03971379    -0.03944422     1.28747718     0.00013604     0.00004841     0.00013433
H         0.92660698     0.03501685    -0.53316360     0.00032312    -0.00022986    -0.00066547
H         0.81009181    -0.17932211     1.83273246    -0.00127992    -0.00006108     0.00005754
H        -0.96047382    -0.12639498     1.86320636    -0.00055808    -0.00055806     0.00048909
H        -0.99772027     0.13328353    -0.53771280     0.00033515    -0.00004178     0.00028859
     6
  Step:     5            Position(A)                                  Velocity(au)
C        -0.03722229     0.00142289     0.03037528    -0.00006219     0.00001812    -0.00025162
N        -0.03901323    -0.03917852     1.28842743     0.00011928     0.00004901     0.00021219
H         0.92835759     0.03378698    -0.53693586     0.00031452    -0.00022068    -0.00071268
H         0.80321778    -0.17971821     1.83321017    -0.00122295    -0.00008618     0.00012582
H        -0.96302385    -0.12945045     1.86560815    -0.00037121    -0.00055986     0.00038644
H        -0.99580365     0.13308487    -0.53623457     0.00036320    -0.00003038     0.00025006
     6
  Step:     6            Position(A)                                  Velocity(au)
C        -0.03756794     0.00152124     0.02878334    -0.00006394     0.00001780    -0.00032963
N        -0.03841052    -0.03890870     1.28979562     0.00010041     0.00004996     0.00028695
H         0.93004354     0.03260567    -0.54095050     0.00029977    -0.00021216    -0.00075457
H         0.79672952    -0.18026377     1.83410719    -0.00113951    -0.00011581     0.00021085
H        -0.96452971    -0.13251214     1.86742869    -0.00017782    -0.00056069     0.00027773
H        -0.99375190     0.13295160    -0.53498059     0.00038430    -0.00001780     0.00020638
     6
  Step:     7            Position(A)                                  Velocity(au)
C        -0.03792084     0.00161730     0.02677434    -0.00006481     0.00001727    -0.00040392
N        -0.03791637    -0.03863269     1.29156210     0.00007972     0.00005130     0.00035765
H         0.93163237     0.03146934    -0.54517898     0.00027924    -0.00020421    -0.00079120
H         0.79076944    -0.18098331     1.83551351    -0.00103060    -0.00014979     0.00031172
H        -0.96496642    -0.13557555     1.86864219     0.00001838    -0.00056072     0.00016548
H        -0.99160541     0.13289041    -0.53398004     0.00039753    -0.00000394     0.00015713
     6
  Step:     8            Position(A)                                  Velocity(au)
C        -0.03827591     0.00170986     0.02437108    -0.00006470     0.00001650    -0.00047351
N        -0.03753972    -0.03834835     1.29370246     0.00005759     0.00005301     0.00042343
H         0.93309380     0.03037492    -0.54959325     0.00025332    -0.00019676    -0.00082259
H         0.78547175    -0.18190005     1.83751224    -0.00089821    -0.00018778     0.00042669
H        -0.96432889    -0.13863719     1.86923631     0.00021365    -0.00056012     0.00005220
H        -0.98940946     0.13290860    -0.53326418     0.00040200     0.00001130     0.00010201
     6
  Step:     9            Position(A)                                  Velocity(au)
C        -0.03862763     0.00179753     0.02160142    -0.00006352     0.00001546    -0.00053743
N        -0.03728728    -0.03805353     1.29618788     0.00003447     0.00005510     0.00048345
H         0.93439980     0.02931980    -0.55416540     0.00022246    -0.00018970    -0.00084868
H         0.78095693    -0.18303471     1.84017495    -0.00074546    -0.00022915     0.00055314
H        -0.96263239    -0.14169461     1.86921245     0.00040403    -0.00055906    -0.00005949
H        -0.98721375     0.13301383    -0.53286561     0.00039695     0.00002796     0.00004089
     6
  Step:    10            Position(A)                                  Velocity(au)
C        -0.03897004     0.00187875     0.01849817    -0.00006121     0.00001411    -0.00059474
N        -0.03716306    -0.03774621     1.29898550     0.00001092     0.00005753     0.00053697
H         0.93552476     0.02830191    -0.55886744     0.00018712    -0.00018294    -0.00086940
H         0.77732560    -0.18440410     1.84355677    -0.00057661    -0.00027302     0.00068750
H        -0.95991381    -0.14474642     1.86858621     0.00058528    -0.00055773    -0.00016684
H        -0.98507168     0.13321409    -0.53281730     0.00038181     0.00004605    -0.00002613
     6
  Step:    11            Position(A)                                  Velocity(au)
C        -0.03929682     0.00195181     0.01509888    -0.00005771     0.00001245    -0.00064456
N        -0.03716786    -0.03742456     1.30205874    -0.00001240     0.00006024     0.00058328
H         0.93644569     0.02731969    -0.56367091     0.00014785    -0.00017637    -0.00088461
H         0.77465262    -0.18601974     1.84769164    -0.00039698    -0.00031826     0.00082540
H        -0.95623330    -0.14779247     1.86738830     0.00075287    -0.00055636    -0.00026694
H        -0.98303926     0.13351735    -0.53315135     0.00035627     0.00006555    -0.00009871
     6
  Step:    12            Position(A)                                  Velocity(au)
C        -0.03960146     0.00201492     0.01144551    -0.00005301     0.00001045    -0.00068609
N        -0.03729873    -0.03708710     1.30536768    -0.00003477     0.00006317     0.00062180
H         0.93714251     0.02637211    -0.56854673     0.00010525    -0.00016992    -0.00089418
H         0.77298186    -0.18788649     1.85258817    -0.00021275    -0.00036352     0.00096181
H        -0.95167604    -0.15083409     1.86566535     0.00090196    -0.00055527    -0.00035675
H        -0.98117342     0.13393131    -0.53389733     0.00032039     0.00008633    -0.00017612
     6
  Step:    13            Position(A)                                  Velocity(au)
C        -0.03987745     0.00206627     0.00758387    -0.00004714     0.00000813    -0.00071870
N        -0.03754866    -0.03673269     1.30886955    -0.00005540     0.00006623     0.00065205
H         0.93759849     0.02545853    -0.57346513     0.00006001    -0.00016352    -0.00089799
H         0.77232229    -0.19000146     1.85822665    -0.00003062    -0.00040726     0.00109134
H        -0.94635381    -0.15387449     1.86348076     0.00102757    -0.00055481    -0.00043313
H        -0.97952995     0.13446300    -0.53508045     0.00027466     0.00010823    -0.00025732
     6
  Step:    14            Position(A)                                  Velocity(au)
C        -0.04011852     0.00210409     0.00356299    -0.00004019     0.00000550    -0.00074188
N        -0.03790631    -0.03636065     1.31251925    -0.00007350     0.00006936     0.00067368
H         0.93780064     0.02457869    -0.57839567     0.00001290    -0.00015712    -0.00089598
H         0.77264601    -0.19235329     1.86455776     0.00014258    -0.00044792     0.00120858
H        -0.94040582    -0.15691912     1.86091492     0.00112480    -0.00055544    -0.00049304
H        -0.97816105     0.13511832    -0.53671961     0.00022005     0.00013096    -0.00034091
     6
  Step:    15            Position(A)                                  Velocity(au)
C        -0.04031893     0.00212673    -0.00056586    -0.00003228     0.00000260    -0.00075540
N        -0.03835608    -0.03597074     1.31627005    -0.00008834     0.00007247     0.00068651
H         0.93774017     0.02373253    -0.58330766    -0.00003523    -0.00015071    -0.00088821
H         0.77388853    -0.19492194     1.87150319     0.00030037    -0.00048394     0.00130853
H        -0.93399770    -0.15997611     1.85806458     0.00118918    -0.00055768    -0.00053375
H        -0.97711262     0.13590166    -0.53882546     0.00015805     0.00015421    -0.00042518
     6
  Step:    16            Position(A)                                  Velocity(au)
C        -0.04047379     0.00213273    -0.00475034    -0.00002361    -0.00000053    -0.00075927
N        -0.03887853    -0.03556312     1.32007447    -0.00009930     0.00007549     0.00069059
H         0.93741292     0.02292009    -0.58817066    -0.00008348    -0.00014430    -0.00087488
H         0.77595161    -0.19767916     1.87895846     0.00043710    -0.00051396     0.00138697
H        -0.92731862    -0.16305650     1.85504083     0.00121710    -0.00056210    -0.00055303
H        -0.97642168     0.13681545    -0.54139878     0.00009057     0.00017758    -0.00050818
     6
  Step:    17            Position(A)                                  Velocity(au)
C        -0.04057931     0.00212091    -0.00893860    -0.00001441    -0.00000383    -0.00075383
N        -0.03945106    -0.03513831     1.32388541    -0.00010591     0.00007837     0.00068619
H         0.93681959     0.02214132    -0.59295531    -0.00013095    -0.00013792    -0.00085638
H         0.77870857    -0.20058963     1.88679790     0.00054837    -0.00053693     0.00144088
H        -0.92057628    -0.16617457     1.85196605     0.00120621    -0.00056929    -0.00054944
H        -0.97611390     0.13785990    -0.54442938     0.00001989     0.00020065    -0.00058791
     6
  Step:    18            Position(A)                                  Velocity(au)
C        -0.04063306     0.00209039    -0.01308080    -0.00000495    -0.00000725    -0.00073973
N        -0.04004891    -0.03469705     1.32765746    -0.00010794     0.00008109     0.00067387
H         0.93596584     0.02139592    -0.59763437    -0.00017676    -0.00013167    -0.00083330
H         0.78201161    -0.20361268     1.89488138     0.00063134    -0.00055216     0.00146860
H        -0.91398896    -0.16934768     1.84896905     0.00115588    -0.00057983    -0.00052256
H        -0.97620186     0.13903284    -0.54789570    -0.00005149     0.00022302    -0.00066241
     6
  Step:    19            Position(A)                                  Velocity(au)
C        -0.04063408     0.00204067    -0.01713084     0.00000451    -0.00001071    -0.00071794
N        -0.04064647    -0.03424022     1.33134829    -0.00010540     0.00008365     0.00065446
H         0.93486209     0.02068316    -0.60218381    -0.00022013    -0.00012563    -0.00080646
H         0.78570042    -0.20670456     1.90306210     0.00068481    -0.00055943     0.00147003
H        -0.90777536    -0.17259601     1.84617893     0.00106740    -0.00059423    -0.00047314
H        -0.97668408     0.14032977    -0.55176535    -0.00012104     0.00024433    -0.00072998
     6
  Step:    20            Position(A)                                  Velocity(au)
C        -0.04058300     0.00197157    -0.02104805     0.00001369    -0.00001416    -0.00068968
N        -0.04121863    -0.03376870     1.33492022    -0.00009855     0.00008608     0.00062901
H         0.93352292     0.02000174    -0.60658399    -0.00026046    -0.00011995    -0.00077685
H         0.78961124    -0.20982087     1.91119483     0.00070926    -0.00055898     0.00144649
H        -0.90214357    -0.17594203     1.84371849     0.00094408    -0.00061287    -0.00040310
H        -0.97754511     0.14174421    -0.55599659    -0.00018643     0.00026430    -0.00078931
     6
  Step:    21            Position(A)                                  Velocity(au)
C        -0.04048186     0.00188327    -0.02479845     0.00002236    -0.00001755    -0.00065632
N        -0.04174218    -0.03328325     1.33834149    -0.00008787     0.00008840     0.00059878
H         0.93196632     0.01934963    -0.61082062    -0.00029731    -0.00011477    -0.00074558
H         0.79358574    -0.21291918     1.91914372     0.00070651    -0.00055144     0.00140050
H        -0.89727932    -0.17940969     1.84169736     0.00079110    -0.00063601    -0.00031549
H        -0.97875671     0.14326818    -0.56054066    -0.00024563     0.00028279    -0.00083960
     6
  Step:    22            Position(A)                                  Velocity(au)
C        -0.04033405     0.00177619    -0.02835561     0.00003016    -0.00001747    -0.00066792
N        -0.04219697    -0.03278442     1.34158720    -0.00007468     0.00008967     0.00060379
H         0.93021264     0.01872391    -0.61488545    -0.00036136    -0.00016257    -0.00067648
H         0.79747761    -0.21596071     1.92678819     0.00066867    -0.00049144     0.00132346
H        -0.89333536    -0.18302352     1.84020577     0.00063678    -0.00071223    -0.00024118
H        -0.98028000     0.14489289    -0.56534480    -0.00026562     0.00032830    -0.00083734
     6
  Step:    23            Position(A)                                  Velocity(au)
C        -0.04014571     0.00168856    -0.03224347     0.00003698    -0.00001382    -0.00072517
N        -0.04257461    -0.03228378     1.34507171    -0.00005960     0.00008962     0.00064511
H         0.92793839     0.01753754    -0.61836103    -0.00045044    -0.00025352    -0.00057058
H         0.80103907    -0.21839701     1.93389577     0.00059790    -0.00038962     0.00121536
H        -0.89018136    -0.18734857     1.83900906     0.00048730    -0.00082778    -0.00018383
H        -0.98171747     0.14692758    -0.56987410    -0.00024721     0.00039020    -0.00078440
     6
  Step:    24            Position(A)                                  Velocity(au)
C        -0.03992149     0.00162199    -0.03644576     0.00004283    -0.00001002    -0.00077794
N        -0.04286183    -0.03178461     1.34878414    -0.00004252     0.00008920     0.00068314
H         0.92518747     0.01589561    -0.62125099    -0.00053012    -0.00032947    -0.00046783
H         0.80414792    -0.22030737     1.94034692     0.00050907    -0.00029900     0.00109085
H        -0.88789897    -0.19225842     1.83815494     0.00032560    -0.00092611    -0.00011898
H        -0.98303797     0.14924601    -0.57409568    -0.00022404     0.00043433    -0.00072714
     6
  Step:    25            Position(A)                                  Velocity(au)
C        -0.03966756     0.00157671    -0.04092795     0.00004753    -0.00000623    -0.00082429
N        -0.04304927    -0.03128798     1.35269785    -0.00002417     0.00008870     0.00071626
H         0.92202046     0.01385958    -0.62358356    -0.00059810    -0.00039606    -0.00037163
H         0.80672204    -0.22173484     1.94607337     0.00040852    -0.00021526     0.00095745
H        -0.88654656    -0.19768711     1.83768081     0.00015653    -0.00101473    -0.00004905
H        -0.98421854     0.15177616    -0.57799151    -0.00019746     0.00046767    -0.00066780
     6
  Step:    26            Position(A)                                  Velocity(au)
C        -0.03939066     0.00155242    -0.04565126     0.00005100    -0.00000251    -0.00086392
N        -0.04313174    -0.03079407     1.35678314    -0.00000527     0.00008822     0.00074433
H         0.91850798     0.01147252    -0.62540132    -0.00065291    -0.00045600    -0.00028415
H         0.80871019    -0.22271140     1.95103951     0.00030135    -0.00013699     0.00082030
H        -0.88615085    -0.20359065     1.83760719    -0.00001424    -0.00109667     0.00002290
H        -0.98524318     0.15446887    -0.58155354    -0.00016868     0.00049358    -0.00060796
     6
  Step:    27            Position(A)                                  Velocity(au)
C        -0.03909789     0.00154864    -0.05057712     0.00005321     0.00000110    -0.00089705
N        -0.04310814    -0.03030261     1.36101128     0.00001348     0.00008784     0.00076768
H         0.91472805     0.00876655    -0.62675721    -0.00069346    -0.00051102    -0.00020687
H         0.81008780    -0.22326491     1.95523532     0.00019190    -0.00006357     0.00068343
H        -0.88670563    -0.20993590     1.83793663    -0.00018104    -0.00117346     0.00009376
H        -0.98610250     0.15728897    -0.58478188    -0.00013878     0.00051419    -0.00054889
     6
  Step:    28            Position(A)                                  Velocity(au)
C        -0.03879642     0.00156476    -0.05566896     0.00005415     0.00000462    -0.00092407
N        -0.04298120    -0.02981313     1.36535606     0.00003145     0.00008757     0.00078676
H         0.91076389     0.00576577    -0.62771155    -0.00071889    -0.00056246    -0.00014089
H         0.81085325    -0.22342130     1.95867159     0.00008394     0.00000524     0.00055006
H        -0.88817262    -0.21669512     1.83865424    -0.00033850    -0.00124576     0.00016059
H        -0.98679297     0.16021101    -0.58768326    -0.00010872     0.00053104    -0.00049159
     6
  Step:    29            Position(A)                                  Velocity(au)
C        -0.03849344     0.00160020    -0.06089288     0.00005380     0.00000804    -0.00094539
N        -0.04275709    -0.02932507     1.36979421     0.00004806     0.00008740     0.00080204
H         0.90670285     0.00248765    -0.62833003    -0.00072845    -0.00061136    -0.00008698
H         0.81102489    -0.22320643     1.96137585    -0.00001924     0.00006944     0.00042280
H        -0.89048445    -0.22384281     1.83972939    -0.00048180    -0.00131370     0.00022083
H        -0.98731622     0.16321718    -0.59026965    -0.00007936     0.00054530    -0.00043679
     6
  Step:    30            Position(A)                                  Velocity(au)
C        -0.03819615     0.00165445    -0.06621751     0.00005217     0.00001137    -0.00096131
N        -0.04244498    -0.02883796     1.37430516     0.00006280     0.00008730     0.00081385
H         0.90263594    -0.00105574    -0.62868208    -0.00072150    -0.00065847    -0.00004564
H         0.81063855    -0.22264651     1.96338919    -0.00011472     0.00012898     0.00030380
H        -0.89354851    -0.23135326     1.84111821    -0.00060672    -0.00137691     0.00027230
H        -0.98767845     0.16629535    -0.59255692    -0.00005141     0.00055774    -0.00038505
     6
  Step:    31            Position(A)                                  Velocity(au)
C        -0.03791165     0.00172702    -0.07161337     0.00004928     0.00001463    -0.00097200
N        -0.04205671    -0.02835154     1.37887029     0.00007524     0.00008721     0.00082239
H         0.89865665    -0.00485557    -0.62883901    -0.00069759    -0.00070423    -0.00001710
H         0.80974549    -0.22176810     1.96476387    -0.00019983     0.00018370     0.00019489
H        -0.89725062    -0.23919805     1.84276605    -0.00070974    -0.00143464     0.00031330
H        -0.98788960     0.16943713    -0.59456377    -0.00002553     0.00056891    -0.00033678
     6
  Step:    32            Position(A)                                  Velocity(au)
C        -0.03764686     0.00181747    -0.07705217     0.00004516     0.00001781    -0.00097757
N        -0.04160634    -0.02786582     1.38347206     0.00008498     0.00008709     0.00082771
H         0.89486005    -0.00890556    -0.62887273    -0.00065653    -0.00074895    -0.00000137
H         0.80841113    -0.22059885     1.96556159    -0.00027206     0.00023336     0.00009768
H        -0.90145978    -0.24734484     1.84461044    -0.00078815    -0.00148601     0.00034263
H        -0.98796306     0.17263683    -0.59631095    -0.00000230     0.00057915    -0.00029229
     6
  Step:    33            Position(A)                                  Velocity(au)
C        -0.03740847     0.00192543    -0.08250628     0.00003987     0.00002092    -0.00097805
N        -0.04110974    -0.02738111     1.38809332     0.00009175     0.00008687     0.00082980
H         0.89134102    -0.01320098    -0.62885431    -0.00059852    -0.00079278     0.00000182
H         0.80671396    -0.21916781     1.96585233    -0.00032914     0.00027764     0.00001361
H        -0.90603289    -0.25575646     1.84658396    -0.00084015    -0.00153005     0.00035965
H        -0.98791522     0.17589054    -0.59782071     0.00001776     0.00058870    -0.00025183
     6
  Step:    34            Position(A)                                  Velocity(au)
C        -0.03720267     0.00205052    -0.08794841     0.00003352     0.00002396    -0.00097349
N        -0.04058419    -0.02689800     1.39271674     0.00009532     0.00008651     0.00082861
H         0.88819204    -0.01773783    -0.62885245    -0.00052428    -0.00083579    -0.00000695
H         0.80474422    -0.21750573     1.96571323    -0.00036907     0.00031621    -0.00005609
H        -0.91081976    -0.26439089     1.84861719    -0.00086487    -0.00156592     0.00036420
H        -0.98776515     0.17919539    -0.59911652     0.00003420     0.00059769    -0.00021562
     6
  Step:    35            Position(A)                                  Velocity(au)
C        -0.03703504     0.00219239    -0.09335173     0.00002625     0.00002694    -0.00096405
N        -0.04004779    -0.02641728     1.39732467     0.00009560     0.00008598     0.00082411
H         0.88550013    -0.02251228    -0.62893179    -0.00043517    -0.00087796    -0.00002678
H         0.80260221    -0.21564496     1.96522741    -0.00039026     0.00034881    -0.00011047
H        -0.91566823    -0.27320194     1.85064143    -0.00086243    -0.00159299     0.00035667
H        -0.98753417     0.18254921    -0.60022285     0.00004665     0.00060624    -0.00018384
     6
  Step:    36            Position(A)                                  Velocity(au)
C        -0.03691021     0.00235067    -0.09869026     0.00001825     0.00002984    -0.00094996
N        -0.03951899    -0.02593992     1.40189930     0.00009258     0.00008527     0.00081632
H         0.88334316    -0.02752037    -0.62915083    -0.00033323    -0.00091926    -0.00005637
H         0.80039574    -0.21361914     1.96448230    -0.00039165     0.00037526    -0.00014893
H        -0.92042925    -0.28214058     1.85259131    -0.00083385    -0.00161096     0.00033786
H        -0.98724537     0.18595031    -0.60116491     0.00005483     0.00061445    -0.00015662
     6
  Step:    37            Position(A)                                  Velocity(au)
C        -0.03683166     0.00252494    -0.10393947     0.00000975     0.00003265    -0.00093159
N        -0.03901598    -0.02546692     1.40642291     0.00008636     0.00008437     0.00080535
H         0.88178617    -0.03275784    -0.62956006    -0.00022110    -0.00095967    -0.00009412
H         0.79823710    -0.21146258     1.96356752    -0.00037278     0.00039551    -0.00017129
H        -0.92496181    -0.29115673     1.85440704    -0.00078103    -0.00161988     0.00030899
H        -0.98692304     0.18939752    -0.60196846     0.00005860     0.00062244    -0.00013405
     6
  Step:    38            Position(A)                                  Velocity(au)
C        -0.03680148     0.00271475    -0.10907690     0.00000102     0.00003538    -0.00090942
N        -0.03855611    -0.02499925     1.41087838     0.00007717     0.00008330     0.00079138
H         0.88087809    -0.03822003    -0.63020022    -0.00010194    -0.00099916    -0.00013816
H         0.79623947    -0.20920943     1.96257250    -0.00033395     0.00040974    -0.00017788
H        -0.92913724    -0.30020113     1.85603633    -0.00070656    -0.00162018     0.00027153
H        -0.98659203     0.19289011    -0.60265945     0.00005793     0.00063034    -0.00011612
     6
  Step:    39            Position(A)                                  Velocity(au)
C        -0.03682023     0.00291958    -0.11408274    -0.00000765     0.00003801    -0.00088399
N        -0.03815531    -0.02453780     1.41524964     0.00006529     0.00008209     0.00077469
H         0.88064916    -0.04390203    -0.63110104     0.00002073    -0.00103773    -0.00018644
H         0.79451241    -0.20689250     1.96158349    -0.00027621     0.00041830    -0.00016956
H        -0.93284249    -0.30922751     1.85743553    -0.00061348    -0.00161260     0.00022711
H        -0.98627694     0.19642809    -0.60326357     0.00005293     0.00063830    -0.00010274
     6
  Step:    40            Position(A)                                  Velocity(au)
C        -0.03688688     0.00313887    -0.11894022    -0.00001600     0.00004053    -0.00085592
N        -0.03782766    -0.02408332     1.41952211     0.00005110     0.00008076     0.00075560
H         0.88110935    -0.04979865    -0.63228049     0.00014324    -0.00107533    -0.00023685
H         0.79315764    -0.20454220     1.96068063    -0.00020140     0.00042170    -0.00014770
H        -0.93598228    -0.31819402     1.85857034    -0.00050513    -0.00159810     0.00017744
H        -0.98600143     0.20001212    -0.60380584     0.00004386     0.00064646    -0.00009376
     6
  Step:    41            Position(A)                                  Velocity(au)
C        -0.03699882     0.00337198    -0.12363591    -0.00002375     0.00004294    -0.00082580
N        -0.03758495    -0.02363642     1.42368310     0.00003504     0.00007934     0.00073447
H         0.88224791    -0.05590418    -0.63374462     0.00026196    -0.00111194    -0.00028732
H         0.79226451    -0.20218573     1.95993496    -0.00011205     0.00042068    -0.00011414
H        -0.93848042    -0.32706450     1.85941600    -0.00038497    -0.00157785     0.00012421
H        -0.98578743     0.20364347    -0.60431006     0.00003106     0.00065495    -0.00008893
     6
  Step:    42            Position(A)                                  Velocity(au)
C        -0.03715198     0.00361821    -0.12815966    -0.00003064     0.00004520    -0.00079422
N        -0.03743642    -0.02319757     1.42772193     0.00001759     0.00007785     0.00071169
H         0.88403396    -0.06221261    -0.63548817     0.00037346    -0.00114748    -0.00033590
H         0.79190670    -0.19984563     1.95940631    -0.00001124     0.00041611    -0.00007108
H        -0.94028022    -0.33580950     1.85995702    -0.00025645    -0.00155308     0.00006902
H        -0.98565468     0.20732414    -0.60479862     0.00001499     0.00066389    -0.00008794
     6
  Step:    43            Position(A)                                  Velocity(au)
C        -0.03734100     0.00387675    -0.13250443    -0.00003649     0.00004733    -0.00076171
N        -0.03738856    -0.02276708     1.43163005    -0.00000077     0.00007633     0.00068763
H         0.88641809    -0.06871735    -0.63749544     0.00047467    -0.00118186    -0.00038089
H         0.79213897    -0.19753936     1.95914123     0.00009744     0.00040893    -0.00002101
H        -0.94134406    -0.34440670     1.86018667    -0.00012288    -0.00152510     0.00001336
H        -0.98562000     0.21105664    -0.60529202    -0.00000378     0.00067336    -0.00009043
     6
  Step:    44            Position(A)                                  Velocity(au)
C        -0.03755945     0.00414673    -0.13666607    -0.00004111     0.00004929    -0.00072873
N        -0.03744498    -0.02234517     1.43540105    -0.00001951     0.00007478     0.00066265
H         0.88933478    -0.07541103    -0.63974177     0.00056298    -0.00121492    -0.00042083
H         0.79299490    -0.19527893     1.95917172     0.00021012     0.00040013     0.00003344
H        -0.94165251    -0.35284104     1.86010624     0.00001262    -0.00149518    -0.00004141
H        -0.98569688     0.21484384    -0.60580853    -0.00002462     0.00068339    -0.00009599
     6