|===============================================================================
|
|  DFTB+ release 20.1
|
|  Copyright (C) 2006 - 2020  DFTB+ developers group
|
|===============================================================================
|
|  When publishing results obtained with DFTB+, please cite the following
|  reference:
|
|  * DFTB+, a software package for efficient approximate density functional
|    theory based atomistic simulations, J. Chem. Phys. 152, 124101 (2020).
|    [doi: 10.1063/1.5143190]
|
|  You should also cite additional publications crediting the parametrization
|  data you use. Please consult the documentation of the SK-files for the
|  references.
|
|===============================================================================

Reading input file 'dftb_in.hsd'
Parser version: 8

--------------------------------------------------------------------------------
Reading SK-files:
Done.


Processed input in HSD format written to 'dftb_pin.hsd'

Starting initialization...
--------------------------------------------------------------------------------
OpenMP threads:              1
Chosen random seed:          507635374
Mode:                        Static calculation
Self consistent charges:     Yes
SCC-tolerance:                 0.100000E-05
Max. scc iterations:                   1000
Shell resolved Hubbard:      No
Spin polarisation:           No
Nr. of up electrons:             6.000000
Nr. of down electrons:           6.000000
Periodic boundaries:         No
Electronic solver:           Relatively robust
Maximal SCC-cycles:                    1000
Initial charges:             Set automatically (system chrg:   0.100E+01)
Included shells:             C:  s, p
                             N:  s, p
                             H:  s
Spin coupling constants:     C   1(s)-1(s):  -0.455900E-01
                             C   1(s)-2(p):  -0.293000E-01
                             C   2(p)-1(s):  -0.293000E-01
                             C   2(p)-2(p):  -0.275500E-01
                             N   1(s)-1(s):  -0.468700E-01
                             N   1(s)-2(p):  -0.317000E-01
                             N   2(p)-1(s):  -0.317000E-01
                             N   2(p)-2(p):  -0.307200E-01
                             H   1(s)-1(s):  -0.792500E-01
Range separated hybrid:      Yes
  Screening parameter omega:   0.300000E+00
  Range separated algorithm:   MatrixBased
Extra options:
                             Mulliken analysis
                             Force calculation
Force type                   original
                             Eigenvector printing


REKS Calcuation:             Yes
SSR(2,2) Calcuation:         Yes
Energy Functional:           (PPS+OSS)/2
Number of Core Orbitals:                  5
Number of Active Orbitals:                2
Number of Basis:                         12
Number of States:                         2
State-Averaging Weight:          0.500000
                                 0.500000
State of Interest:                        1
Initial Guess:               Diagonalize H0 matrix
Newton-Raphson for FON opt:  Yes
NR max. Iterations:                      50
Level Shifting:              Yes
Shift Value:                     0.300000
W Scale Factor:              C  =    3.000000
                             N  =    3.000000
                             H  =    3.000000
Transition Dipole:           No
Gradient of Microstate:      No
CP-REKS Solver:              Preconditioned Conjugate-Gradient
CG max. Iterations:                     100
CG Tolerance:                  0.100000E-07
Memory for A and Hxc:        Direct Updating Without Saving
Non-Adiabatic Coupling:      Yes

--------------------------------------------------------------------------------

***  Geometry step: 0

  iSCC       reks energy        Diff energy         x_a       SCC error   
    1       -6.2636428531       0.0000000000     0.998381    1.17732761
    2       -6.2775361649      -0.0138933118     0.999423    0.11242473
    3       -6.2813789375      -0.0038427726     0.999703    0.05383030
    4       -6.2829554799      -0.0015765423     0.999810    0.02762409
    5       -6.2837329834      -0.0007775036     0.999858    0.01508115
    6       -6.2841939473      -0.0004609639     0.999882    0.00847814
    7       -6.2845111728      -0.0003172254     0.999895    0.00559594
    8       -6.2847501684      -0.0002389956     0.999902    0.00533621
    9       -6.2849386625      -0.0001884942     0.999907    0.00496088
   10       -6.2850903223      -0.0001516598     0.999911    0.00454169
   11       -6.2852131221      -0.0001227998     0.999913    0.00411468
   12       -6.2853124883      -0.0000993662     0.999914    0.00369878
   13       -6.2853925577      -0.0000800694     0.999916    0.00330436
   14       -6.2854567036      -0.0000641458     0.999916    0.00296697
   15       -6.2855077638      -0.0000510603     0.999917    0.00272116
   16       -6.2855481469      -0.0000403831     0.999918    0.00247660
   17       -6.2855798895      -0.0000317426     0.999918    0.00223931
   18       -6.2856046983      -0.0000248088     0.999918    0.00201346
   19       -6.2856239875      -0.0000192892     0.999919    0.00180169
   20       -6.2856389153      -0.0000149278     0.999919    0.00160547
   21       -6.2856504201      -0.0000115048     0.999919    0.00142546
   22       -6.2856592543      -0.0000088342     0.999919    0.00126165
   23       -6.2856660160      -0.0000067617     0.999919    0.00111359
   24       -6.2856711768      -0.0000051608     0.999919    0.00098055
   25       -6.2856751061      -0.0000039292     0.999919    0.00086158
   26       -6.2856780912      -0.0000029851     0.999919    0.00075565
   27       -6.2856803547      -0.0000022636     0.999919    0.00066166
   28       -6.2856820684      -0.0000017136     0.999919    0.00057854
   29       -6.2856833638      -0.0000012955     0.999919    0.00050523
   30       -6.2856843419      -0.0000009781     0.999919    0.00044072
   31       -6.2856850796      -0.0000007377     0.999919    0.00038407
   32       -6.2856856355      -0.0000005559     0.999919    0.00033442
   33       -6.2856860540      -0.0000004185     0.999919    0.00029096
   34       -6.2856863689      -0.0000003149     0.999919    0.00025299
   35       -6.2856866056      -0.0000002368     0.999919    0.00021984
   36       -6.2856867836      -0.0000001779     0.999919    0.00019094
   37       -6.2856869172      -0.0000001336     0.999919    0.00016577
   38       -6.2856870175      -0.0000001003     0.999919    0.00014385
   39       -6.2856870929      -0.0000000753     0.999919    0.00012479
   40       -6.2856871494      -0.0000000565     0.999919    0.00010823
   41       -6.2856871918      -0.0000000424     0.999919    0.00009383
   42       -6.2856872236      -0.0000000318     0.999919    0.00008133
   43       -6.2856872474      -0.0000000238     0.999919    0.00007049
   44       -6.2856872653      -0.0000000179     0.999919    0.00006107
   45       -6.2856872787      -0.0000000134     0.999919    0.00005291
   46       -6.2856872887      -0.0000000100     0.999919    0.00004583
   47       -6.2856872962      -0.0000000075     0.999919    0.00003969
   48       -6.2856873019      -0.0000000056     0.999919    0.00003438
   49       -6.2856873061      -0.0000000042     0.999919    0.00002977
   50       -6.2856873093      -0.0000000032     0.999919    0.00002577
   51       -6.2856873116      -0.0000000024     0.999919    0.00002231
   52       -6.2856873134      -0.0000000018     0.999919    0.00001932
   53       -6.2856873148      -0.0000000013     0.999919    0.00001672
   54       -6.2856873157      -0.0000000010     0.999919    0.00001448
   55       -6.2856873165      -0.0000000007     0.999919    0.00001253
   56       -6.2856873171      -0.0000000006     0.999919    0.00001085
   57       -6.2856873175      -0.0000000004     0.999919    0.00000939
   58       -6.2856873178      -0.0000000003     0.999919    0.00000813
   59       -6.2856873180      -0.0000000002     0.999919    0.00000703
   60       -6.2856873182      -0.0000000002     0.999919    0.00000609
   61       -6.2856873183      -0.0000000001     0.999919    0.00000527
   62       -6.2856873184      -0.0000000001     0.999919    0.00000456
   63       -6.2856873185      -0.0000000001     0.999919    0.00000395
   64       -6.2856873186      -0.0000000001     0.999919    0.00000342
   65       -6.2856873186      -0.0000000000     0.999919    0.00000296
   66       -6.2856873186      -0.0000000000     0.999919    0.00000256
   67       -6.2856873187      -0.0000000000     0.999919    0.00000221
   68       -6.2856873187      -0.0000000000     0.999919    0.00000192
   69       -6.2856873187      -0.0000000000     0.999919    0.00000166
   70       -6.2856873187      -0.0000000000     0.999919    0.00000143
   71       -6.2856873187      -0.0000000000     0.999919    0.00000124
   72       -6.2856873187      -0.0000000000     0.999919    0.00000107
   73       -6.2856873187      -0.0000000000     0.999919    0.00000093
  
--------------------------------------------------
 Final SA-REKS(2,2) energy:      -6.28568732
  
 State     Energy      FON(1)    FON(2)   Spin
  PPS   -6.40753095   1.999838  0.000162  0.00
  OSS   -6.16384368   1.000000  1.000000  0.00
 Trip   -6.24678634   1.000000  1.000000  1.00
--------------------------------------------------

 Lagrangian Wab:   0.00918130  0.00918099

--------------------------------------------------
 SSR: 2SI-2SA-REKS(2,2) Hamiltonian matrix
               PPS           OSS
   PPS    -6.40753095    0.01286700
   OSS     0.01286700   -6.16384368
--------------------------------------------------

----------------------------------------------------------------
 SSR: 2SI-2SA-REKS(2,2) states
                    E_n       C_{PPS}    C_{OSS}
 SSR state  1   -6.40820846  -0.998617   0.052582
 SSR state  2   -6.16316617  -0.052582  -0.998617
----------------------------------------------------------------

 unrelaxed SSR FONs for S0:  1.997074  0.002926

Total Energy:                       -6.4082084634 H         -174.3762 eV
Extrapolated to 0:                  -6.4082084634 H         -174.3762 eV

----------------------------------------------------------------------------------
 Solving CP-REKS equation for  1 state vector...
----------------------------------------------------------------------------------
  CG solver: Constructing Y initial guess
  CG solver: Iteration    1    eps =    0.000276682768
  CG solver: Iteration    2    eps =    0.000042531120
  CG solver: Iteration    3    eps =    0.000007535363
  CG solver: Iteration    4    eps =    0.000001476806
  CG solver: Iteration    5    eps =    0.000000028219
  CG solver: Iteration    6    eps =    0.000000009514
  Convergence reached in CG solver after    6 iterations
  CG solver: Calculating converged R, Z, Q2 matrix
----------------------------------------------------------------------------------

----------------------------------------------------------------------------------
 Solving CP-REKS equation for SI between  1 and  2 state vectors...
----------------------------------------------------------------------------------
  CG solver: Constructing Y initial guess
  CG solver: Iteration    1    eps =    0.005539586057
  CG solver: Iteration    2    eps =    0.009480741949
  CG solver: Iteration    3    eps =    0.000977078169
  CG solver: Iteration    4    eps =    0.000011465553
  CG solver: Iteration    5    eps =    0.000001651050
  CG solver: Iteration    6    eps =    0.000000030859
  CG solver: Iteration    7    eps =    0.000000000767
  Convergence reached in CG solver after    7 iterations
  CG solver: Calculating converged R, Z, Q2 matrix
----------------------------------------------------------------------------------

--------------------------------------------------
 Gradient Information
--------------------------------------------------
           1 st state (SSR)
     0.00160772     0.00180642    -0.02910441
    -0.00383164     0.00001568     0.02864380
     0.01441927     0.00203360     0.00732291
     0.01732680     0.00161515    -0.00677978
    -0.01495450    -0.00273614    -0.00635385
    -0.01456765    -0.00273470     0.00627133

           2 st state (SSR)
    -0.00204996    -0.00435748     0.08271837
     0.00473464     0.00396918    -0.09550535
    -0.01554818     0.00810514     0.02123598
    -0.01520629    -0.00227250    -0.01453065
     0.01268910     0.00399451    -0.01405534
     0.01538068    -0.00943886     0.02013699
--------------------------------------------------
 Coupling Information
--------------------------------------------------
 between  1 and  2 states
--------------------------------------------------
 g vector - difference gradient
     0.00189063     0.00332435    -0.06119699
    -0.00456237    -0.00210110     0.06648387
     0.01709344    -0.00233498    -0.00656536
     0.01870163     0.00157058     0.00392585
    -0.01609584    -0.00310096     0.00398667
    -0.01702750     0.00264212    -0.00663405

 h vector - derivative coupling
     0.00048884     0.00213311    -0.04710785
    -0.00241859    -0.00107342     0.03848519
     0.01918890     0.00679593     0.00407057
     0.02220247    -0.00363682     0.00027338
    -0.02080612     0.00268062     0.00108443
    -0.01865550    -0.00689943     0.00319429

 G vector - GDV
     0.00182884     0.00308195    -0.05591139
    -0.00428314    -0.00197675     0.06207457
     0.01498372    -0.00303577    -0.00695654
     0.01626654     0.00194383     0.00387544
    -0.01382180    -0.00336533     0.00385074
    -0.01497416     0.00335208    -0.00693283

 H vector - DCV - non-adiabatic coupling
     0.00279418     0.01008168    -0.21740811
    -0.01177083    -0.00525679     0.18468004
     0.08520128     0.02657965     0.01370609
     0.09812069    -0.01408644     0.00279197
    -0.09133703     0.00954995     0.00610961
    -0.08300830    -0.02686805     0.01012040
--------------------------------------------------


--------------------------------------------------------------------------------
DFTB+ running times                          cpu [s]             wall clock [s]
--------------------------------------------------------------------------------
SCC                                    +     0.03  ( 74.6%)      0.04  ( 63.6%)
Post-SCC processing                    +     0.01  ( 21.9%)      0.01  ( 18.2%)
--------------------------------------------------------------------------------
Missing                                +     0.00  (  3.6%)      0.01  ( 18.2%)
Total                                  =     0.04  (100.0%)      0.05  (100.0%)
--------------------------------------------------------------------------------
