|===============================================================================
|
|  DFTB+ release 20.1
|
|  Copyright (C) 2006 - 2020  DFTB+ developers group
|
|===============================================================================
|
|  When publishing results obtained with DFTB+, please cite the following
|  reference:
|
|  * DFTB+, a software package for efficient approximate density functional
|    theory based atomistic simulations, J. Chem. Phys. 152, 124101 (2020).
|    [doi: 10.1063/1.5143190]
|
|  You should also cite additional publications crediting the parametrization
|  data you use. Please consult the documentation of the SK-files for the
|  references.
|
|===============================================================================

Reading input file 'dftb_in.hsd'
Parser version: 8

--------------------------------------------------------------------------------
Reading SK-files:
Done.


Processed input in HSD format written to 'dftb_pin.hsd'

Starting initialization...
--------------------------------------------------------------------------------
OpenMP threads:              1
Chosen random seed:          498015707
Mode:                        Static calculation
Self consistent charges:     Yes
SCC-tolerance:                 0.100000E-05
Max. scc iterations:                   1000
Shell resolved Hubbard:      No
Spin polarisation:           No
Nr. of up electrons:            16.000000
Nr. of down electrons:          16.000000
Periodic boundaries:         No
Electronic solver:           Relatively robust
Maximal SCC-cycles:                    1000
Initial charges:             Set automatically (system chrg:   0.100E+01)
Included shells:             C:  s, p
                             H:  s
                             N:  s, p
Spin coupling constants:     C   1(s)-1(s):  -0.455900E-01
                             C   1(s)-2(p):  -0.293000E-01
                             C   2(p)-1(s):  -0.293000E-01
                             C   2(p)-2(p):  -0.275500E-01
                             H   1(s)-1(s):  -0.792500E-01
                             N   1(s)-1(s):  -0.468700E-01
                             N   1(s)-2(p):  -0.317000E-01
                             N   2(p)-1(s):  -0.317000E-01
                             N   2(p)-2(p):  -0.307200E-01
Range separated hybrid:      Yes
  Screening parameter omega:   0.300000E+00
  Range separated algorithm:   MatrixBased
Extra options:
                             Mulliken analysis
                             Force calculation
Force type                   original
                             Eigenvector printing


REKS Calcuation:             Yes
SSR(2,2) Calcuation:         Yes
Energy Functional:           (PPS+OSS)/2
Number of Core Orbitals:                 15
Number of Active Orbitals:                2
Number of Basis:                         32
Number of States:                         2
State-Averaging Weight:          0.500000
                                 0.500000
State of Interest:                        1
Initial Guess:               Diagonalize H0 matrix
Newton-Raphson for FON opt:  Yes
NR max. Iterations:                      50
Level Shifting:              Yes
Shift Value:                     0.300000
W Scale Factor:              C  =    3.200000
                             H  =    3.200000
                             N  =    3.200000
Transition Dipole:           No
Gradient of Microstate:      No
CP-REKS Solver:              Preconditioned Conjugate-Gradient
CG max. Iterations:                     100
CG Tolerance:                  0.100000E-07
Memory for A and Hxc:        Direct Updating Without Saving
Non-Adiabatic Coupling:      Yes

--------------------------------------------------------------------------------

***  Geometry step: 0

  iSCC       reks energy        Diff energy         x_a       SCC error   
    1      -16.4165761617       0.0000000000     0.985518    1.20817794
    2      -16.4381135460      -0.0215373843     0.997958    0.07296078
    3      -16.4427447613      -0.0046312153     0.999247    0.03313034
    4      -16.4444234540      -0.0016786927     0.999576    0.01668298
    5      -16.4451994113      -0.0007759572     0.999710    0.00939016
    6      -16.4456032471      -0.0004038359     0.999778    0.00628576
    7      -16.4458296254      -0.0002263783     0.999817    0.00480538
    8      -16.4459633320      -0.0001337066     0.999841    0.00376891
    9      -16.4460456572      -0.0000823252     0.999856    0.00299884
   10      -16.4460982470      -0.0000525898     0.999867    0.00241071
   11      -16.4461330150      -0.0000347681     0.999875    0.00198142
   12      -16.4461567524      -0.0000237374     0.999881    0.00171685
   13      -16.4461734440      -0.0000166916     0.999885    0.00149040
   14      -16.4461854924      -0.0000120484     0.999888    0.00129664
   15      -16.4461943867      -0.0000088943     0.999891    0.00113073
   16      -16.4462010761      -0.0000066894     0.999893    0.00098846
   17      -16.4462061835      -0.0000051074     0.999894    0.00086857
   18      -16.4462101300      -0.0000039464     0.999896    0.00077512
   19      -16.4462132078      -0.0000030778     0.999897    0.00069197
   20      -16.4462156255      -0.0000024177     0.999898    0.00061799
   21      -16.4462175351      -0.0000019096     0.999899    0.00055213
   22      -16.4462190497      -0.0000015146     0.999899    0.00049347
   23      -16.4462202549      -0.0000012052     0.999900    0.00044121
   24      -16.4462212162      -0.0000009613     0.999900    0.00039462
   25      -16.4462219844      -0.0000007682     0.999901    0.00035305
   26      -16.4462225992      -0.0000006148     0.999901    0.00031595
   27      -16.4462230919      -0.0000004926     0.999902    0.00028282
   28      -16.4462234869      -0.0000003951     0.999902    0.00025322
   29      -16.4462238040      -0.0000003170     0.999902    0.00022677
   30      -16.4462240586      -0.0000002546     0.999902    0.00020311
   31      -16.4462242631      -0.0000002045     0.999903    0.00018196
   32      -16.4462244275      -0.0000001644     0.999903    0.00016303
   33      -16.4462245596      -0.0000001322     0.999903    0.00014609
   34      -16.4462246659      -0.0000001063     0.999903    0.00013093
   35      -16.4462247514      -0.0000000855     0.999903    0.00011735
   36      -16.4462248202      -0.0000000688     0.999903    0.00010519
   37      -16.4462248755      -0.0000000553     0.999903    0.00009430
   38      -16.4462249201      -0.0000000445     0.999903    0.00008454
   39      -16.4462249559      -0.0000000359     0.999904    0.00007580
   40      -16.4462249848      -0.0000000289     0.999904    0.00006797
   41      -16.4462250081      -0.0000000232     0.999904    0.00006095
   42      -16.4462250268      -0.0000000187     0.999904    0.00005466
   43      -16.4462250419      -0.0000000151     0.999904    0.00004902
   44      -16.4462250540      -0.0000000121     0.999904    0.00004396
   45      -16.4462250638      -0.0000000098     0.999904    0.00003943
   46      -16.4462250717      -0.0000000079     0.999904    0.00003537
   47      -16.4462250780      -0.0000000064     0.999904    0.00003172
   48      -16.4462250832      -0.0000000051     0.999904    0.00002846
   49      -16.4462250873      -0.0000000041     0.999904    0.00002553
   50      -16.4462250906      -0.0000000033     0.999904    0.00002290
   51      -16.4462250933      -0.0000000027     0.999904    0.00002054
   52      -16.4462250954      -0.0000000022     0.999904    0.00001843
   53      -16.4462250972      -0.0000000017     0.999904    0.00001654
   54      -16.4462250986      -0.0000000014     0.999904    0.00001484
   55      -16.4462250997      -0.0000000011     0.999904    0.00001331
   56      -16.4462251006      -0.0000000009     0.999904    0.00001194
   57      -16.4462251014      -0.0000000007     0.999904    0.00001072
   58      -16.4462251020      -0.0000000006     0.999904    0.00000962
   59      -16.4462251024      -0.0000000005     0.999904    0.00000863
   60      -16.4462251028      -0.0000000004     0.999904    0.00000774
   61      -16.4462251031      -0.0000000003     0.999904    0.00000695
   62      -16.4462251034      -0.0000000003     0.999904    0.00000624
   63      -16.4462251036      -0.0000000002     0.999904    0.00000560
   64      -16.4462251038      -0.0000000002     0.999904    0.00000502
   65      -16.4462251039      -0.0000000001     0.999904    0.00000451
   66      -16.4462251040      -0.0000000001     0.999904    0.00000405
   67      -16.4462251041      -0.0000000001     0.999904    0.00000363
   68      -16.4462251042      -0.0000000001     0.999904    0.00000326
   69      -16.4462251042      -0.0000000001     0.999904    0.00000293
   70      -16.4462251043      -0.0000000000     0.999904    0.00000263
   71      -16.4462251043      -0.0000000000     0.999904    0.00000236
   72      -16.4462251043      -0.0000000000     0.999904    0.00000212
   73      -16.4462251043      -0.0000000000     0.999904    0.00000190
   74      -16.4462251044      -0.0000000000     0.999904    0.00000170
   75      -16.4462251044      -0.0000000000     0.999904    0.00000153
   76      -16.4462251044      -0.0000000000     0.999904    0.00000137
   77      -16.4462251044      -0.0000000000     0.999904    0.00000123
   78      -16.4462251044      -0.0000000000     0.999904    0.00000111
   79      -16.4462251044      -0.0000000000     0.999904    0.00000099
  
--------------------------------------------------
 Final SA-REKS(2,2) energy:     -16.44622510
  
 State     Energy      FON(1)    FON(2)   Spin
  PPS  -16.50091101   1.999808  0.000192  0.00
  OSS  -16.39153920   1.000000  1.000000  0.00
 Trip  -16.43504429   1.000000  1.000000  1.00
--------------------------------------------------

 Lagrangian Wab:  -0.01516678 -0.01516741

--------------------------------------------------
 SSR: 2SI-2SA-REKS(2,2) Hamiltonian matrix
               PPS           OSS
   PPS   -16.50091101   -0.02123808
   OSS    -0.02123808  -16.39153920
--------------------------------------------------

----------------------------------------------------------------
 SSR: 2SI-2SA-REKS(2,2) states
                    E_n       C_{PPS}    C_{OSS}
 SSR state  1  -16.50489029  -0.982896  -0.184161
 SSR state  2  -16.38755992   0.184161  -0.982896
----------------------------------------------------------------

 unrelaxed SSR FONs for S0:  1.965900  0.034100

Total Energy:                      -16.5048902890 H         -449.1209 eV
Extrapolated to 0:                 -16.5048902890 H         -449.1209 eV

----------------------------------------------------------------------------------
 Solving CP-REKS equation for  1 state vector...
----------------------------------------------------------------------------------
  CG solver: Constructing Y initial guess
  CG solver: Iteration    1    eps =    0.005267041896
  CG solver: Iteration    2    eps =    0.000984215989
  CG solver: Iteration    3    eps =    0.000120074722
  CG solver: Iteration    4    eps =    0.000024585338
  CG solver: Iteration    5    eps =    0.000002358266
  CG solver: Iteration    6    eps =    0.000000788091
  CG solver: Iteration    7    eps =    0.000000077455
  CG solver: Iteration    8    eps =    0.000000015990
  CG solver: Iteration    9    eps =    0.000000003966
  Convergence reached in CG solver after    9 iterations
  CG solver: Calculating converged R, Z, Q2 matrix
----------------------------------------------------------------------------------

----------------------------------------------------------------------------------
 Solving CP-REKS equation for SI between  1 and  2 state vectors...
----------------------------------------------------------------------------------
  CG solver: Constructing Y initial guess
  CG solver: Iteration    1    eps =    0.041393399352
  CG solver: Iteration    2    eps =    0.006028346349
  CG solver: Iteration    3    eps =    0.002373500132
  CG solver: Iteration    4    eps =    0.000191513826
  CG solver: Iteration    5    eps =    0.000047716245
  CG solver: Iteration    6    eps =    0.000009078332
  CG solver: Iteration    7    eps =    0.000000791466
  CG solver: Iteration    8    eps =    0.000000103514
  CG solver: Iteration    9    eps =    0.000000038616
  CG solver: Iteration   10    eps =    0.000000003271
  Convergence reached in CG solver after   10 iterations
  CG solver: Calculating converged R, Z, Q2 matrix
----------------------------------------------------------------------------------

--------------------------------------------------
 Gradient Information
--------------------------------------------------
           1 st state (SSR)
    -0.00362992    -0.02201388     0.02068302
     0.02046869    -0.05491287    -0.02211963
    -0.03057216     0.03097022     0.01157576
     0.01049217    -0.02125462    -0.01985472
    -0.02026896     0.02672956     0.00991214
    -0.04225446     0.01970700    -0.03713998
     0.05616616     0.04764435     0.01309162
     0.00383414     0.00533757     0.01843187
     0.00169691    -0.03234965     0.02898104
    -0.02237014     0.01805941    -0.08185391
    -0.00383117    -0.01516826     0.01175991
     0.01442749    -0.01061899     0.07038501
     0.00853111    -0.00344317     0.00568138
     0.00731014     0.01131333    -0.02953351

           2 st state (SSR)
     0.02271399    -0.01333620     0.01867706
    -0.01975944    -0.08767145     0.00290031
    -0.03056476     0.03058267     0.01026740
     0.01027454    -0.02026192    -0.02108009
    -0.02184857     0.02861984     0.00571222
     0.07343525     0.05222173    -0.00055091
    -0.06677927     0.03199885    -0.00675620
     0.00750380     0.00313906    -0.00159658
     0.00579321    -0.04525311     0.00474283
     0.01967236     0.04584618    -0.04152489
    -0.00201200    -0.02157632     0.00997732
    -0.01512915    -0.01451098     0.04055318
     0.01010226    -0.00391398     0.00587959
     0.00659779     0.01411562    -0.02720122
--------------------------------------------------
 Coupling Information
--------------------------------------------------
 between  1 and  2 states
--------------------------------------------------
 g vector - difference gradient
    -0.01121085    -0.00341749     0.00139971
     0.02115939     0.02002716    -0.01863145
     0.00008982     0.00017688    -0.00023002
     0.00049442    -0.00044332     0.00150181
     0.00107356    -0.00091207     0.00244308
    -0.08971460    -0.02522669    -0.02814282
     0.09851218     0.01728148     0.01435938
    -0.00261141     0.00169183     0.01574118
    -0.00313201     0.01086166     0.01779996
    -0.02002657    -0.02477205    -0.01373658
    -0.00101348     0.00604656     0.00106118
     0.00625556    -0.00139212     0.00634390
    -0.00019295     0.00171792     0.00025922
     0.00031697    -0.00163975    -0.00016854

 h vector - derivative coupling
    -0.00751761    -0.00318532    -0.00083359
     0.00107709    -0.00632399     0.01341826
    -0.00024148     0.00007982     0.00239929
    -0.00097250    -0.00022954    -0.00217461
    -0.00058265    -0.00026225    -0.00049004
     0.07122324     0.02004902     0.02193056
    -0.08385499    -0.02288956    -0.00956150
     0.00165584    -0.00131984    -0.01287000
     0.00240708    -0.01014630    -0.01235691
    -0.00649985     0.02540832    -0.02032941
     0.00009709    -0.00671890    -0.00027042
     0.02471419     0.00895991     0.02486681
    -0.00167313    -0.00377323    -0.00094121
     0.00016770     0.00035185    -0.00278722

 G vector - GDV
    -0.01317196    -0.00433884     0.00100298
     0.02011407     0.01637929    -0.01250997
    -0.00000370     0.00019377     0.00065418
     0.00010881    -0.00049635     0.00061268
     0.00078981    -0.00094514     0.00209996
    -0.05784485    -0.01625737    -0.01829453
     0.06147272     0.00782275     0.00992391
    -0.00183483     0.00109926     0.01001423
    -0.00204815     0.00645173     0.01211911
    -0.02102125    -0.01389339    -0.02016451
    -0.00090959     0.00320403     0.00089130
     0.01477832     0.00194600     0.01491592
    -0.00078557     0.00023540    -0.00009911
     0.00035618    -0.00140115    -0.00116614

 H vector - DCV - non-adiabatic coupling
    -0.02513515    -0.01476217    -0.01094154
    -0.05672981    -0.11203664     0.16409296
    -0.00219568     0.00008842     0.01977167
    -0.00925188    -0.00045576    -0.02191069
    -0.00794150     0.00073066    -0.01143143
     0.84267002     0.23712278     0.26106898
    -0.97017196    -0.23517546    -0.12027023
     0.02121281    -0.01570604    -0.15081926
     0.02878762    -0.11412418    -0.15309513
     0.01015161     0.27829868    -0.11912957
     0.00389845    -0.07203716    -0.00542272
     0.17704849     0.07548030     0.17798850
    -0.01269734    -0.03527825    -0.00827760
     0.00035433     0.00785483    -0.02162396
--------------------------------------------------


--------------------------------------------------------------------------------
DFTB+ running times                          cpu [s]             wall clock [s]
--------------------------------------------------------------------------------
SCC                                    +     0.11  ( 28.9%)      0.11  ( 28.9%)
      Dense to sparse                        0.02  (  5.3%)      0.02  (  5.2%)
      Range separated Hamiltonian            0.01  (  2.6%)      0.01  (  3.1%)
  Density matrix creation                    0.01  (  3.1%)      0.01  (  2.8%)
Post-SCC processing                    +     0.27  ( 70.7%)      0.27  ( 70.0%)
  Force calculation                          0.27  ( 70.6%)      0.27  ( 69.8%)
--------------------------------------------------------------------------------
Missing                                +     0.00  (  0.4%)      0.00  (  1.0%)
Total                                  =     0.38  (100.0%)      0.39  (100.0%)
--------------------------------------------------------------------------------
