     6
  Step:   300            Position(A)                                  Velocity(au)
C        -0.02121770     0.00323829     0.02314639    -0.00006372    -0.00008263     0.00012339
N        -0.04649884    -0.05547461     1.29277567     0.00023076     0.00003160    -0.00012221
H         0.19352919    -0.85884623    -0.61313266    -0.00095129     0.00020553    -0.00070982
H        -0.07492745     0.82418935     1.81883002    -0.00232368    -0.00023368     0.00029763
H        -0.24984412    -0.90129522     1.82759550    -0.00019343     0.00043719     0.00044855
H        -0.18271633     0.99848246    -0.38191706     0.00102093     0.00013655     0.00019165
