     6
  Step:     0            Position(A)                                  Velocity(au)
C        -0.03502227     0.00161767     0.00065133    -0.00002671    -0.00014828     0.00002014
N        -0.04633961    -0.04264609     1.31563152    -0.00026459     0.00016666    -0.00012495
H         0.93243254    -0.01489910    -0.52267475     0.00005803     0.00029028     0.00027886
H         0.84372247    -0.18301600     1.76651017     0.00184327    -0.00064780     0.00076339
H        -0.96247551    -0.05199309     1.86786022     0.00135301    -0.00077454    -0.00002823
H        -0.96533823     0.15347880    -0.50989451     0.00074093     0.00058299     0.00048246
     6
  Step:     1            Position(A)                                  Velocity(au)
C        -0.03515756     0.00080011     0.00072496    -0.00002204    -0.00015081     0.00000679
N        -0.04782712    -0.04172842     1.31500742    -0.00027626     0.00016856    -0.00010225
H         0.93286175    -0.01329212    -0.52136421     0.00009863     0.00029730     0.00020042
H         0.85405432    -0.18663572     1.77103491     0.00190436    -0.00067096     0.00087406
H        -0.95466872    -0.05626780     1.86757454     0.00148847    -0.00078862    -0.00006908
H        -0.96162231     0.15675588    -0.50764817     0.00061033     0.00061699     0.00033469
     6
  Step:     2            Position(A)                                  Velocity(au)
C        -0.03526348    -0.00003244     0.00072563    -0.00001603    -0.00015356    -0.00000655
N        -0.04936237    -0.04080179     1.31451273    -0.00028169     0.00016974    -0.00007777
H         0.93351171    -0.01164607    -0.52048183     0.00013791     0.00030417     0.00012253
H         0.86455956    -0.19035748     1.77607397     0.00190582    -0.00068429     0.00095091
H        -0.94618897    -0.06062205     1.86710433     0.00159526    -0.00080280    -0.00009434
H        -0.95866008     0.16022977    -0.50623236     0.00046667     0.00065387     0.00017981
     6
  Step:     3            Position(A)                                  Velocity(au)
C        -0.03533312    -0.00088112     0.00065326    -0.00000889    -0.00015647    -0.00001990
N        -0.05091127    -0.03986995     1.31415592    -0.00028095     0.00017027    -0.00005207
H         0.93437171    -0.00996183    -0.52002268     0.00017453     0.00031083     0.00004606
H         0.87492063    -0.19412785     1.78144614     0.00185165    -0.00068802     0.00099560
H        -0.93720264    -0.06505745     1.86654159     0.00166977    -0.00081742    -0.00010162
H        -0.95651283     0.16391495    -0.50567949     0.00031430     0.00069295     0.00002073
     6
  Step:     4            Position(A)                                  Velocity(au)
C        -0.03536089    -0.00174677     0.00050765    -0.00000089    -0.00015951    -0.00003327
N        -0.05244046    -0.03893626     1.31394227    -0.00027427     0.00017024    -0.00002574
H         0.93542389    -0.00824059    -0.51997720     0.00020727     0.00031725    -0.00002818
H         0.88484628    -0.19789547     1.78698174     0.00174755    -0.00068272     0.00101072
H        -0.92789495    -0.06957770     1.86599094     0.00170911    -0.00083294    -0.00008888
H        -0.95521663     0.16782171    -0.50600523     0.00015803     0.00073342    -0.00013937
     6
  Step:     5            Position(A)                                  Velocity(au)
C        -0.03534282    -0.00262988     0.00028850     0.00000767    -0.00016262    -0.00004670
N        -0.05391811    -0.03800356     1.31387371    -0.00026200     0.00016976     0.00000061
H         0.93664410    -0.00648379    -0.52033159     0.00023510     0.00032339    -0.00009946
H         0.89407937    -0.20161271     1.79252689     0.00160020    -0.00066922     0.00099946
H        -0.91846527    -0.07418917     1.86556722     0.00171139    -0.00084992    -0.00005459
H        -0.95478031     0.17195564    -0.50720747     0.00000287     0.00077445    -0.00029728
     6
  Step:     6            Position(A)                                  Velocity(au)
C        -0.03527670    -0.00353066    -0.00000464     0.00001646    -0.00016573    -0.00006020
N        -0.05531462    -0.03707401     1.31394894    -0.00024463     0.00016896     0.00002643
H         0.93800289    -0.00469298    -0.52106828     0.00025716     0.00032926    -0.00016719
H         0.90240048    -0.20523683     1.79794576     0.00141671    -0.00064849     0.00096527
H        -0.90912102    -0.07890134     1.86539206     0.00167586    -0.00086896     0.00000206
H        -0.95518518     0.17631738    -0.50926634    -0.00014632     0.00081514    -0.00044986
     6
  Step:     7            Position(A)                                  Velocity(au)
C        -0.03516215    -0.00444899    -0.00037230     0.00002515    -0.00016882    -0.00007380
N        -0.05660316    -0.03614903     1.31416376    -0.00022269     0.00016798     0.00005124
H         0.93946671    -0.00286983    -0.52216663     0.00027285     0.00033484    -0.00023088
H         0.90962928    -0.20873060     1.80312170     0.00120412    -0.00062158     0.00091167
H        -0.90007100    -0.08372692     1.86558982     0.00160308    -0.00089065     0.00008107
H        -0.95638628     0.18090262    -0.51214520    -0.00028503     0.00085463    -0.00059430
     6
  Step:     8            Position(A)                                  Velocity(au)
C        -0.03500053    -0.00538447    -0.00081508     0.00003344    -0.00017181    -0.00008750
N        -0.05776004    -0.03522933     1.31451157    -0.00019681     0.00016696     0.00007467
H         0.94099913    -0.00101605    -0.52360363     0.00028176     0.00034012    -0.00029020
H         0.91562318    -0.21206257     1.80795701     0.00096904    -0.00058953     0.00084204
H        -0.89151721    -0.08868174     1.86628231     0.00149510    -0.00091550     0.00018144
H        -0.95831511     0.18570230    -0.51579247    -0.00040937     0.00089213    -0.00072812
     6
  Step:     9            Position(A)                                  Velocity(au)
C        -0.03479480    -0.00633643    -0.00133356     0.00004106    -0.00017467    -0.00010129
N        -0.05876517    -0.03431493     1.31498405    -0.00016765     0.00016599     0.00009648
H         0.94256205     0.00086660    -0.52535462     0.00028370     0.00034510    -0.00034492
H         0.92027468    -0.21520687     1.81237197     0.00071755    -0.00055331     0.00075954
H        -0.88364654    -0.09378421     1.86758301     0.00135540    -0.00094391     0.00030110
H        -0.96088344     0.19070309    -0.52014403    -0.00051621     0.00092689    -0.00084935
     6
  Step:    10            Position(A)                                  Velocity(au)
C        -0.03454927    -0.00730396    -0.00192815     0.00004780    -0.00017736    -0.00011513
N        -0.05960230    -0.03340527     1.31557178    -0.00013593     0.00016517     0.00011653
H         0.94411671     0.00277628    -0.52739394     0.00027864     0.00034975    -0.00039492
H         0.92350833    -0.21814295     1.81630357     0.00045510    -0.00051386     0.00066703
H        -0.87662268    -0.09905443     1.86959115     0.00118887    -0.00097606     0.00043694
H        -0.96398773     0.19588786    -0.52512595    -0.00060321     0.00095827    -0.00095645
     6
  Step:    11            Position(A)                                  Velocity(au)
C        -0.03426934    -0.00828592    -0.00259904     0.00005349    -0.00017982    -0.00012896
N        -0.06025929    -0.03249939     1.31626497    -0.00010242     0.00016456     0.00013482
H         0.94562478     0.00471103    -0.52969547     0.00026671     0.00035404    -0.00044014
H         0.92527705    -0.22085513     1.81970383     0.00018654    -0.00047198     0.00056709
H        -0.87057861    -0.10451289     1.87238575     0.00100165    -0.00101184     0.00058475
H        -0.96751386     0.20123625    -0.53065723    -0.00066885     0.00098572    -0.00104839
     6
  Step:    12            Position(A)                                  Velocity(au)
C        -0.03396123    -0.00928097    -0.00334598     0.00005798    -0.00018201    -0.00014269
N        -0.06072835    -0.03159603     1.31705402    -0.00006792     0.00016418     0.00015140
H         0.94704907     0.00666870    -0.53223302     0.00024821     0.00035791    -0.00048060
H         0.92555925    -0.22333207     1.82253839    -0.00008369    -0.00042843     0.00046210
H        -0.86561021    -0.11017894     1.87602009     0.00080084    -0.00105085     0.00073945
H        -0.97134131     0.20672521    -0.53665227    -0.00071231     0.00100875    -0.00112448
     6
  Step:    13            Position(A)                                  Velocity(au)
C        -0.03363177    -0.01028752    -0.00416819     0.00006120    -0.00018389    -0.00015620
N        -0.06100617    -0.03069392     1.31792993    -0.00003324     0.00016402     0.00016642
H         0.94835430     0.00864686    -0.53498058     0.00022350     0.00036126    -0.00051631
H         0.92435669    -0.22556650     1.82478543    -0.00035146    -0.00038388     0.00035423
H        -0.86177189    -0.11606893     1.88051735     0.00059426    -0.00109235     0.00089523
H        -0.97534701     0.21232935    -0.54302293    -0.00073345     0.00102693    -0.00118441
     6
  Step:    14            Position(A)                                  Velocity(au)
C        -0.03328807    -0.01130374    -0.00506412     0.00006310    -0.00018540    -0.00016932
N        -0.06109404    -0.02979184     1.31888459     0.00000077     0.00016404     0.00018002
H         0.94950748     0.01064254    -0.53791237     0.00019308     0.00036402    -0.00054732
H         0.92169326    -0.22755469     1.82643486    -0.00061269    -0.00033902     0.00024563
H        -0.85907346    -0.12219456     1.88586745     0.00038986    -0.00113526     0.00104592
H        -0.97940914     0.21802129    -0.54968053    -0.00073273     0.00103992    -0.00122816
     6
  Step:    15            Position(A)                                  Velocity(au)
C        -0.03293746    -0.01232758    -0.00603135     0.00006365    -0.00018648    -0.00018189
N        -0.06099770    -0.02888889     1.31991084     0.00003332     0.00016418     0.00019237
H         0.95047890     0.01265233    -0.54100303     0.00015760     0.00036605    -0.00057366
H         0.91761491    -0.22929691     1.82748827    -0.00086324    -0.00029456     0.00013846
H        -0.85748200    -0.12856092     1.89202623     0.00019527    -0.00117823     0.00118532
H        -0.98340969     0.22377225    -0.55653712    -0.00071103     0.00104744    -0.00125592
     6
  Step:    16            Position(A)                                  Velocity(au)
C        -0.03258733    -0.01335667    -0.00706644     0.00006287    -0.00018709    -0.00019368
N        -0.06072727    -0.02798451     1.32100234     0.00006362     0.00016435     0.00020358
H         0.95124246     0.01467219    -0.54422754     0.00011778     0.00036723    -0.00059539
H         0.91219024    -0.23079736     1.82795915    -0.00109878    -0.00025126     0.00003497
H        -0.85692377    -0.13516516     1.89891615     0.00001751    -0.00121967     0.00130755
H        -0.98723656     0.22955214    -0.56350647    -0.00066963     0.00104927    -0.00126808
     6
  Step:    17            Position(A)                                  Velocity(au)
C        -0.03224493    -0.01438839    -0.00816478     0.00006079    -0.00018717    -0.00020449
N        -0.06029697    -0.02707861     1.32215325     0.00009094     0.00016447     0.00021370
H         0.95177624     0.01669734    -0.54756123     0.00007443     0.00036742    -0.00061256
H         0.90551180    -0.23206451     1.82787344    -0.00131476    -0.00020994    -0.00006248
H        -0.85728911    -0.14199567     1.90642902    -0.00013748    -0.00125795     0.00140746
H        -0.99078565     0.23532996    -0.57050506    -0.00061019     0.00104526    -0.00126522
     6
  Step:    18            Position(A)                                  Velocity(au)
C        -0.03191728    -0.01541986    -0.00932056     0.00005745    -0.00018668    -0.00021409
N        -0.05972480    -0.02617155     1.32335794     0.00011466     0.00016447     0.00022272
H         0.95206289     0.01872231    -0.55097983     0.00002845     0.00036651    -0.00062526
H         0.89769742    -0.23311158     1.82727041    -0.00150644    -0.00017154    -0.00015136
H        -0.85843924    -0.14903175     1.91443083    -0.00026515    -0.00129146     0.00148094
H        -0.99396273     0.24107423    -0.57745314    -0.00053466     0.00103542    -0.00124813
     6
  Step:    19            Position(A)                                  Velocity(au)
C        -0.03161106    -0.01644798    -0.01052675     0.00005295    -0.00018559    -0.00022227
N        -0.05903200    -0.02526404     1.32461045     0.00013422     0.00016430     0.00023056
H         0.95209011     0.02074096    -0.55445961    -0.00001920     0.00036440    -0.00063363
H         0.88889152    -0.23395712     1.82620352    -0.00166898    -0.00013708    -0.00022904
H        -0.86021447    -0.15624415     1.92276800    -0.00036257    -0.00131881     0.00152521
H        -0.99668451     0.24675354    -0.58427546    -0.00044522     0.00101984    -0.00121779
     6
  Step:    20            Position(A)                                  Velocity(au)
C        -0.03133253    -0.01746953    -0.01177529     0.00004737    -0.00018391    -0.00022887
N        -0.05824253    -0.02435703     1.32590421     0.00014921     0.00016394     0.00023708
H         0.95185089     0.02274669    -0.55797761    -0.00006751     0.00036104    -0.00063789
H         0.87926545    -0.23462544     1.82474096    -0.00179776    -0.00010763    -0.00029289
H        -0.86244345    -0.16359651     1.93127507    -0.00042841    -0.00133888     0.00153891
H        -0.99887970     0.25233719    -0.59090223    -0.00034422     0.00099880    -0.00117539
     6
  Step:    21            Position(A)                                  Velocity(au)
C        -0.03108735    -0.01848127    -0.01305713     0.00004083    -0.00018166    -0.00023375
N        -0.05738231    -0.02345156     1.32723162     0.00015937     0.00016340     0.00024212
H         0.95134371     0.02473257    -0.56151208    -0.00011551     0.00035643    -0.00063834
H         0.86901570    -0.23514705     1.82296537    -0.00188866    -0.00008431    -0.00034042
H        -0.86495091    -0.17104670     1.93978202    -0.00046284    -0.00135097     0.00152212
H        -1.00049017     0.25779617    -0.59727045    -0.00023416     0.00097278    -0.00112238
     6
  Step:    22            Position(A)                                  Velocity(au)
C        -0.03088057    -0.01948013    -0.01436254     0.00003347    -0.00017888    -0.00023685
N        -0.05647858    -0.02254848     1.32858401     0.00016456     0.00016275     0.00024548
H         0.95057240     0.02669172    -0.56504295    -0.00016227     0.00035063    -0.00063539
H         0.85836132    -0.23555864     1.82097310    -0.00193832    -0.00006821    -0.00036941
H        -0.86756627    -0.17854937     1.94812221    -0.00046748    -0.00135486     0.00147629
H        -1.00147140     0.26310413    -0.60332494    -0.00011751     0.00094241    -0.00106034
     6
  Step:    23            Position(A)                                  Velocity(au)
C        -0.03071647    -0.02046331    -0.01568150     0.00002542    -0.00017567    -0.00023817
N        -0.05555895    -0.02164830     1.32995159     0.00016481     0.00016207     0.00024703
H         0.94954578     0.02861757    -0.56855236    -0.00020696     0.00034375    -0.00062954
H         0.84753881    -0.23590278     1.81887224    -0.00194450    -0.00006026    -0.00037811
H        -0.87013072    -0.18605872     1.95613958    -0.00044506    -0.00135082     0.00140403
H        -1.00179221     0.26823826    -0.60901924     0.00000336     0.00090850    -0.00099102
     6
  Step:    24            Position(A)                                  Velocity(au)
C        -0.03059863    -0.02142849    -0.01700403     0.00001682    -0.00017214    -0.00023777
N        -0.05465065    -0.02075101     1.33132373     0.00016030     0.00016149     0.00024665
H         0.94827709     0.03050421    -0.57202510    -0.00024891     0.00033597    -0.00062137
H         0.83679524    -0.23622702     1.81677959    -0.00190629    -0.00006126    -0.00036536
H        -0.87250239    -0.19353106     1.96369411    -0.00039904    -0.00133959     0.00130875
H        -1.00143417     0.27318013    -0.61431621     0.00012629     0.00087196    -0.00091620
     6
  Step:    25            Position(A)                                  Velocity(au)
C        -0.03052983    -0.02237396    -0.01832059     0.00000779    -0.00016841    -0.00023578
N        -0.05377968    -0.01985585     1.33268925     0.00015133     0.00016116     0.00024432
H         0.94678308     0.03234662    -0.57544910    -0.00028762     0.00032748    -0.00061148
H         0.82638023    -0.23658276     1.81481699    -0.00182428    -0.00007172    -0.00033075
H        -0.87455976    -0.20092724     1.97066580    -0.00033327    -0.00132225     0.00119431
H        -1.00039048     0.27791645    -0.61918842     0.00024941     0.00083380    -0.00083762
     6
  Step:    26            Position(A)                                  Velocity(au)
C        -0.03051212    -0.02329870    -0.01962236    -0.00000154    -0.00016462    -0.00023236
N        -0.05297009    -0.01896138     1.33403692     0.00013832     0.00016120     0.00024008
H         0.94508310     0.03414086    -0.57881558    -0.00032277     0.00031849    -0.00060052
H         0.81653669    -0.23702342     1.81310659    -0.00170054    -0.00009181    -0.00027467
H        -0.87620336    -0.20821457     1.97695684    -0.00025173    -0.00130014     0.00106472
H        -0.99866443     0.28243939    -0.62361791     0.00037121     0.00079500    -0.00075691
     6
  Step:    27            Position(A)                                  Velocity(au)
C        -0.03054689    -0.02420244    -0.02090142    -0.00001106    -0.00016091    -0.00022768
N        -0.05224330    -0.01806537     1.33535585     0.00012178     0.00016175     0.00023403
H         0.94319807     0.03588412    -0.58211908    -0.00035419     0.00030919    -0.00058904
H         0.80749220    -0.23760254     1.81176616    -0.00153853    -0.00012139    -0.00019832
H        -0.87735580    -0.21536806     1.98249179    -0.00015820    -0.00127470     0.00092380
H        -0.99626746     0.28674658    -0.62759555     0.00049049     0.00075651    -0.00067551
     6
  Step:    28            Position(A)                                  Velocity(au)
C        -0.03063495    -0.02508567    -0.02215088    -0.00002070    -0.00015738    -0.00022192
N        -0.05161765    -0.01716502     1.33663598     0.00010227     0.00016290     0.00022634
H         0.94114963     0.03757456    -0.58535720    -0.00038184     0.00029971    -0.00057754
H         0.79945044    -0.23837150     1.81090411    -0.00134301    -0.00015987    -0.00010372
H        -0.87796024    -0.22237088     1.98721619    -0.00005608    -0.00124733     0.00077496
H        -0.99321730     0.29084085    -0.63111985     0.00060638     0.00071915    -0.00059458
     6
  Step:    29            Position(A)                                  Velocity(au)
C        -0.03077663    -0.02594950    -0.02336485    -0.00003037    -0.00015415    -0.00021523
N        -0.05110800    -0.01625708     1.33786839     0.00008043     0.00016470     0.00021722
H         0.93895943     0.03921108    -0.58853008    -0.00040576     0.00029015    -0.00056638
H         0.79258408    -0.23937720     1.81061483    -0.00111979    -0.00020630     0.00000637
H        -0.87797833    -0.22921415     1.99109423     0.00005160    -0.00121933     0.00062112
H        -0.98953627     0.29472959    -0.63419568     0.00071825     0.00068363    -0.00051503
     6
  Step:    30            Position(A)                                  Velocity(au)
C        -0.03097184    -0.02679561    -0.02453827    -0.00004002    -0.00015129    -0.00020771
N        -0.05072549    -0.01533809     1.33904554     0.00005690     0.00016715     0.00020691
H         0.93664870     0.04079303    -0.59163978    -0.00042604     0.00028051    -0.00055580
H         0.78702921    -0.24065983     1.81097475    -0.00087557    -0.00025929     0.00012849
H        -0.87738786    -0.23589629     1.99410595     0.00016222    -0.00119182     0.00046474
H        -0.98525014     0.29842405    -0.63683279     0.00082554     0.00065050    -0.00043754
     6
  Step:    31            Position(A)                                  Velocity(au)
C        -0.03122010    -0.02762607    -0.02566676    -0.00004957    -0.00014883    -0.00019946
N        -0.05047738    -0.01440467     1.34016141     0.00003239     0.00017022     0.00019566
H         0.93423804     0.04231973    -0.59468953    -0.00044273     0.00027073    -0.00054589
H         0.78288086    -0.24225073     1.81203874    -0.00061778    -0.00031712     0.00025859
H        -0.87618061    -0.24242206     1.99624455     0.00027346    -0.00116574     0.00030786
H        -0.98038752     0.30193856    -0.63904458     0.00092772     0.00062020    -0.00036262
     6
  Step:    32            Position(A)                                  Velocity(au)
C        -0.03152059    -0.02844320    -0.02674640    -0.00005896    -0.00014681    -0.00019052
N        -0.05036695    -0.01345374     1.34121155     0.00000758     0.00017380     0.00018372
H         0.93174748     0.04379011    -0.59768296    -0.00045591     0.00026067    -0.00053660
H         0.78019018    -0.24417050     1.81383744    -0.00035427    -0.00037772     0.00039218
H        -0.87436054    -0.24880150     1.99751414     0.00038324    -0.00114187     0.00015225
H        -0.97497992     0.30528988    -0.64084713     0.00102416     0.00059306    -0.00029064
     6
  Step:    33            Position(A)                                  Velocity(au)
C        -0.03187206    -0.02924947    -0.02777352    -0.00006810    -0.00014522    -0.00018088
N        -0.05039352    -0.01248276     1.34219305    -0.00001680     0.00017778     0.00017136
H         0.92919653     0.04520232    -0.60062339    -0.00046559     0.00025015    -0.00052780
H         0.77896324    -0.24642762     1.81637555    -0.00009313    -0.00043878     0.00052450
H        -0.87194272    -0.25504904     1.99792819     0.00048956    -0.00112085    -0.00000049
H        -0.96906218     0.30849669    -0.64225859     0.00111408     0.00056936    -0.00022195
     6
  Step:    34            Position(A)                                  Velocity(au)
C        -0.03227281    -0.03004736    -0.02874452    -0.00007689    -0.00014406    -0.00017056
N        -0.05055249    -0.01148986     1.34310442    -0.00004006     0.00018203     0.00015879
H         0.92660443     0.04655335    -0.60351328    -0.00047177     0.00023891    -0.00051926
H         0.77916139    -0.24901748     1.81963128     0.00015771    -0.00049789     0.00065075
H        -0.86895266    -0.26118285     1.99750878     0.00059049    -0.00110328    -0.00014878
H        -0.96267335     0.31157927    -0.64329885     0.00119654     0.00054937    -0.00015685
     6
  Step:    35            Position(A)                                  Velocity(au)
C        -0.03272061    -0.03083930    -0.02965581    -0.00008523    -0.00014331    -0.00015954
N        -0.05083558    -0.01047395     1.34394545    -0.00006154     0.00018638     0.00014625
H         0.92399027     0.04783884    -0.60635376    -0.00047444     0.00022668    -0.00051068
H         0.78070365    -0.25192217     1.82355698     0.00039081    -0.00055262     0.00076632
H        -0.86542624    -0.26722445     1.99628628     0.00068407    -0.00108971    -0.00029103
H        -0.95585751     0.31455938    -0.64398958     0.00127045     0.00053335    -0.00009572
     6
  Step:    36            Position(A)                                  Velocity(au)
C        -0.03321263    -0.03162762    -0.03050373    -0.00009299    -0.00014295    -0.00014781
N        -0.05123108    -0.00943470     1.34471702    -0.00008065     0.00019071     0.00013389
H         0.92137304     0.04905287    -0.60914434    -0.00047359     0.00021317    -0.00050175
H         0.78347069    -0.25511095     1.82808120     0.00059960    -0.00060071     0.00086711
H        -0.86140970    -0.27319864     1.99429967     0.00076833    -0.00108075    -0.00042557
H        -0.94866464     0.31746025    -0.64435434     0.00133458     0.00052158    -0.00003898
     6
  Step:    37            Position(A)                                  Velocity(au)
C        -0.03374532    -0.03241454    -0.03128456    -0.00010004    -0.00014296    -0.00013536
N        -0.05172430    -0.00837249     1.34542080    -0.00009688     0.00019489     0.00012185
H         0.91877164     0.05018785    -0.61188272    -0.00046926     0.00019808    -0.00049215
H         0.78731081    -0.25854151     1.83311193     0.00077871    -0.00064018     0.00094970
H        -0.85695976    -0.27913355     1.99159677     0.00084133    -0.00107704    -0.00055069
H        -0.94115142     0.32030678    -0.64441908     0.00138764     0.00051439     0.00001290
     6
  Step:    38            Position(A)                                  Velocity(au)
C        -0.03431446    -0.03320215    -0.03199457    -0.00010624    -0.00014331    -0.00012221
N        -0.05229809    -0.00728824     1.34605905    -0.00010983     0.00019884     0.00011022
H         0.91620471     0.05123454    -0.61456483    -0.00046150     0.00018112    -0.00048156
H         0.79204729    -0.26216180     1.83854102     0.00092421    -0.00066946     0.00101154
H        -0.85214344    -0.28506099     1.98823448     0.00090119    -0.00107928    -0.00066466
H        -0.93338137     0.32312572    -0.64421227     0.00142838     0.00051215     0.00005940
     6
  Step:    39            Position(A)                                  Velocity(au)
C        -0.03491510    -0.03399244    -0.03263010    -0.00011148    -0.00014400    -0.00010839
N        -0.05293353    -0.00618320     1.34663430    -0.00011922     0.00020252     0.00009903
H         0.91369041     0.05218203    -0.61718485    -0.00045044     0.00016200    -0.00046971
H         0.79748664    -0.26591242     1.84424924     0.00103373    -0.00068743     0.00105107
H        -0.84703746    -0.29101672     1.98427865     0.00094623    -0.00108825    -0.00076590
H        -0.92542456     0.32594573    -0.64376507     0.00145571     0.00051523     0.00010003
     6
  Step:    40            Position(A)                                  Velocity(au)
C        -0.03554164    -0.03478732    -0.03318771    -0.00011563    -0.00014501    -0.00009395
N        -0.05361053    -0.00505881     1.34714915    -0.00012492     0.00020594     0.00008829
H         0.91124614     0.05301787    -0.61973545    -0.00043627     0.00014046    -0.00045635
H         0.80342684    -0.26972917     1.85011145     0.00110643    -0.00069347     0.00106771
H        -0.84172714    -0.29704071     1.97980335     0.00097504    -0.00110477    -0.00085296
H        -0.91735669     0.32879752    -0.64311117     0.00146871     0.00052402     0.00013432
     6
  Step:    41            Position(A)                                  Velocity(au)
C        -0.03618793    -0.03558866    -0.03366426    -0.00011862    -0.00014635    -0.00007898
N        -0.05430857    -0.00391640     1.34760610    -0.00012690     0.00020911     0.00007797
H         0.90888818     0.05372813    -0.62220803    -0.00041924     0.00011626    -0.00044130
H         0.80966558    -0.27354574     1.85600194     0.00114293    -0.00068745     0.00106180
H        -0.83630485    -0.30317733     1.97488980     0.00098655    -0.00112965    -0.00092473
H        -0.90925795     0.33171377    -0.64228654     0.00146675     0.00053888     0.00016191
     6
  Step:    42            Position(A)                                  Velocity(au)
C        -0.03684736    -0.03639827    -0.03405704    -0.00012038    -0.00014801    -0.00006356
N        -0.05500734    -0.00275704     1.34800738    -0.00012525     0.00021212     0.00006803
H         0.90663138     0.05429755    -0.62459297    -0.00039965     0.00008916    -0.00042442
H         0.81600751    -0.27729617     1.86179908     0.00114502    -0.00066962     0.00103445
H        -0.83086778    -0.30947527     1.96962449     0.00098018    -0.00116369    -0.00098048
H        -0.90121155     0.33472916    -0.64132900     0.00144953     0.00056016     0.00018252
     6
  Step:    43            Position(A)                                  Velocity(au)
C        -0.03751307    -0.03721796    -0.03436390    -0.00012088    -0.00014999    -0.00004781
N        -0.05568733    -0.00158140     1.34835496    -0.00012018     0.00021505     0.00005843
H         0.90448885     0.05470963    -0.62688000    -0.00037785     0.00005897    -0.00040563
H         0.82226983    -0.28091690     1.86738904     0.00111542    -0.00064061     0.00098738
H        -0.82551513    -0.31598716     1.96409676     0.00095588    -0.00120757    -0.00101998
H        -0.89330163     0.33787996    -0.64027740     0.00141712     0.00058813     0.00019608
     6
  Step:    44            Position(A)                                  Velocity(au)
C        -0.03817810    -0.03804950    -0.03458336    -0.00012013    -0.00015230    -0.00003186
N        -0.05633036    -0.00038964     1.34865057    -0.00011197     0.00021800     0.00004913
H         0.90247180     0.05494674    -0.62905841    -0.00035421     0.00002548    -0.00038490
H         0.82828676    -0.28434841     1.87266877     0.00105753    -0.00060127     0.00092276
H        -0.82034487    -0.32276888     1.95839590     0.00091424    -0.00126180    -0.00104357
H        -0.88561103     0.34120363    -0.63917047     0.00137000     0.00062296     0.00020271
     6