 Fermi distribution function

Calculation with static geometry


********************************************************************************
 iSCC Total electronic   Diff electronic      SCC error    
   10   -0.54151893E+01   -0.11546319E-12    0.16636875E-06
********************************************************************************

 Total charge:     1.00000000

 Atomic gross charges (e)
 Atom           Charge
    1       0.18717001
    2      -0.07280668
    3       0.15571543
    4       0.27922672
    5       0.27282415
    6       0.17787035

Nr. of electrons (up):     12.00000000
Atom populations (up)
 Atom       Population
    1       3.81282999
    2       5.07280668
    3       0.84428457
    4       0.72077328
    5       0.72717585
    6       0.82212965

l-shell populations (up)
 Atom Sh.   l       Population
    1   1   0       1.31659794
    1   2   1       2.49623205
    2   1   0       1.42376153
    2   2   1       3.64904515
    3   1   0       0.84428457
    4   1   0       0.72077328
    5   1   0       0.72717585
    6   1   0       0.82212965

Orbital populations (up)
 Atom Sh.   l   m       Population  Label
    1   1   0   0       1.31659794  s
    1   2   1  -1       0.59010827  p_y
    1   2   1   0       0.87414191  p_z
    1   2   1   1       1.03198186  p_x
    2   1   0   0       1.42376153  s
    2   2   1  -1       1.34969396  p_y
    2   2   1   0       1.10515477  p_z
    2   2   1   1       1.19419642  p_x
    3   1   0   0       0.84428457  s
    4   1   0   0       0.72077328  s
    5   1   0   0       0.72717585  s
    6   1   0   0       0.82212965  s

Fermi level:                        -0.4937809932 H          -13.4365 eV
Band energy:                        -8.9165856461 H         -242.6326 eV
TS:                                  0.0000000000 H            0.0000 eV
Band free energy (E-TS):            -8.9165856461 H         -242.6326 eV
Extrapolated E(0K):                 -8.9165856461 H         -242.6326 eV
Input / Output electrons (q):     12.0000000000     12.0000000000

Energy H0:                          -5.5479855314 H         -150.9684 eV
Energy SCC:                          0.1327962713 H            3.6136 eV
Total Electronic energy:            -5.4151892602 H         -147.3548 eV
Repulsive energy:                    0.1831075884 H            4.9826 eV
Total energy:                       -5.2320816717 H         -142.3722 eV
Extrapolated to 0:                  -5.2320816717 H         -142.3722 eV
Total Mermin free energy:           -5.2320816717 H         -142.3722 eV
Force related energy:               -5.2320816717 H         -142.3722 eV

SCC converged

Excitation Energy:                   0.1541194001 H            4.1938 eV

Total Forces
    1     -0.005738504049      0.000826515681      0.048163511972
    2     -0.007531232025      0.002397481466     -0.060134967416
    3     -0.004109873598      0.006024004842      0.001409281158
    4     -0.002374094792     -0.008942939538      0.005843320761
    5      0.010382597331      0.007952749491      0.002573696549
    6      0.009371107132     -0.008257811941      0.002145156977

Maximal derivative component:        0.601350E-01 au


