     6
  Step:   120            Position(A)                                  Velocity(au)
C        -0.03945234    -0.01650999    -0.11957385     0.00005302    -0.00004929     0.00052339
N        -0.05793462    -0.12166796     1.42662072    -0.00004255     0.00004497    -0.00045452
H         0.78971839     0.64956925    -0.47042078    -0.00101967     0.00139995     0.00084161
H         0.85252245    -0.13913763     1.94948363    -0.00049863    -0.00139683    -0.00033433
H        -0.61894288     0.71021146     1.75941846     0.00128953     0.00129507    -0.00056690
H        -0.96104809    -0.00293240    -0.74641361     0.00018828    -0.00133573     0.00013901
