     6
  Step:   120            Position(A)                                  Velocity(au)
C        -0.03443825    -0.01896884    -0.21397079     0.00004853     0.00002453    -0.00008755
N        -0.05118482    -0.14597197     1.51311399    -0.00008738     0.00000337     0.00009247
H         0.93909888     0.35043419    -0.58535042     0.00040414    -0.00023906     0.00031277
H         0.82572346     0.36605775     1.78256538     0.00077182     0.00029270    -0.00046374
H        -0.87188585     0.41285112     1.77661873     0.00018655    -0.00048733    -0.00048740
H        -0.98421120     0.45540907    -0.55886513    -0.00072652     0.00009453     0.00039659
