     6
  Step:     0            Position(A)                                  Velocity(au)
C        -0.03091955     0.00989574     0.02983601    -0.00003280    -0.00003289     0.00014919
N        -0.04735008    -0.06469695     1.28514897    -0.00012066    -0.00004765    -0.00017779
H         0.90505772     0.05144521    -0.50483182    -0.00049158     0.00008919     0.00038394
H         0.79368743    -0.06268967     1.80895829     0.00122132     0.00050817     0.00053130
H        -0.89514281     0.02230428     1.90686287     0.00058546     0.00016831    -0.00047714
H        -0.99010743     0.10029623    -0.53335760     0.00075245     0.00028848     0.00025482
     6
  Step:     1            Position(A)                                  Velocity(au)
C        -0.03113079     0.00971585     0.03023424    -0.00004435    -0.00003295    -0.00000384
N        -0.04805606    -0.06500010     1.28453073    -0.00013549    -0.00006333    -0.00004703
H         0.90273940     0.05210917    -0.50282116    -0.00035136     0.00015399     0.00034789
H         0.80100050    -0.05978503     1.81217417     0.00143158     0.00055427     0.00063183
H        -0.89189583     0.02338345     1.90401249     0.00059460     0.00022708    -0.00055990
H        -0.98602107     0.10200511    -0.53188753     0.00073653     0.00033734     0.00027957
     6
  Step:     2            Position(A)                                  Velocity(au)
C        -0.03140457     0.00953537     0.02979402    -0.00005554    -0.00003315    -0.00015678
N        -0.04883203    -0.06538957     1.28463453    -0.00014614    -0.00007920     0.00008562
H         0.90121478     0.05312948    -0.50102678    -0.00020319     0.00021945     0.00030549
H         0.80934521    -0.05662739     1.81586892     0.00159777     0.00060073     0.00070633
H        -0.88863942     0.02478790     1.90073897     0.00058814     0.00028741    -0.00063074
H        -0.98205166     0.10398591    -0.53029983     0.00070996     0.00038812     0.00029737
     6
  Step:     3            Position(A)                                  Velocity(au)
C        -0.03173823     0.00935327     0.02851969    -0.00006609    -0.00003357    -0.00030811
N        -0.04965423    -0.06586623     1.28546705    -0.00015228    -0.00009514     0.00021868
H         0.90051728     0.05450912    -0.49948025    -0.00005068     0.00028518     0.00025792
H         0.81847409    -0.05321533     1.81989879     0.00171773     0.00064700     0.00075454
H        -0.88546383     0.02652657     1.89711454     0.00056408     0.00034928    -0.00068693
H        -0.97825681     0.10624972    -0.52863546     0.00067259     0.00044081     0.00030708
     6
  Step:     4            Position(A)                                  Velocity(au)
C        -0.03212745     0.00916817     0.02642405    -0.00007566    -0.00003424    -0.00045597
N        -0.05049755    -0.06643019     1.28702639    -0.00015369    -0.00011097     0.00035031
H         0.90066045     0.05624862    -0.49820583     0.00010237     0.00035049     0.00020661
H         0.82813283    -0.04955080     1.82412168     0.00179031     0.00069219     0.00077692
H        -0.88246985     0.02860809     1.89322566     0.00052053     0.00041240    -0.00072581
H        -0.97469519     0.10880725    -0.52694110     0.00062409     0.00049508     0.00030769
     6
  Step:     5            Position(A)                                  Velocity(au)
C        -0.03256610     0.00897855     0.02353026    -0.00008388    -0.00003518    -0.00059803
N        -0.05133595    -0.06708048     1.28930027    -0.00015022    -0.00012640     0.00047819
H         0.90163742     0.05834440    -0.49721943     0.00025202     0.00041438     0.00015320
H         0.83806462    -0.04564101     1.82840020     0.00181525     0.00073503     0.00077450
H        -0.87976794     0.03103928     1.88917231     0.00045592     0.00047619    -0.00074494
H        -0.97142770     0.11166709    -0.52526853     0.00056396     0.00055024     0.00029832
     6
  Step:     6            Position(A)                                  Velocity(au)
C        -0.03304615     0.00878284     0.01987410    -0.00009040    -0.00003638    -0.00073155
N        -0.05214289    -0.06781463     1.29226381    -0.00014185    -0.00014112     0.00059965
H         0.90342073     0.06078710    -0.49652793     0.00039431     0.00047552     0.00009941
H         0.84801446    -0.04150032     1.83260439     0.00179314     0.00077398     0.00074882
H        -0.87747639     0.03382357     1.88506663     0.00036931     0.00053974    -0.00074236
H        -0.96851837     0.11483382    -0.52367370     0.00049175     0.00060528     0.00027838
     6
  Step:     7            Position(A)                                  Velocity(au)
C        -0.03355765     0.00857956     0.01550615    -0.00009487    -0.00003780    -0.00085345
N        -0.05289189    -0.06862833     1.29587763    -0.00012870    -0.00015472     0.00071171
H         0.90596249     0.06356023    -0.49612900     0.00052533     0.00053244     0.00004697
H         0.85773292    -0.03715154     1.83661372     0.00172560     0.00080732     0.00070193
H        -0.87571716     0.03695947     1.88102968     0.00026084     0.00060189    -0.00071693
H        -0.96603388     0.11830620    -0.52221503     0.00040730     0.00065887     0.00024771
     6
  Step:     8            Position(A)                                  Velocity(au)
C        -0.03408893     0.00836733     0.01049341    -0.00009702    -0.00003943    -0.00096053
N        -0.05355752    -0.06951519     1.30008651    -0.00011111    -0.00016679     0.00081128
H         0.90919492     0.06663940    -0.49601161     0.00064140     0.00058358    -0.00000255
H         0.86698131    -0.03262662     1.84031959     0.00161557     0.00083340     0.00063647
H        -0.87460940     0.04043919     1.87718648     0.00013212     0.00066126    -0.00066871
H        -0.96404149     0.12207576    -0.52095095     0.00031108     0.00070949     0.00020670
     6
  Step:     9            Position(A)                                  Velocity(au)
C        -0.03462694     0.00814501     0.00491974    -0.00009666    -0.00004120    -0.00104979
N        -0.05411648    -0.07046664     1.30481910    -0.00008966    -0.00017696     0.00089551
H         0.91303168     0.06999211    -0.49615714     0.00073929     0.00062748    -0.00004789
H         0.87553883    -0.02796629     1.84362856     0.00146760     0.00085074     0.00055577
H        -0.87426102     0.04424748     1.87365950    -0.00001349     0.00071635    -0.00059917
H        -0.96260531     0.12612581    -0.51993689     0.00020438     0.00075557     0.00015635
     6
  Step:    10            Position(A)                                  Velocity(au)
C        -0.03515778     0.00791170    -0.00111552    -0.00009373    -0.00004308    -0.00111888
N        -0.05454902    -0.07147207     1.30998936    -0.00006520    -0.00018489     0.00096213
H         0.91737020     0.07357833    -0.49654119     0.00081649     0.00066299    -0.00008815
H         0.88321060    -0.02321882     1.84646554     0.00128793     0.00085836     0.00046375
H        -0.87475861     0.04836088     1.87056062    -0.00017083     0.00076570    -0.00051139
H        -0.96178140     0.13043114    -0.51922198     0.00008948     0.00079568     0.00009830
     6
  Step:    11            Position(A)                                  Velocity(au)
C        -0.03566748     0.00766682    -0.00750113    -0.00008838    -0.00004499    -0.00116657
N        -0.05484032    -0.07251918     1.31549991    -0.00003880    -0.00019041     0.00100993
H         0.92209570     0.07735202    -0.49713570     0.00087165     0.00068943    -0.00012289
H         0.88983636    -0.01843746     1.84877672     0.00108428     0.00085599     0.00036475
H        -0.87615739     0.05274757     1.86798250    -0.00033317     0.00080803    -0.00040996
H        -0.96161193     0.13495872    -0.51884570    -0.00003037     0.00082875     0.00003470
     6
  Step:    12            Position(A)                                  Velocity(au)
C        -0.03614299     0.00741016    -0.01411993    -0.00008091    -0.00004691    -0.00119317
N        -0.05498157    -0.07359470     1.32124760    -0.00001164    -0.00019352     0.00103907
H         0.92708697     0.08126376    -0.49791115     0.00090482     0.00070688    -0.00015212
H         0.89529773    -0.01367656     1.85053158     0.00086554     0.00084430     0.00026330
H        -0.87847267     0.05736845     1.86599058    -0.00049308     0.00084264    -0.00030058
H        -0.96211996     0.13966973    -0.51883514    -0.00015137     0.00085445    -0.00003197
     6
  Step:    13            Position(A)                                  Velocity(au)
C        -0.03657313     0.00714176    -0.02085733    -0.00007179    -0.00004881    -0.00120088
N        -0.05497063    -0.07468545     1.32713113     0.00001511    -0.00019449     0.00105142
H         0.93222409     0.08526471    -0.49883850     0.00091767     0.00071632    -0.00017619
H         0.89952510    -0.00898648     1.85172402     0.00064108     0.00082500     0.00016376
H        -0.88167684     0.06217997     1.86461781    -0.00064355     0.00086965    -0.00018936
H        -0.96330638     0.14452330    -0.51920359    -0.00026972     0.00087335    -0.00009932
     6
  Step:    14            Position(A)                                  Velocity(au)
C        -0.03694948     0.00686180    -0.02761152    -0.00006158    -0.00005073    -0.00119359
N        -0.05481181    -0.07577970     1.33306003     0.00004047    -0.00019379     0.00105035
H         0.93739679     0.08931140    -0.49989057     0.00091327     0.00071958    -0.00019567
H         0.90250013    -0.00440787     1.85237138     0.00041959     0.00080072     0.00006983
H        -0.88570285     0.06713881     1.86386322    -0.00077915     0.00089017    -0.00008187
H        -0.96515020     0.14948163    -0.51995102    -0.00038227     0.00088705    -0.00016537
     6
  Step:    15            Position(A)                                  Velocity(au)
C        -0.03726682     0.00657035    -0.03430247    -0.00008016    -0.00008310    -0.00185387
N        -0.05451472    -0.07686840     1.33896270     0.00010052    -0.00030274     0.00163940
H         0.94251155     0.09337039    -0.50104261     0.00141135     0.00113335    -0.00033287
H         0.90425155     0.00003320     1.85251066     0.00032771     0.00122081    -0.00002495
H        -0.89045358     0.07220720     1.86369558    -0.00141317     0.00142805     0.00002763
H        -0.96761244     0.15451543    -0.52106643    -0.00076755     0.00141515    -0.00036057
     6
  Step:    16            Position(A)                                  Velocity(au)
C        -0.03768537     0.00609380    -0.04432719    -0.00004131    -0.00005208    -0.00102778
N        -0.05389426    -0.07852550     1.34788848     0.00007133    -0.00017221     0.00092143
H         0.95056525     0.09965722    -0.50327272     0.00086793     0.00066302    -0.00027232
H         0.90555636     0.00666565     1.85219699     0.00008630     0.00068474    -0.00004860
H        -0.89865307     0.08010867     1.86420040    -0.00089489     0.00083037     0.00008583
H        -0.97240584     0.16240128    -0.52360793    -0.00055827     0.00083568    -0.00032240
     6
  Step:    17            Position(A)                                  Velocity(au)
C        -0.03788669     0.00579326    -0.05006179    -0.00003015    -0.00005428    -0.00100059
N        -0.05343677    -0.07949186     1.35304227     0.00008918    -0.00016969     0.00090131
H         0.95534637     0.10339317    -0.50482385     0.00082050     0.00065872    -0.00027520
H         0.90549829     0.01046596     1.85172351    -0.00009806     0.00066121    -0.00011385
H        -0.90393698     0.08483357     1.86491102    -0.00096448     0.00084031     0.00015939
H        -0.97580330     0.16715062    -0.52557910    -0.00063793     0.00084466    -0.00037222
     6
  Step:    18            Position(A)                                  Velocity(au)
C        -0.03802604     0.00548043    -0.05563354    -0.00001966    -0.00005688    -0.00097876
N        -0.05288656    -0.08044291     1.35807304     0.00010490    -0.00016823     0.00088566
H         0.95983665     0.10710063    -0.50638244     0.00077224     0.00065858    -0.00027758
H         0.90444832     0.01413714     1.85091053    -0.00026589     0.00064467    -0.00016979
H        -0.90955146     0.08960393     1.86600147    -0.00101985     0.00085343     0.00022177
H        -0.97961423     0.17194575    -0.52781394    -0.00070996     0.00085896    -0.00041889
     6
  Step:    19            Position(A)                                  Velocity(au)
C        -0.03810786     0.00515331    -0.06107348    -0.00000986    -0.00005974    -0.00096055
N        -0.05225656    -0.08138456     1.36300654     0.00011824    -0.00016750     0.00087289
H         0.96403462     0.11080261    -0.50794683     0.00072215     0.00066134    -0.00027941
H         0.90250685     0.01771887     1.84981322    -0.00041668     0.00063391    -0.00021599
H        -0.91541099     0.09443526     1.86740613    -0.00105841     0.00086769     0.00027276
H        -0.98379080     0.17681450    -0.53029188    -0.00077261     0.00087662    -0.00046149
     6
  Step:    20            Position(A)                                  Velocity(au)
C        -0.03813660     0.00481061    -0.06640279    -0.00000081    -0.00006270    -0.00094384
N        -0.05156093    -0.08232081     1.36785958     0.00012882    -0.00016708     0.00086106
H         0.96793312     0.11451524    -0.50951502     0.00066907     0.00066546    -0.00028043
H         0.89977671     0.02124426     1.84848889    -0.00054860     0.00062764    -0.00025152
H        -0.92141795     0.09933211     1.86905959    -0.00107727     0.00088068     0.00031195
H        -0.98827642     0.18177401    -0.53298795    -0.00082355     0.00089527    -0.00049876
     6
  Step:    21            Position(A)                                  Velocity(au)
C        -0.03811695     0.00445193    -0.07163100     0.00000739    -0.00006560    -0.00092693
N        -0.05081568    -0.08325349     1.37263812     0.00013626    -0.00016666     0.00084854
H         0.97151862     0.11824627    -0.51108366     0.00061236     0.00066964    -0.00028047
H         0.89637042     0.02473942     1.84699976    -0.00065904     0.00062489    -0.00027526
H        -0.92746095     0.10428624     1.87089556    -0.00107422     0.00089033     0.00033905
H        -0.99300275     0.18682867    -0.53587088    -0.00086061     0.00091280    -0.00052952
     6
  Step:    22            Position(A)                                  Velocity(au)
C        -0.03805404     0.00407777    -0.07675808     0.00001464    -0.00006830    -0.00090869
N        -0.05003872    -0.08418265     1.37733908     0.00014028    -0.00016601     0.00083421
H         0.97477410     0.12199619    -0.51264833     0.00055200     0.00067292    -0.00027947
H         0.89241417     0.02822519     1.84541380    -0.00074531     0.00062510    -0.00028620
H        -0.93341862     0.10927845     1.87284733    -0.00104826     0.00089516     0.00035411
H        -0.99789073     0.19197144    -0.53890354    -0.00088222     0.00092761    -0.00055288
     6
  Step:    23            Position(A)                                  Velocity(au)
C        -0.03795347     0.00368930    -0.08177772     0.00002084    -0.00007071    -0.00088853
N        -0.04924930    -0.08510718     1.38195316     0.00014072    -0.00016501     0.00081745
H         0.97768243     0.12576029    -0.51420429     0.00048850     0.00067471    -0.00027750
H         0.88804807     0.03171942     1.84380397    -0.00080515     0.00062805    -0.00028366
H        -0.93916615     0.11428190     1.87484961    -0.00099970     0.00089433     0.00035762
H        -1.00285387     0.19718665    -0.54204448    -0.00088758     0.00093860    -0.00056833
     6
  Step:    24            Position(A)                                  Velocity(au)
C        -0.03782127     0.00328818    -0.08668031     0.00002593    -0.00007277    -0.00086628
N        -0.04846724    -0.08602537     1.38646762     0.00013760    -0.00016365     0.00079806
H         0.98022925     0.12953066    -0.51574719     0.00042273     0.00067472    -0.00027475
H         0.88342307     0.03523867     1.84224620    -0.00083716     0.00063377    -0.00026741
H        -0.94458231     0.11926549     1.87684088    -0.00093000     0.00088755     0.00035053
H        -1.00780231     0.20245287    -0.54525013    -0.00087664     0.00094518    -0.00057580
     6
  Step:    25            Position(A)                                  Velocity(au)
C        -0.03766380     0.00287640    -0.09145520     0.00002987    -0.00007444    -0.00084209
N        -0.04771215    -0.08693534     1.39086849     0.00013105    -0.00016194     0.00077610
H         0.98240486     0.13329785    -0.51727364     0.00035573     0.00067295    -0.00027149
H         0.87869588     0.03879944     1.84081670    -0.00084102     0.00064240    -0.00023773
H        -0.94955548     0.12419701     1.87876549    -0.00084153     0.00087501     0.00033411
H        -1.01264712     0.20774556    -0.54847693    -0.00085010     0.00094716    -0.00057557
     6
  Step:    26            Position(A)                                  Velocity(au)
C        -0.03748745     0.00245611    -0.09609245     0.00003266    -0.00007574    -0.00081629
N        -0.04700253    -0.08783541     1.39514227     0.00012134    -0.00015997     0.00075191
H         0.98420529     0.13705230    -0.51878166     0.00028862     0.00066953    -0.00026801
H         0.87402291     0.04241883     1.83958906    -0.00081745     0.00065414    -0.00019539
H        -0.95398828     0.12904557     1.88057531    -0.00073731     0.00085724     0.00030989
H        -1.01730406     0.21303943    -0.55168340    -0.00080921     0.00094469    -0.00056824
     6
  Step:    27            Position(A)                                  Velocity(au)
C        -0.03729854     0.00202940    -0.10058390     0.00003435    -0.00007668    -0.00078936
N        -0.04635518    -0.08872434     1.39927714     0.00010886    -0.00015785     0.00072590
H         0.98563251     0.14078530    -0.52027083     0.00022247     0.00066476    -0.00026463
H         0.86955420     0.04611474     1.83863160    -0.00076826     0.00066918    -0.00014159
H        -0.95780094     0.13378368     1.88223099    -0.00062072     0.00083508     0.00027951
H        -1.02169663     0.21831019    -0.55483166    -0.00075561     0.00093818    -0.00055462
     6
  Step:    28            Position(A)                                  Velocity(au)
C        -0.03710309     0.00159825    -0.10492384     0.00003501    -0.00007729    -0.00076176
N        -0.04578458    -0.08960142     1.40326370     0.00009406    -0.00015567     0.00069858
H         0.98669427     0.14448968    -0.52174240     0.00015824     0.00065898    -0.00026166
H         0.86542756     0.04990571     1.83800496    -0.00069616     0.00068763    -0.00007789
H        -0.96093295     0.13838850     1.88370249    -0.00049525     0.00080946     0.00024466
H        -1.02575795     0.22353590    -0.55788856    -0.00069116     0.00092816    -0.00053563
     6
  Step:    29            Position(A)                                  Velocity(au)
C        -0.03690670     0.00116444    -0.10910914     0.00003472    -0.00007762    -0.00073397
N        -0.04530248    -0.09046652     1.40709529     0.00007746    -0.00015355     0.00067045
H         0.98740341     0.14816022    -0.52319922     0.00009674     0.00065255    -0.00025937
H         0.86176314     0.05381037     1.83775993    -0.00060471     0.00070946    -0.00000617
H        -0.96334347     0.14284270     1.88496910    -0.00036431     0.00078140     0.00020696
H        -1.02943176     0.22869773    -0.56082615    -0.00061777     0.00091526    -0.00051223
     6
  Step:    30            Position(A)                                  Velocity(au)
C        -0.03671448     0.00072948    -0.11313908     0.00003357    -0.00007772    -0.00070636
N        -0.04491763    -0.09132005     1.41076799     0.00005958    -0.00015156     0.00064197
H         0.98777704     0.15179366    -0.52464552     0.00003861     0.00064583    -0.00025799
H         0.85865908     0.05784659     1.83793589    -0.00049806     0.00073445     0.00007146
H        -0.96501061     0.14713468     1.88601898    -0.00023111     0.00075192     0.00016792
H        -1.03267261     0.23378030    -0.56362187    -0.00053731     0.00090007    -0.00048535
     6
  Step:    31            Position(A)                                  Velocity(au)
C        -0.03653099     0.00029459    -0.11701505     0.00003166    -0.00007763    -0.00067925
N        -0.04463567    -0.09216286     1.41428047     0.00004097    -0.00014978     0.00061354
H         0.98783558     0.15538868    -0.52608675    -0.00001564     0.00063912    -0.00025770
H         0.85618860     0.06203065     1.83855976    -0.00038078     0.00076224     0.00015278
H        -0.96593014     0.15125848     1.88684851    -0.00009859     0.00072195     0.00012890
H        -1.03544557     0.23877168    -0.56625841    -0.00045154     0.00088316    -0.00045588
     6
  Step:    32            Position(A)                                  Velocity(au)
C        -0.03636024    -0.00013923    -0.12074005     0.00002908    -0.00007740    -0.00065285
N        -0.04445915    -0.09299610     1.41763358     0.00002218    -0.00014824     0.00058548
H         0.98760201     0.15894558    -0.52752922    -0.00006566     0.00063266    -0.00025862
H         0.85439809     0.06637618     1.83964551    -0.00025764     0.00079224     0.00023548
H        -0.96611383     0.15521342     1.88746143     0.00003061     0.00069236     0.00009113
H        -1.03772544     0.24366310    -0.56872325    -0.00036206     0.00086503    -0.00042459
     6
  Step:    33            Position(A)                                  Velocity(au)
C        -0.03620568    -0.00057126    -0.12431822     0.00002593    -0.00007706    -0.00062728
N        -0.04438753    -0.09382113     1.42082998     0.00000373    -0.00014695     0.00055805
H         0.98710110     0.16246602    -0.52897984    -0.00011118     0.00062664    -0.00026083
H         0.85330642     0.07089319     1.84119397    -0.00013349     0.00082374     0.00031728
H        -0.96558776     0.15900369     1.88786795     0.00015409     0.00066396     0.00005567
H        -1.03949584     0.24844848    -0.57100819    -0.00027033     0.00084608    -0.00039220
     6
  Step:    34            Position(A)                                  Velocity(au)
C        -0.03607026    -0.00100095    -0.12775434     0.00002230    -0.00007665    -0.00060259
N        -0.04441739    -0.09463934     1.42387367    -0.00001387    -0.00014592     0.00053141
H         0.98635884     0.16595275    -0.53044586    -0.00015202     0.00062122    -0.00026435
H         0.85290543     0.07558730     1.84319332    -0.00001297     0.00085586     0.00039598
H        -0.96439080     0.16263786     1.88808395     0.00026971     0.00063747     0.00002347
H        -1.04074828     0.25312398    -0.57310881    -0.00017764     0.00082661    -0.00035930
     6
  Step:    35            Position(A)                                  Velocity(au)
C        -0.03595643    -0.00142794    -0.13105326     0.00001826    -0.00007618    -0.00057874
N        -0.04454260    -0.09545209     1.42676949    -0.00003018    -0.00014513     0.00050567
H         0.98540203     0.16940933    -0.53193449    -0.00018806     0.00061653    -0.00026915
H         0.85316142     0.08045897     1.84561981     0.00009957     0.00088760     0.00046958
H        -0.96257323     0.16612862     1.88813023     0.00037554     0.00061360    -0.00000467
H        -1.04148130     0.25768740    -0.57502403    -0.00008517     0.00080686    -0.00032646
     6
  Step:    36            Position(A)                                  Velocity(au)
C        -0.03586628    -0.00185203    -0.13421965     0.00001387    -0.00007569    -0.00055567
N        -0.04475458    -0.09626062     1.42952272    -0.00004478    -0.00014454     0.00048088
H         0.98425797     0.17284020    -0.53345261    -0.00021920     0.00061274    -0.00027509
H         0.85401772     0.08550303     1.84843917     0.00020029     0.00091787     0.00053632
H        -0.96019546     0.16949261     1.88803174     0.00046986     0.00059308    -0.00002808
H        -1.04169975     0.26213769    -0.57675585     0.00000603     0.00078690    -0.00029422
     6
  Step:    37            Position(A)                                  Velocity(au)
C        -0.03580158    -0.00227313    -0.13725783     0.00000912    -0.00007519    -0.00053336
N        -0.04504256    -0.09706602     1.43213894    -0.00005726    -0.00014414     0.00045710
H         0.98295443     0.17625115    -0.53500613    -0.00024526     0.00061041    -0.00028182
H         0.85539789     0.09070784     1.85160835     0.00028597     0.00094516     0.00059492
H        -0.95732682     0.17275085     1.88781671     0.00055116     0.00057701    -0.00004634
H        -1.04141393     0.26647388    -0.57830924     0.00009515     0.00076642    -0.00026322
     6
  Step:    38            Position(A)                                  Velocity(au)
C        -0.03576452    -0.00269122    -0.14017229    -0.00000106    -0.00007572    -0.00050198
N        -0.04539358    -0.09786927     1.43462424    -0.00006431    -0.00014292     0.00042742
H         0.98152069     0.17965275    -0.53659785    -0.00024134     0.00064127    -0.00028791
H         0.85720928     0.09605158     1.85507878     0.00035326     0.00093271     0.00065771
H        -0.95404422     0.17593234     1.88751458     0.00061477     0.00059277    -0.00006734
H        -1.04063778     0.27069136    -0.57969351     0.00017960     0.00072169    -0.00026047
     6
  Step:    39            Position(A)                                  Velocity(au)
C        -0.03581341    -0.00311786    -0.14285754    -0.00001319    -0.00008727    -0.00046971
N        -0.04575993    -0.09866034     1.43690696    -0.00007390    -0.00014922     0.00040339
H         0.98026219     0.18340471    -0.53821781    -0.00020047     0.00074408    -0.00036963
H         0.85933859     0.10111244     1.85894532     0.00044277     0.00097146     0.00077803
H        -0.95046885     0.17936339     1.88706547     0.00070738     0.00065099    -0.00008165
H        -1.03941044     0.27452448    -0.58121486     0.00023448     0.00074710    -0.00033533
     6
  Step:    40            Position(A)                                  Velocity(au)
C        -0.03589817    -0.00360166    -0.14542111    -0.00001725    -0.00008630    -0.00045057
N        -0.04619060    -0.09949135     1.43909805    -0.00007917    -0.00014899     0.00038341
H         0.97909016     0.18753044    -0.54029823    -0.00021867     0.00073704    -0.00037637
H         0.86191338     0.10658729     1.86336270     0.00047008     0.00098969     0.00080121
H        -0.94640510     0.18296161     1.88660538     0.00074255     0.00064328    -0.00008041
H        -1.03788201     0.27863887    -0.58299225     0.00031178     0.00072878    -0.00030348
     6
  Step:    41            Position(A)                                  Velocity(au)
C        -0.03600564    -0.00407983    -0.14787970    -0.00002123    -0.00008533    -0.00043232
N        -0.04664241    -0.10032100     1.44118061    -0.00008161    -0.00014883     0.00036469
H         0.97782482     0.19162007    -0.54241301    -0.00023434     0.00073116    -0.00038248
H         0.86457826     0.11214389     1.86787589     0.00047575     0.00100193     0.00081291
H        -0.94219216     0.18653363     1.88616914     0.00076147     0.00064161    -0.00007300
H        -1.03593529     0.28264773    -0.58459755     0.00038422     0.00071035    -0.00027376
     6
  Step:    42            Position(A)                                  Velocity(au)
C        -0.03613471    -0.00455242    -0.15023815    -0.00002496    -0.00008437    -0.00041487
N        -0.04709996    -0.10114971     1.44316156    -0.00008136    -0.00014876     0.00034716
H         0.97647910     0.19567733    -0.54455991    -0.00024779     0.00072581    -0.00038822
H         0.86721431     0.11775116     1.87242039     0.00046065     0.00100869     0.00081324
H        -0.93792052     0.19011065     1.88579194     0.00076437     0.00064542    -0.00005935
H        -1.03360094     0.28655381    -0.58604262     0.00045080     0.00069261    -0.00024626
     6
  Step:    43            Position(A)                                  Velocity(au)
C        -0.03628366    -0.00501957    -0.15250072    -0.00002835    -0.00008345    -0.00039815
N        -0.04754862    -0.10197790     1.44504740    -0.00007857    -0.00014875     0.00033074
H         0.97506486     0.19970450    -0.54673712    -0.00025920     0.00072082    -0.00039363
H         0.86970923     0.12337912     1.87693411     0.00042624     0.00101017     0.00080280
H        -0.93367827     0.19372256     1.88550803     0.00075187     0.00065450    -0.00003975
H        -1.03091412     0.29036234    -0.58734046     0.00051078     0.00067595    -0.00022119
     6
  Step:    44            Position(A)                                  Velocity(au)
C        -0.03645038    -0.00548155    -0.15467128    -0.00003133    -0.00008258    -0.00038207
N        -0.04797480    -0.10280596     1.44684418    -0.00007346    -0.00014881     0.00031537
H         0.97359309     0.20370326    -0.54894277    -0.00026872     0.00071611    -0.00039870
H         0.87196023     0.12899889     1.88135912     0.00037436     0.00100662     0.00078242
H        -0.92954881     0.19739820     1.88534933     0.00072500     0.00066864    -0.00001470
H        -1.02791363     0.29408017    -0.58850539     0.00056358     0.00066064    -0.00019878
     6