    14
  Step:     0            Position(A)                                  Velocity(au)
C        -6.05207628    -0.84271376    -0.18333824     0.00029275     0.00008146    -0.00012258
C        -4.77467849    -0.69542820     0.20501762    -0.00064195    -0.00013447     0.00002043
H        -6.46621393    -0.02716417    -0.74575549     0.00029120     0.00060337     0.00003805
H        -6.69426953    -1.65217723     0.11708995    -0.00087572    -0.00034394     0.00005315
H        -4.22272853    -1.49853607     0.71089616     0.00095490     0.00033520    -0.00023101
C        -3.87655119     0.45467344    -0.05255266     0.00037082     0.00013604     0.00013694
C        -2.54602406     0.54154118     0.29193891     0.00004378    -0.00037434     0.00004457
H        -4.36148361     1.30976696    -0.53481030     0.00084020     0.00069031     0.00015910
H        -2.04458594    -0.36272029     0.70350828     0.00014693     0.00019455     0.00043558
C        -1.80082401     1.67471741    -0.07421771    -0.00049072    -0.00013941     0.00000291
H        -2.28918493     2.54017103    -0.51163964    -0.00003522    -0.00018994     0.00054891
N        -0.50212627     1.81127379     0.19089587     0.00015830     0.00016478    -0.00018647
H         0.00829346     2.63620318    -0.06048290     0.00082221     0.00119625    -0.00087742
H         0.07725128     1.02684897     0.45572146     0.00072374     0.00035675     0.00148452
    14
  Step:     1            Position(A)                                  Velocity(au)
C        -6.04906288    -0.84174873    -0.18472735     0.00024999     0.00009248    -0.00013223
C        -4.78118011    -0.69683944     0.20532325    -0.00053907    -0.00012216     0.00003699
H        -6.46380298    -0.02035787    -0.74598907     0.00015586     0.00062788    -0.00007550
H        -6.70401479    -1.65642984     0.11776272    -0.00087811    -0.00039872     0.00005727
H        -4.21283241    -1.49514095     0.70846443     0.00084022     0.00028680    -0.00021858
C        -3.87309269     0.45605150    -0.05112731     0.00025977     0.00011555     0.00012364
C        -2.54522266     0.53735683     0.29246783     0.00010193    -0.00039017     0.00005215
H        -4.35208205     1.31741808    -0.53299409     0.00087870     0.00070069     0.00017727
H        -2.04320192    -0.35969459     0.70830503     0.00011027     0.00034748     0.00044477
C        -1.80632189     1.67320320    -0.07419199    -0.00050866    -0.00013739     0.00000289
H        -2.28972138     2.53811787    -0.50568791    -0.00007441    -0.00017353     0.00053001
N        -0.50022403     1.81306235     0.18889343     0.00019091     0.00016479    -0.00018077
H         0.01747893     2.64992018    -0.07032631     0.00081415     0.00124442    -0.00090154
H         0.08513724     1.03050447     0.47213609     0.00069605     0.00033815     0.00150416
    14
  Step:     2            Position(A)                                  Velocity(au)
C        -6.04660718    -0.84069048    -0.18623101     0.00019184     0.00009904    -0.00014353
C        -4.78647170    -0.69810066     0.20582686    -0.00042224    -0.00010709     0.00005621
H        -6.46280419    -0.01342800    -0.74740728     0.00003473     0.00062378    -0.00017617
H        -6.71347983    -1.66090000     0.11834278    -0.00082662    -0.00038710     0.00003726
H        -4.20434711    -1.49226187     0.70611430     0.00069941     0.00024028    -0.00021475
C        -3.87086816     0.45720128    -0.04984786     0.00014600     0.00009421     0.00011046
C        -2.54379414     0.53300538     0.29307974     0.00015801    -0.00040418     0.00005942
H        -4.34226042     1.32509593    -0.53093219     0.00091517     0.00069625     0.00020282
H        -2.04217366    -0.35511860     0.71323839     0.00008479     0.00047299     0.00046240
C        -1.81195195     1.67171168    -0.07415458    -0.00051493    -0.00013543     0.00000514
H        -2.29081270     2.53637477    -0.50004475    -0.00013566    -0.00013436     0.00049325
N        -0.49794970     1.81487887     0.18694116     0.00022561     0.00016947    -0.00017723
H         0.02610452     2.66342725    -0.08020588     0.00072559     0.00116585    -0.00088571
H         0.09247869     1.03424663     0.48862778     0.00062616     0.00037046     0.00149856
    14
  Step:     3            Position(A)                                  Velocity(au)
C        -6.04486603    -0.83958198    -0.18786731     0.00012099     0.00010231    -0.00015636
C        -4.79041745    -0.69918234     0.20655304    -0.00029495    -0.00008943     0.00007714
H        -6.46304325    -0.00671144    -0.74984313    -0.00006962     0.00058832    -0.00026001
H        -6.72209873    -1.66489835     0.11857795    -0.00072750    -0.00031811    -0.00000405
H        -4.19753138    -1.48988446     0.70376641     0.00053798     0.00019409    -0.00021630
C        -3.86989864     0.45811251    -0.04871083     0.00003125     0.00007186     0.00009780
C        -2.54176594     0.52851466     0.29376779     0.00021108    -0.00041500     0.00006573
H        -4.33206095     1.33264979    -0.52855709     0.00094589     0.00067934     0.00023320
H        -2.04134696    -0.34934713     0.71842086     0.00007592     0.00056177     0.00049193
C        -1.81758705     1.67024047    -0.07407947    -0.00050985    -0.00013373     0.00000979
H        -2.29268920     2.53517852    -0.49489704    -0.00021600    -0.00007623     0.00044092
N        -0.49528830     1.81676992     0.18501619     0.00026073     0.00017783    -0.00017565
H         0.03335251     2.67542544    -0.08970287     0.00057096     0.00098137    -0.00083495
H         0.09883566     1.03860892     0.50491988     0.00051983     0.00044705     0.00146873
    14
  Step:     4            Position(A)                                  Velocity(au)
C        -6.04396036    -0.83845215    -0.18965164     0.00004109     0.00010359    -0.00017036
C        -4.79292423    -0.70005706     0.20751440    -0.00016134    -0.00006937     0.00009860
H        -6.46432721    -0.00055731    -0.75309555    -0.00015627     0.00052192    -0.00032457
H        -6.72939533    -1.66785937     0.11825420    -0.00058996    -0.00020431    -0.00006297
H        -4.19257778    -1.48801587     0.70138238     0.00036232     0.00014611    -0.00021907
C        -3.87018456     0.45877342    -0.04770820    -0.00008261     0.00004836     0.00008606
C        -2.53917643     0.52392651     0.29451780     0.00026022    -0.00042144     0.00007045
H        -4.32156730     1.33995774    -0.52583039     0.00096722     0.00065273     0.00026561
H        -2.04051287    -0.34282870     0.72400022     0.00008798     0.00060651     0.00053603
C        -1.82310583     1.66878599    -0.07394046    -0.00049417    -0.00013234     0.00001678
H        -2.29553812     2.53470709    -0.49039872    -0.00031063    -0.00000588     0.00037665
N        -0.49224576     1.81876919     0.18309850     0.00029427     0.00018864    -0.00017576
H         0.03859533     2.68489668    -0.09847211     0.00036894     0.00071889    -0.00075695
H         0.10385097     1.04402661     0.52075905     0.00038591     0.00055737     0.00141785
    14
  Step:     5            Position(A)                                  Velocity(au)
C        -6.04396706    -0.83731584    -0.19159432    -0.00004361     0.00010409    -0.00018498
C        -4.79394701    -0.70069986     0.20871010    -0.00002592    -0.00004713     0.00011933
H        -6.46646197     0.00470664    -0.75694364    -0.00022580     0.00042782    -0.00036875
H        -6.73500530    -1.66936792     0.11720034    -0.00042469    -0.00005984    -0.00013549
H        -4.18960494    -1.48668805     0.69897374     0.00017940     0.00009399    -0.00021843
C        -3.87170585     0.45917051    -0.04682820    -0.00019382     0.00002353     0.00007552
C        -2.53607316     0.51929482     0.29530896     0.00030480    -0.00042252     0.00007303
H        -4.31090110     1.34692945    -0.52274632     0.00097590     0.00061932     0.00029708
H        -2.03942226    -0.33607857     0.73014747     0.00012364     0.00060289     0.00059610
C        -1.82839789     1.66734533    -0.07371234    -0.00046910    -0.00013115     0.00002598
H        -2.29948474     2.53504978    -0.48665713    -0.00041330     0.00006765     0.00030509
N        -0.48885051     1.82089677     0.18117121     0.00032423     0.00020069    -0.00017726
H         0.04142380     2.69115246    -0.10626261     0.00013978     0.00040921    -0.00066078
H         0.10727817     1.05080236     0.53593804     0.00023523     0.00068846     0.00135095
    14
  Step:     6            Position(A)                                  Velocity(au)
C        -6.04491444    -0.83617491    -0.19369838    -0.00012863     0.00010495    -0.00019948
C        -4.79349123    -0.70108803     0.21012487     0.00010672    -0.00002289     0.00013798
H        -6.46926710     0.00880197    -0.76116268    -0.00027996     0.00031139    -0.00039300
H        -6.73868613    -1.66916845     0.11529008    -0.00024306     0.00010065    -0.00021736
H        -4.18865296    -1.48595956     0.69660388    -0.00000348     0.00003529    -0.00020985
C        -3.87442466     0.45928811    -0.04605611    -0.00030092    -0.00000286     0.00006643
C        -2.53250840     0.51468302     0.29611554     0.00034463    -0.00041753     0.00007314
H        -4.30021764     1.35350656    -0.51933113     0.00096908     0.00058195     0.00032489
H        -2.03780805    -0.32963924     0.73704103     0.00018324     0.00055071     0.00067191
C        -1.83336834     1.66591679    -0.07337201    -0.00043621    -0.00013009     0.00003717
H        -2.30457974     2.53618696    -0.48372438    -0.00051697     0.00013413     0.00023139
N        -0.48515262     1.82315965     0.17922062     0.00034870     0.00021281    -0.00017988
H         0.04165331     2.69384902    -0.11292784    -0.00009617     0.00008390    -0.00055624
H         0.10899716     1.05908789     0.55031366     0.00007962     0.00082624     0.00127449
    14
  Step:     7            Position(A)                                  Velocity(au)
C        -6.04678107    -0.83501993    -0.19595824    -0.00020953     0.00010710    -0.00021306
C        -4.79161223    -0.70120052     0.21172876     0.00023221     0.00000324     0.00015328
H        -6.47258657     0.01151887    -0.76554131    -0.00032127     0.00017945    -0.00039931
H        -6.74032261    -1.66716609     0.11244523    -0.00005683     0.00026262    -0.00030395
H        -4.18968114    -1.48591591     0.69438292    -0.00017903    -0.00003236    -0.00018957
C        -3.87828902     0.45910804    -0.04537490    -0.00040279    -0.00003101     0.00005899
C        -2.52853369     0.51016061     0.29690914     0.00038004    -0.00040612     0.00007068
H        -4.28970066     1.35966063    -0.51563863     0.00094444     0.00054312     0.00034687
H        -2.03541361    -0.32403080     0.74484687     0.00026426     0.00045467     0.00076118
C        -1.83794089     1.66449942    -0.07289915    -0.00039723    -0.00012912     0.00005008
H        -2.31079451     2.53798402    -0.48159513    -0.00061459     0.00018347     0.00016058
N        -0.48122199     1.82555233     0.17723602     0.00036594     0.00022384    -0.00018333
H         0.03931987     2.69298791    -0.11843139    -0.00031903    -0.00022556    -0.00045363
H         0.10901996     1.06887801     0.56382003    -0.00006901     0.00095662     0.00119592
    14
  Step:     8            Position(A)                                  Velocity(au)
C        -6.04949834    -0.83383196    -0.19835941    -0.00028229     0.00011133    -0.00022496
C        -4.78841118    -0.70101722     0.21347812     0.00034672     0.00003118     0.00016406
H        -6.47629551     0.01272771    -0.76989829    -0.00035275     0.00003954    -0.00039112
H        -6.73992951    -1.66342306     0.10864050     0.00012201     0.00041195    -0.00039018
H        -4.19256960    -1.48666742     0.69245664    -0.00034034    -0.00011095    -0.00015507
C        -3.88323649     0.45860972    -0.04476563    -0.00049859    -0.00006112     0.00005336
C        -2.52419440     0.50579827     0.29766179     0.00041171    -0.00038849     0.00006582
H        -4.27955618     1.36538841    -0.51174278     0.00090028     0.00050480     0.00036157
H        -2.03202675    -0.31969253     0.75369319     0.00036116     0.00032469     0.00085921
C        -1.84205852     1.66309213    -0.07227650    -0.00035382    -0.00012827     0.00006441
H        -2.31802501     2.54020073    -0.48021148    -0.00069976     0.00020708     0.00009698
N        -0.47714689     1.82805664     0.17520990     0.00037435     0.00023260    -0.00018731
H         0.03467389     2.68891448    -0.12285189    -0.00050961    -0.00048796    -0.00036366
H         0.10748742     1.08001575     0.57647675    -0.00019944     0.00106644     0.00112312
    14
  Step:     9            Position(A)                                  Velocity(au)
C        -6.05295680    -0.83258432    -0.20087972    -0.00034363     0.00011828    -0.00023460
C        -4.78402717    -0.70051844     0.21531796     0.00044729     0.00006088     0.00016949
H        -6.48030365     0.01238386    -0.77409782    -0.00037761    -0.00010052    -0.00037307
H        -6.73765333    -1.65815389     0.10390922     0.00028155     0.00053497    -0.00047049
H        -4.19712671    -1.48834319     0.69099048    -0.00048151    -0.00020166    -0.00010532
C        -3.88919659     0.45777086    -0.04420753    -0.00058755    -0.00009327     0.00004973
C        -2.51952677     0.50166156     0.29834917     0.00044043    -0.00036543     0.00005905
H        -4.27000524     1.37070414    -0.50772851     0.00083559     0.00046808     0.00036840
H        -2.02751256    -0.31692764     0.76364378     0.00046575     0.00017499     0.00095910
C        -1.84568142     1.66169330    -0.07149008    -0.00030732    -0.00012754     0.00007986
H        -2.32610309     2.54251432    -0.47947353    -0.00076740     0.00019886     0.00004379
N        -0.47303238     1.83064086     0.17313823     0.00037245     0.00023781    -0.00019148
H         0.02817110     2.68231295    -0.12638712    -0.00065008    -0.00067336    -0.00029712
H         0.10465690     1.09220833     0.58839051    -0.00030198     0.00114454     0.00106374
    14
  Step:    10            Position(A)                                  Velocity(au)
C        -6.05701598    -0.83124430    -0.20349181    -0.00039123     0.00012842    -0.00024164
C        -4.77862596    -0.69968532     0.21718594     0.00053204     0.00009219     0.00016909
H        -6.48455652     0.01052874    -0.77805983    -0.00039910    -0.00023299    -0.00035061
H        -6.73377012    -1.65171949     0.09834770     0.00041025     0.00061878    -0.00053905
H        -4.20310365    -1.49107913     0.69015257    -0.00059829    -0.00030426    -0.00004101
C        -3.89609036     0.45656926    -0.04367776    -0.00066880    -0.00012732     0.00004829
C        -2.51455916     0.49780387     0.29895352     0.00046666    -0.00033836     0.00005105
H        -4.26127597     1.37562851    -0.50368330     0.00075012     0.00043301     0.00036751
H        -2.02183768    -0.31586418     0.77467524     0.00056828     0.00002231     0.00105230
C        -1.84878181     1.66030201    -0.07052935    -0.00025848    -0.00012672     0.00009610
H        -2.33481326     2.54455125    -0.47925356    -0.00081405     0.00015579     0.00000284
N        -0.46899885     1.83325912     0.17102085     0.00035897     0.00023822    -0.00019550
H         0.02045213     2.67418337    -0.12935188    -0.00072545    -0.00075561    -0.00026398
H         0.10088095     1.10505465     0.59974817    -0.00036944     0.00118285     0.00102430
    14
  Step:    11            Position(A)                                  Velocity(au)
C        -6.06151571    -0.82977492    -0.20616596    -0.00042380     0.00014204    -0.00024597
C        -4.77238779    -0.69850156     0.21901724     0.00060017     0.00012472     0.00016292
H        -6.48903467     0.00728669    -0.78176799    -0.00042036    -0.00035054    -0.00032958
H        -6.72867829    -1.64461684     0.09211643     0.00049772     0.00065170    -0.00059031
H        -4.21021535    -1.49499944     0.69009320    -0.00068857    -0.00041653     0.00003540
C        -3.90382788     0.45498539    -0.04315115    -0.00074115    -0.00016288     0.00004924
C        -2.50931761     0.49425927     0.29946589     0.00049030    -0.00030925     0.00004267
H        -4.25359487     1.38017714    -0.49968850     0.00064445     0.00039857     0.00035968
H        -2.01508029    -0.31643957     0.78666490     0.00065891    -0.00011656     0.00112977
C        -1.85133613     1.65892106    -0.06938771    -0.00020741    -0.00012536     0.00011275
H        -2.34391204     2.54592244    -0.47941130    -0.00083803     0.00007794    -0.00002537
N        -0.46517922     1.83585233     0.16886131     0.00033310     0.00023282    -0.00019906
H         0.01230054     2.66578260    -0.13216218    -0.00072607    -0.00071661    -0.00027175
H         0.09657478     1.11808535     0.61079904    -0.00039801     0.00117752     0.00100917
    14
  Step:    12            Position(A)                                  Velocity(au)
C        -6.06628738    -0.82813682    -0.20887282    -0.00044104     0.00015925    -0.00024769
C        -4.76549614    -0.69695682     0.22075009     0.00065176     0.00015774     0.00015143
H        -6.49375264     0.00285998    -0.78527009    -0.00044433    -0.00044648    -0.00031566
H        -6.72288147    -1.63746235     0.08543352     0.00053598     0.00062454    -0.00061970
H        -4.21816753    -1.50019153     0.69092692    -0.00075271    -0.00053389     0.00011986
C        -3.91230434     0.45300590    -0.04260061    -0.00080316    -0.00019923     0.00005270
C        -2.50383293     0.49103845     0.29988700     0.00051069    -0.00028023     0.00003478
H        -4.24717736     1.38434799    -0.49581451     0.00051991     0.00036270     0.00034618
H        -2.00742266    -0.31841410     0.79939116     0.00072913    -0.00022716     0.00118322
C        -1.85331937     1.65755957    -0.06806266    -0.00015388    -0.00012284     0.00012944
H        -2.35314669     2.54625630    -0.47980860    -0.00083926    -0.00003177    -0.00004161
N        -0.46171170     1.83835250     0.16666610     0.00029488     0.00022121    -0.00020197
H         0.00456805     2.65850624    -0.13529687    -0.00065067    -0.00055205    -0.00032315
H         0.09217371     1.13081526     0.62182559    -0.00038806     0.00112983     0.00101963
    14
  Step:    13            Position(A)                                  Velocity(au)
C        -6.07116427    -0.82629110    -0.21158472    -0.00044355     0.00017981    -0.00024699
C        -4.75812932    -0.69505069     0.22233016     0.00068753     0.00019014     0.00013549
H        -6.49875528    -0.00248093    -0.78867355    -0.00047350    -0.00051526    -0.00031383
H        -6.71695270    -1.63095391     0.07855940     0.00052108     0.00053249    -0.00062444
H        -4.22668227    -1.50667922     0.69271537    -0.00079319    -0.00064933     0.00020700
C        -3.92139853     0.45062687    -0.04199813    -0.00085337    -0.00023537     0.00005870
C        -2.49814537     0.48812864     0.30022678     0.00052690    -0.00025327     0.00002814
H        -4.24222075     1.38811192    -0.49211508     0.00037844     0.00032267     0.00032861
H        -1.99912913    -0.32140916     0.81255007     0.00077290    -0.00029927     0.00120632
C        -1.85470261     1.65623370    -0.06655595    -0.00009759    -0.00011860     0.00014580
H        -2.36227248     2.54522747    -0.48032154    -0.00081912    -0.00016807    -0.00004760
N        -0.45872819     1.84069171     0.16444274     0.00024556     0.00020396    -0.00020430
H        -0.00193409     2.65370547    -0.13923181    -0.00050887    -0.00027648    -0.00041397
H         0.08808522     1.14280259     0.63310529    -0.00034432     0.00104642     0.00105328
    14
  Step:    14            Position(A)                                  Velocity(au)
C        -6.07599093    -0.82420311    -0.21427617    -0.00043276     0.00020311    -0.00024402
C        -4.75045508    -0.69279708     0.22371430     0.00070854     0.00022042     0.00011623
H        -6.50411136    -0.00841234    -0.79213581    -0.00050966    -0.00055295    -0.00032797
H        -6.71148193    -1.62581314     0.07177279     0.00045464     0.00037711    -0.00060440
H        -4.23552015    -1.51439687     0.69545554    -0.00081416    -0.00075393     0.00029060
C        -3.93097355     0.44785663    -0.04131652    -0.00089041    -0.00027005     0.00006705
C        -2.49230603     0.48549758     0.30050270     0.00053795    -0.00022987     0.00002332
H        -4.23889828     1.39140704    -0.48862546     0.00022245     0.00027542     0.00030867
H        -1.99051409    -0.32496125     0.82578177     0.00078720    -0.00032774     0.00119545
C        -1.85545433     1.65496494    -0.06487308    -0.00003845    -0.00011230     0.00016151
H        -2.37106657     2.54257954    -0.48084999    -0.00078008    -0.00032394    -0.00004581
N        -0.45633956     1.84281462     0.16219675     0.00018770     0.00018281    -0.00020634
H        -0.00656439     2.65245770    -0.14435335    -0.00032150     0.00007513    -0.00053204
H         0.08464115     1.15370767     0.64486820    -0.00027550     0.00093881     0.00110396
    14
  Step:    15            Position(A)                                  Velocity(au)
C        -6.08063178    -0.82184763    -0.21692304    -0.00041081     0.00022804    -0.00023883
C        -4.74262864    -0.69022867     0.22487303     0.00071587     0.00024667     0.00009496
H        -6.50990503    -0.01457783    -0.79584858    -0.00055366    -0.00055778    -0.00036029
H        -6.70700667    -1.62270383     0.06533704     0.00034490     0.00016801    -0.00056267
H        -4.24449361    -1.52317285     0.69907274    -0.00082046    -0.00083789     0.00036416
C        -3.94087795     0.44471902    -0.04053128    -0.00091303    -0.00030170     0.00007743
C        -2.48637658     0.48309986     0.30073701     0.00054300    -0.00021091     0.00002064
H        -4.23735419     1.39413735    -0.48536237     0.00005473     0.00021801     0.00028795
H        -1.98190756    -0.32857917     0.83870290     0.00077196    -0.00031229     0.00114984
C        -1.85554385     1.65377689    -0.06302253     0.00002331    -0.00010390     0.00017637
H        -2.37933817     2.53814076    -0.48132380    -0.00072536    -0.00049122    -0.00003916
N        -0.45462181     1.84469109     0.15992872     0.00012486     0.00016041    -0.00020864
H        -0.00896749     2.65534900    -0.15087121    -0.00011767     0.00045186    -0.00065857
H         0.08205806     1.16334075     0.65725661    -0.00019329     0.00082195     0.00116221
    14
  Step:    16            Position(A)                                  Velocity(au)
C        -6.08497818    -0.81921436    -0.21950113    -0.00038036     0.00025303    -0.00023137
C        -4.73479400    -0.68740065     0.22579170     0.00071037     0.00026675     0.00007300
H        -6.51622380    -0.02061478    -0.80001781    -0.00060517    -0.00053055    -0.00041100
H        -6.70393652    -1.62213752     0.05946334     0.00020643    -0.00007704    -0.00050545
H        -4.25346931    -1.53272731     0.70342231    -0.00081670    -0.00089195     0.00042181
C        -3.95094780     0.44125629    -0.03962249    -0.00092020    -0.00032854     0.00008935
C        -2.48042690     0.48088346     0.30095413     0.00054143    -0.00019673     0.00002016
H        -4.23770090     1.39617649    -0.48232610    -0.00012176     0.00014807     0.00026780
H        -1.97362596    -0.33179319     0.85093671     0.00072946    -0.00025667     0.00107132
C        -1.85494444     1.65269183    -0.06101471     0.00008721    -0.00009369     0.00019023
H        -2.38693528     2.53183306    -0.48170661    -0.00065871    -0.00066121    -0.00003081
N        -0.45360790     1.84632384     0.15763244     0.00006100     0.00013974    -0.00021177
H        -0.00913869     2.66234294    -0.15876093     0.00007108     0.00079709    -0.00077192
H         0.08041261     1.17168948     0.67029375    -0.00011065     0.00071210     0.00121646
    14
  Step:    17            Position(A)                                  Velocity(au)
C        -6.08895278    -0.81631222    -0.22198480    -0.00034431     0.00027625    -0.00022149
C        -4.72708793    -0.68439304     0.22647012     0.00069248     0.00027835     0.00005162
H        -6.52314420    -0.02618467    -0.80484007    -0.00066241    -0.00047497    -0.00047807
H        -6.70249060    -1.62438932     0.05427929     0.00005820    -0.00033399    -0.00044123
H        -4.26236038    -1.54268594     0.70830056    -0.00080645    -0.00090874     0.00045896
C        -3.96100918     0.43753159    -0.03857649    -0.00091117    -0.00034860     0.00010218
C        -2.47453172     0.47879607     0.30117810     0.00053300    -0.00018709     0.00002178
H        -4.24001798     1.39737673    -0.47950382    -0.00030404     0.00006425     0.00024923
H        -1.96594919    -0.33419435     0.86214009     0.00066374    -0.00016770     0.00096394
C        -1.85363592     1.65172734    -0.05886087     0.00015258    -0.00008220     0.00020307
H        -2.39374868     2.52367554    -0.48199777    -0.00058410    -0.00082507    -0.00002405
N        -0.45328732     1.84774816     0.15529574    -0.00000022     0.00012341    -0.00021616
H        -0.00741257     2.67278691    -0.16775837     0.00021746     0.00106095    -0.00085239
H         0.07963735     1.17891936     0.68386906    -0.00004000     0.00062428     0.00125475
    14
  Step:    18            Position(A)                                  Velocity(au)
C        -6.09251057    -0.81317083    -0.22434665    -0.00030550     0.00029594    -0.00020907
C        -4.71964477    -0.68131115     0.22692095     0.00066223     0.00027928     0.00003186
H        -6.53071530    -0.03100576    -0.81047645    -0.00072215    -0.00039759    -0.00055709
H        -6.70266329    -1.62944411     0.04981066    -0.00007953    -0.00057610    -0.00037926
H        -4.27111202    -1.55260781     0.71346290    -0.00079192    -0.00088384     0.00047289
C        -3.97088142     0.43362997    -0.03738713    -0.00088551    -0.00035994     0.00011520
C        -2.46876653     0.47679047     0.30143052     0.00051781    -0.00018136     0.00002518
H        -4.24435235     1.39758214    -0.47687378    -0.00048916    -0.00003348     0.00023284
H        -1.95910536    -0.33546184     0.87202468     0.00057989    -0.00005412     0.00083335
C        -1.85160646     1.65089362    -0.05657208     0.00021859    -0.00007020     0.00021495
H        -2.39971368     2.51378312    -0.48223282    -0.00050560    -0.00097431    -0.00002216
N        -0.45361282     1.84902373     0.15290348    -0.00005596     0.00011308    -0.00022187
H        -0.00438137     2.68555334    -0.17740859     0.00030345     0.00121017    -0.00088641
H         0.07953748     1.18534688     0.69774387     0.00000855     0.00057012     0.00126651
    14
  Step:    19            Position(A)                                  Velocity(au)
C        -6.09563624    -0.80983803    -0.22655857    -0.00026641     0.00031068    -0.00019415
C        -4.71260047    -0.67828322     0.22716717     0.00061939     0.00026766     0.00001454
H        -6.53894255    -0.03488280    -0.81702757    -0.00077980    -0.00030726    -0.00064166
H        -6.70423054    -1.63699267     0.04598232    -0.00018883    -0.00077865    -0.00032789
H        -4.27968516    -1.56202170     0.71864603    -0.00077385    -0.00081631     0.00046295
C        -3.98038133     0.42965732    -0.03605637    -0.00084317    -0.00036079     0.00012768
C        -2.46320355     0.47482853     0.30172904     0.00049630    -0.00017856     0.00002997
H        -4.25071936     1.39664433    -0.47441002    -0.00067431    -0.00014369     0.00021879
H        -1.95326294    -0.33537844     0.88037127     0.00048352     0.00007420     0.00068633
C        -1.84885380     1.65019147    -0.05415846     0.00028433    -0.00005861     0.00022596
H        -2.40480954     2.50236073    -0.48248247    -0.00042707    -0.00110118    -0.00002819
N        -0.45451164     1.85022194     0.15044184    -0.00010443     0.00010925    -0.00022862
H        -0.00077406     2.69926170    -0.18715023     0.00032202     0.00123197    -0.00086836
H         0.07982436     1.19139192     0.71157646     0.00002840     0.00055643     0.00124412
    14
  Step:    20            Position(A)                                  Velocity(au)
C        -6.09833874    -0.80637405    -0.22859412    -0.00022891     0.00031971    -0.00017702
C        -4.70609439    -0.67545561     0.22723907     0.00056370     0.00024218     0.00000017
H        -6.54777492    -0.03772777    -0.82451400    -0.00082989    -0.00021414    -0.00072398
H        -6.70679430    -1.64647858     0.04263751    -0.00025684    -0.00092273    -0.00029320
H        -4.28804152    -1.57046612     0.72359090    -0.00075181    -0.00070876     0.00043048
C        -3.98932742     0.42573702    -0.03459379    -0.00078456    -0.00034985     0.00013901
C        -2.45790896     0.47288404     0.30208615     0.00046909    -0.00017755     0.00003562
H        -4.25910427     1.39443873    -0.47208723    -0.00085682    -0.00026350     0.00020682
H        -1.94852736    -0.33383858     0.88703945     0.00038044     0.00020691     0.00053037
C        -1.84538625     1.64961149    -0.05162880     0.00034879    -0.00004832     0.00023622
H        -2.40905659     2.48969277    -0.48284958    -0.00035200    -0.00119914    -0.00004486
N        -0.45589732     1.85141375     0.14790191    -0.00014482     0.00011149    -0.00023587