 Fermi distribution function

Calculation with static geometry


********************************************************************************
 iSCC Total electronic   Diff electronic      SCC error    
   12   -0.53743258E+01   -0.76383344E-13    0.11292309E-08
********************************************************************************

 Total charge:     1.00000000

 Atomic gross charges (e)
 Atom           Charge
    1       0.33915153
    2      -0.22631789
    3       0.15799922
    4       0.30650932
    5       0.27304733
    6       0.14961048

Nr. of electrons (up):     12.00000000
Atom populations (up)
 Atom       Population
    1       3.66084847
    2       5.22631789
    3       0.84200078
    4       0.69349068
    5       0.72695267
    6       0.85038952

l-shell populations (up)
 Atom Sh.   l       Population
    1   1   0       1.31721385
    1   2   1       2.34363462
    2   1   0       1.43527694
    2   2   1       3.79104095
    3   1   0       0.84200078
    4   1   0       0.69349068
    5   1   0       0.72695267
    6   1   0       0.85038952

Orbital populations (up)
 Atom Sh.   l   m       Population  Label
    1   1   0   0       1.31721385  s
    1   2   1  -1       0.50932248  p_y
    1   2   1   0       0.89521408  p_z
    1   2   1   1       0.93909806  p_x
    2   1   0   0       1.43527694  s
    2   2   1  -1       1.33139726  p_y
    2   2   1   0       1.09534393  p_z
    2   2   1   1       1.36429975  p_x
    3   1   0   0       0.84200078  s
    4   1   0   0       0.69349068  s
    5   1   0   0       0.72695267  s
    6   1   0   0       0.85038952  s

Fermi level:                        -0.4900254703 H          -13.3343 eV
Band energy:                        -8.8180132756 H         -239.9503 eV
TS:                                  0.0000000000 H            0.0000 eV
Band free energy (E-TS):            -8.8180132756 H         -239.9503 eV
Extrapolated E(0K):                 -8.8180132756 H         -239.9503 eV
Input / Output electrons (q):     12.0000000000     12.0000000000

Energy H0:                          -5.5085674728 H         -149.8957 eV
Energy SCC:                          0.1342416369 H            3.6529 eV
Total Electronic energy:            -5.3743258359 H         -146.2428 eV
Repulsive energy:                    0.1803338822 H            4.9071 eV
Total energy:                       -5.1939919538 H         -141.3357 eV
Extrapolated to 0:                  -5.1939919538 H         -141.3357 eV
Total Mermin free energy:           -5.1939919538 H         -141.3357 eV
Force related energy:               -5.1939919538 H         -141.3357 eV

SCC converged

Excitation Energy:                   0.0945791035 H            2.5736 eV

Total Forces
    1     -0.004003484110      0.003164609046      0.035643195193
    2      0.001680451710     -0.010542220563     -0.041402499914
    3     -0.007212240663      0.015167477351      0.005648575852
    4     -0.011655499925     -0.010304635389      0.001679517877
    5      0.012769589128      0.017617324980     -0.003129118731
    6      0.008421183861     -0.015102555424      0.001560329723

Maximal derivative component:        0.414025E-01 au


