     6
  Step:     0            Position(A)                                  Velocity(au)
C        -0.04095308    -0.00040749     0.02815372     0.00006289    -0.00000942    -0.00034632
N        -0.04572628    -0.04241466     1.28903709    -0.00017238     0.00001919     0.00020168
H         0.94129104     0.05021333    -0.50652138    -0.00057336     0.00004258     0.00055522
H         0.83781492    -0.18375760     1.81820709     0.00145849    -0.00027957     0.00112038
H        -0.91213005    -0.05980913     1.85073286     0.00098792    -0.00001608    -0.00037510
H        -0.95648560     0.11783995    -0.51877155    -0.00022701     0.00009860     0.00002364
     6
  Step:     1            Position(A)                                  Velocity(au)
C        -0.04016440    -0.00052335     0.02362752     0.00007981    -0.00001217    -0.00047193
N        -0.04757913    -0.04220908     1.29199579    -0.00015835     0.00001799     0.00033252
H         0.93502456     0.05085296    -0.50106180    -0.00054836     0.00007585     0.00042596
H         0.85342899    -0.18695125     1.83066659     0.00132877    -0.00029314     0.00111276
H        -0.90132286    -0.06006798     1.84689440     0.00093314    -0.00003278    -0.00028757
H        -0.96029059     0.11917608    -0.52003291    -0.00046417     0.00014509    -0.00024845
     6
  Step:     2            Position(A)                                  Velocity(au)
C        -0.03920704    -0.00067378     0.01782932     0.00009271    -0.00001569    -0.00057705
N        -0.04919042    -0.04202113     1.29631166    -0.00012942     0.00001623     0.00044695
H         0.92929469     0.05187276    -0.49720270    -0.00047491     0.00011215     0.00026288
H         0.86688436    -0.19017054     1.84255079     0.00108074    -0.00028695     0.00102600
H        -0.89171590    -0.06052633     1.84444167     0.00076902    -0.00005266    -0.00012229
H        -0.96664021     0.12101415    -0.52420688    -0.00068117     0.00018885    -0.00050150
     6
  Step:     3            Position(A)                                  Velocity(au)
C        -0.03813623    -0.00086670     0.01100347     0.00009980    -0.00001987    -0.00065890
N        -0.05041037    -0.04185394     1.30177378    -0.00008854     0.00001441     0.00054048
H         0.92463502     0.05330645    -0.49531073    -0.00035473     0.00015150     0.00006816
H         0.87707233    -0.19322876     1.85311226     0.00074820    -0.00026641     0.00088177
H        -0.88449910    -0.06122009     1.84421909     0.00050541    -0.00007572     0.00011324
H        -0.97519244     0.12330745    -0.53100429    -0.00085767     0.00022701    -0.00072239
     6
  Step:     4            Position(A)                                  Velocity(au)
C        -0.03702377    -0.00110839     0.00341453     0.00009999    -0.00002452    -0.00071655
N        -0.05112747    -0.04170581     1.30813575    -0.00003972     0.00001291     0.00061118
H         0.92153427     0.05518706    -0.49571155    -0.00019484     0.00019370    -0.00015267
H         0.88325257    -0.19599872     1.86184118     0.00036342    -0.00023681     0.00070093
H        -0.88065902    -0.06218279     1.84691905     0.00016992    -0.00010145     0.00039871
H        -0.98540329     0.12598046    -0.54001059    -0.00097806     0.00025730    -0.00090182
     6
  Step:     5            Position(A)                                  Velocity(au)
C        -0.03594868    -0.00140318    -0.00467233     0.00009312    -0.00002948    -0.00075061
N        -0.05127936    -0.04157147     1.31514460     0.00001220     0.00001200     0.00065948
H         0.92037254     0.05754396    -0.49865071    -0.00000794     0.00023826    -0.00039067
H         0.88502274    -0.19840948     1.86844642    -0.00004385    -0.00020321     0.00050267
H        -0.88078167    -0.06343950     1.85294162    -0.00019444    -0.00012881     0.00070299
H        -0.99658944     0.12893632    -0.55073338    -0.00103302     0.00027815    -0.00103500
     6
  Step:     6            Position(A)                                  Velocity(au)
C        -0.03498650    -0.00175327    -0.01300660     0.00007994    -0.00003454    -0.00076297
N        -0.05086053    -0.04144318     1.32256312     0.00006197     0.00001189     0.00068738
H         0.92136062     0.06039945    -0.50425818     0.00018839     0.00028437    -0.00063409
H         0.88229319    -0.20044432     1.87283802    -0.00044542    -0.00017061     0.00030501
H        -0.88491276    -0.06500086     1.86229821    -0.00053711    -0.00015631     0.00098986
H        -1.00800263     0.13206557    -0.56265317    -0.00101959     0.00028879    -0.00112132
     6
  Step:     7            Position(A)                                  Velocity(au)
C        -0.03419977    -0.00215879    -0.02136378     0.00005945    -0.00003195    -0.00086716
N        -0.04992374    -0.04131126     1.33018243     0.00010805     0.00000860     0.00078760
H         0.92449391     0.06376515    -0.51252262     0.00031459     0.00038705    -0.00078411
H         0.87527833    -0.20214191     1.87511901    -0.00087861    -0.00021687     0.00008215
H        -0.89253187    -0.06685902     1.87459666    -0.00077938    -0.00009553     0.00118399
H        -1.01889494     0.13525405    -0.57526438    -0.00086646     0.00018653    -0.00109371
     6
  Step:     8            Position(A)                                  Velocity(au)
C        -0.03368600    -0.00245222    -0.03197732     0.00003304    -0.00002137    -0.00106462
N        -0.04849678    -0.04125508     1.33979334     0.00014600     0.00000209     0.00096187
H         0.92824290     0.06886688    -0.52141207     0.00036000     0.00051402    -0.00083534
H         0.86307194    -0.20518872     1.87463518    -0.00130620    -0.00031417    -0.00014553
H        -0.90196320    -0.06709078     1.88820030    -0.00089265     0.00002469     0.00125943
H        -1.02695814     0.13614618    -0.58658011    -0.00058372     0.00000098    -0.00095903
     6
  Step:     9            Position(A)                                  Velocity(au)
C        -0.03347703    -0.00262631    -0.04465433     0.00000494    -0.00001045    -0.00123849
N        -0.04672970    -0.04126546     1.35122519     0.00016845    -0.00000295     0.00111436
H         0.93236956     0.07501022    -0.53079727     0.00038512     0.00059567    -0.00087562
H         0.84670271    -0.20901499     1.87193515    -0.00161284    -0.00038533    -0.00030582
H        -0.91206021    -0.06631890     1.90214902    -0.00090427     0.00010640     0.00125654
H        -1.03166490     0.13527552    -0.59624497    -0.00026768    -0.00015131    -0.00080266
     6
  Step:    10            Position(A)                                  Velocity(au)
C        -0.03357801    -0.00268083    -0.05907171    -0.00002258     0.00000037    -0.00138177
N        -0.04481166    -0.04131956     1.36417199     0.00017222    -0.00000540     0.00123695
H         0.93666819     0.08189831    -0.54056795     0.00039190     0.00065570    -0.00090643
H         0.82778797    -0.21361854     1.86794472    -0.00174628    -0.00046880    -0.00036658
H        -0.92174581    -0.06476314     1.91568959    -0.00082436     0.00017338     0.00119229
H        -1.03281411     0.13283608    -0.60413985     0.00005457    -0.00028973    -0.00064325
     6
  Step:    11            Position(A)                                  Velocity(au)
C        -0.03397110    -0.00261820    -0.07488314    -0.00004746     0.00001090    -0.00149391
N        -0.04296202    -0.04138355     1.37828595     0.00015526    -0.00000429     0.00132746
H         0.94094321     0.08935484    -0.55062726     0.00038133     0.00070200    -0.00092908
H         0.80849952    -0.21927085     1.86391554    -0.00166258    -0.00058609    -0.00030285
H        -0.93009472    -0.06252596     1.92823256    -0.00066983     0.00023295     0.00108236
H        -1.03047106     0.12893709    -0.61031723     0.00035898    -0.00041914    -0.00049572
     6
  Step:    12            Position(A)                                  Velocity(au)
C        -0.03461619    -0.00244238    -0.09175394    -0.00006765     0.00002099    -0.00157671
N        -0.04141502    -0.04141346     1.39321267     0.00011756     0.00000112     0.00138657
H         0.94501046     0.09725596    -0.56089335     0.00035464     0.00073829    -0.00094501
H         0.79141575    -0.22644043     1.86131932    -0.00134118    -0.00075149    -0.00010473
H        -0.93639964    -0.05966694     1.93936818    -0.00046258     0.00028772     0.00094359
H        -1.02496064     0.12366652    -0.61498461     0.00062156    -0.00054035    -0.00037391
     6
  Step:    13            Position(A)                                  Velocity(au)
C        -0.03545108    -0.00215892    -0.10937678    -0.00008118     0.00003051    -0.00163288
N        -0.04039016    -0.04135897     1.40861978     0.00006243     0.00001104     0.00141751
H         0.94870173     0.10550643    -0.57130118     0.00031360     0.00076670    -0.00095584
H         0.77915854    -0.23571122     1.86162441    -0.00080375    -0.00096949     0.00021284
H        -0.94021459    -0.05623161     1.94887530    -0.00022787     0.00033834     0.00079324
H        -1.01687321     0.11711598    -0.61849720     0.00081777    -0.00065262    -0.00029101
     6
  Step:    14            Position(A)                                  Velocity(au)
C        -0.03639209    -0.00177490    -0.12747627    -0.00008618     0.00003933    -0.00166522
N        -0.04004925    -0.04117188     1.42422340    -0.00000282     0.00002472     0.00142562
H         0.95187103     0.11402899    -0.58180410     0.00026056     0.00078860    -0.00096331
H         0.77383218    -0.24764979     1.86597558    -0.00012453    -0.00123061     0.00060596
H        -0.94138478    -0.05226513     1.95672172     0.00000671     0.00038469     0.00064837
H        -1.00707046     0.10938931    -0.62135101     0.00092339    -0.00075500    -0.00025916
     6
  Step:    15            Position(A)                                  Velocity(au)
C        -0.03733643    -0.00129841    -0.14580668    -0.00008118     0.00004740    -0.00167621
N        -0.04045190    -0.04081808     1.43980803    -0.00006773     0.00004041     0.00141735
H         0.95440194     0.12275850    -0.59237540     0.00019857     0.00080504    -0.00096930
H         0.77643410    -0.26263322     1.87488096     0.00058006    -0.00151075     0.00100974
H        -0.94006777    -0.04781588     1.96305962     0.00021247     0.00042638     0.00052525
H        -0.99667229     0.10059900    -0.62416676     0.00091743    -0.00084707    -0.00028801
     6
  Step:    16            Position(A)                                  Velocity(au)
C        -0.03816810    -0.00073802    -0.16414652    -0.00006547     0.00005470    -0.00166779
N        -0.04153093    -0.04028780     1.45523074    -0.00012114     0.00005572     0.00139864
H         0.95621518     0.13164074    -0.60300943     0.00013138     0.00081701    -0.00097578
H         0.78652206    -0.28070034     1.88806566     0.00118360    -0.00177665     0.00135721
H        -0.93673663    -0.04293718     1.96821266     0.00036159     0.00046305     0.00043847
H        -0.98699993     0.09085801    -0.62765168     0.00078696    -0.00092958    -0.00038243
     6
  Step:    17            Position(A)                                  Velocity(au)
C        -0.03876874    -0.00010173    -0.18229286    -0.00003960     0.00006137    -0.00164169
N        -0.04310202    -0.03959912     1.47040598    -0.00015419     0.00006834     0.00137361
H         0.95727605     0.14063220    -0.61372235     0.00006331     0.00082553    -0.00098472
H         0.80232760    -0.30150077     1.90457250     0.00158757    -0.00199602     0.00159920
H        -0.93215726    -0.03768583     1.97265207     0.00043017     0.00049447     0.00039958
H        -0.97945613     0.08026275    -0.63253307     0.00053339    -0.00100498    -0.00053983
     6
  Step:    18            Position(A)                                  Velocity(au)
C        -0.03903438     0.00060452    -0.20006166    -0.00000577     0.00006764    -0.00159996
N        -0.04490403    -0.03879273     1.48528117    -0.00016225     0.00007669     0.00134437
H         0.95760027     0.14970088    -0.62455209    -0.00000087     0.00083167    -0.00099807
H         0.82125329    -0.32436716     1.92305124     0.00174431    -0.00214673     0.00171459
H        -0.92732576    -0.03211972     1.97695424     0.00040241     0.00052067     0.00041511
H        -0.97533096     0.06887217    -0.63946140     0.00017770    -0.00107736    -0.00074828
     6
  Step:    19            Position(A)                                  Velocity(au)
C        -0.03889507     0.00137792    -0.21729496     0.00003211     0.00007378    -0.00154527
N        -0.04665166    -0.03792131     1.49981655    -0.00014529     0.00008019     0.00131156
H         0.95725696     0.15882660    -0.63555702    -0.00005637     0.00083650    -0.00101758
H         0.84048775    -0.34846464     1.94208251     0.00165638    -0.00222049     0.00170782
H        -0.92335374    -0.02629523     1.98173335     0.00027534     0.00054180     0.00048429
H        -0.97556859     0.05669350    -0.64890310    -0.00023892    -0.00115134    -0.00098696
     6
  Step:    20            Position(A)                                  Velocity(au)
C        -0.03833202     0.00221862    -0.23386740     0.00006903     0.00008002    -0.00148074
N        -0.04808255    -0.03703850     1.51397410    -0.00010687     0.00007910     0.00127529
H         0.95636707     0.16800090    -0.64681367    -0.00009892     0.00084116    -0.00104459
H         0.85748968    -0.37294462     1.96041297     0.00136019    -0.00222098     0.00159910
H        -0.92130209    -0.02026687     1.98754894     0.00006226     0.00055793     0.00059759
H        -0.98055769     0.04368449    -0.66105298    -0.00066107    -0.00123085    -0.00122948
     6
  Step:    21            Position(A)                                  Velocity(au)
C        -0.03738490     0.00312850    -0.24968894     0.00009992     0.00008639    -0.00140946
N        -0.04898955    -0.03619090     1.52771601    -0.00005281     0.00007426     0.00123579
H         0.95509286     0.17722852    -0.65840938    -0.00012550     0.00084669    -0.00107976
H         0.87024448    -0.39705284     1.97706599     0.00090680    -0.00215931     0.00141439
H        -0.92199170    -0.01408936     1.99480679    -0.00020707     0.00056879     0.00073707
H        -0.99003083     0.02976629    -0.67580042    -0.00103102    -0.00131763    -0.00144948
     6
  Step:    22            Position(A)                                  Velocity(au)
C        -0.03614611     0.00410849    -0.26470197     0.00012074     0.00009269    -0.00133408
N        -0.04923786    -0.03541381     1.54100929     0.00001006     0.00006680     0.00119370
H         0.95362159     0.18652392    -0.67043553    -0.00013489     0.00085382    -0.00112302
H         0.87732774    -0.42018357     1.99135548     0.00034839    -0.00204983     0.00117880
H        -0.92583224    -0.00782341     2.00367377    -0.00049062     0.00057350     0.00087902
H        -1.00311330     0.01485882    -0.69276314    -0.00130145    -0.00141031    -0.00162603
     6
  Step:    23            Position(A)                                  Velocity(au)
C        -0.03474349     0.00515627    -0.27887440     0.00012927     0.00009858    -0.00125655
N        -0.04876943    -0.03472952     1.55383055     0.00007499     0.00005792     0.00114996
H         0.95214188     0.19590741    -0.68297768    -0.00012823     0.00086282    -0.00117334
H         0.87786608    -0.44189688     2.00285450    -0.00026778    -0.00190786     0.00091421
H        -0.93272500    -0.00154296     2.01403709    -0.00074241     0.00057058     0.00099871
H        -1.01850258    -0.00108695    -0.71137298    -0.00144401    -0.00150512    -0.00174687
     6
  Step:    24            Position(A)                                  Velocity(au)
C        -0.03331812     0.00626504    -0.29219131     0.00012522     0.00010364    -0.00117810
N        -0.04759738    -0.03414669     1.56616697     0.00013600     0.00004890     0.00110537
H         0.95081630     0.20539980    -0.69610454    -0.00010913     0.00087348    -0.00122865
H         0.87146950    -0.46192166     2.01135561    -0.00089981    -0.00174917     0.00063946
H        -0.94207398     0.00465915     2.02552247    -0.00092222     0.00055826     0.00107545
H        -1.03470376    -0.01806863    -0.73097919    -0.00145090    -0.00159716    -0.00180851
     6
  Step:    25            Position(A)                                  Velocity(au)
C        -0.03200400     0.00742370    -0.30464768     0.00010989     0.00010756    -0.00109943
N        -0.04579422    -0.03365980     1.57801258     0.00018830     0.00004109     0.00106021
H         0.94975455     0.21501641    -0.70985686    -0.00008338     0.00088502    -0.00128599
H         0.85818097    -0.48016322     2.01684399    -0.00150892    -0.00159094     0.00037182
H        -0.95290029     0.01067009     2.03756455    -0.00100302     0.00053493     0.00109619
H        -1.05024389    -0.03602792    -0.75093763    -0.00133082    -0.00168168    -0.00181422
     6
  Step:    26            Position(A)                                  Velocity(au)
C        -0.03091409     0.00861805    -0.31624354     0.00008552     0.00011010    -0.00102088
N        -0.04347799    -0.03324783     1.58936116     0.00022830     0.00003601     0.00101411
H         0.94899213     0.22476132    -0.72423807    -0.00005832     0.00089623    -0.00134165
H         0.83845900    -0.49672647     2.01948987    -0.00205661    -0.00145335     0.00012859
H        -0.96401693     0.01636185     2.04950363    -0.00097420     0.00049963     0.00105666
H        -1.06381801    -0.05485869    -0.77066872    -0.00110254    -0.00175498    -0.00177117
     6
  Step:    27            Position(A)                                  Velocity(au)
C        -0.03013305     0.00983237    -0.32698132     0.00005478     0.00011121    -0.00094260
N        -0.04079970    -0.03287195     1.60019808     0.00025345     0.00003545     0.00096596
H         0.94847863     0.23462320    -0.73920805    -0.00004178     0.00090561    -0.00139157
H         0.81318863    -0.51195808     2.01965715    -0.00250320    -0.00136102    -0.00007190
H        -0.97421269     0.02160037     2.06068104    -0.00084051     0.00045228     0.00096036
H        -1.07436399    -0.07442141    -0.78968539    -0.00078928    -0.00181469    -0.00168816
     6
  Step:    28            Position(A)                                  Velocity(au)
C        -0.02971563     0.01105090    -0.33686461     0.00002032     0.00011092    -0.00086467
N        -0.03793339    -0.03247230     1.61049328     0.00026206     0.00004143     0.00091419
H         0.94807804     0.24457333    -0.75468124    -0.00004106     0.00091161    -0.00143170
H         0.78369676    -0.52650135     2.01791684    -0.00280947    -0.00134309    -0.00021091
H        -0.98240473     0.02625644     2.07051332    -0.00061846     0.00039383     0.00081625
H        -1.08108507    -0.09455861    -0.80760038    -0.00041486    -0.00185983    -0.00157408
     6
  Step:    29            Position(A)                                  Velocity(au)
C        -0.02968860     0.01225897    -0.34589767    -0.00001548     0.00010938    -0.00078714
N        -0.03506656    -0.03196564     1.62019769     0.00025356     0.00005603     0.00085713
H         0.94758026     0.25456634    -0.77052917    -0.00006200     0.00091285    -0.00145840
H         0.75172619    -0.54134064     2.01504305    -0.00294307    -0.00143023    -0.00027217
H        -0.98774262     0.03021615     2.07853810    -0.00033229     0.00032603     0.00063652
H        -1.08343977    -0.11510885    -0.82412132    -0.00000180    -0.00189066    -0.00143734
     6
  Step:    30            Position(A)                                  Velocity(au)
C        -0.03005431     0.01344375    -0.35408480    -0.00005055     0.00010678    -0.00070996
N        -0.03238621    -0.03124655     1.62924459     0.00022902     0.00008084     0.00079353
H         0.94672158     0.26454356    -0.78658651    -0.00010830     0.00090835    -0.00146876
H         0.71931138    -0.55779030     2.01196265    -0.00289014    -0.00164726    -0.00024752
H        -0.98967417     0.03338888     2.08443852    -0.00001081     0.00025146     0.00043487
H        -1.08112436    -0.13592034    -0.83904484     0.00042892    -0.00190842    -0.00128581
     6
  Step:    31            Position(A)                                  Velocity(au)
C        -0.03079437     0.01459496    -0.36142949    -0.00008315     0.00010338    -0.00063302
N        -0.03005623    -0.03019701     1.63755767     0.00019198     0.00011611     0.00072315
H         0.94521106     0.27443820    -0.80266119    -0.00018119     0.00089769    -0.00146082
H         0.68849882    -0.57737759     2.00962807    -0.00266804    -0.00200123    -0.00014367
H        -0.98797907     0.03571730     2.08805171     0.00031456     0.00017345     0.00022552
H        -1.07405628    -0.15685929    -0.85225094     0.00085769    -0.00191535    -0.00112705
     6
  Step:    32            Position(A)                                  Velocity(au)
C        -0.03187344     0.01570534    -0.36793334    -0.00011188     0.00009948    -0.00055608
N        -0.02818630    -0.02870637     1.64506480     0.00014879     0.00015987     0.00064705
H         0.94275773     0.28418218    -0.81854466    -0.00027951     0.00088107    -0.00143355
H         0.66094288    -0.60157111     2.00881948    -0.00233143    -0.00246927     0.00001377
H        -0.98279267     0.03718340     2.08937229     0.00061068     0.00009584     0.00002291
H        -1.06236068    -0.17782225    -0.86370129     0.00126581    -0.00191475    -0.00096861
     6
  Step:    33            Position(A)                                  Velocity(au)
C        -0.03324201     0.01677130    -0.37359471    -0.00013552     0.00009546    -0.00047876
N        -0.02680119    -0.02669952     1.65171322     0.00010793     0.00020768     0.00056747
H         0.93909615     0.29371324    -0.83402291    -0.00039995     0.00085934    -0.00138695
H         0.63749429    -0.63139767     2.00992926    -0.00196391    -0.00299462     0.00018319
H        -0.97461917     0.03781408     2.08855281     0.00084398     0.00002287    -0.00015872
H        -1.04636424    -0.19874808    -0.87344124     0.00163489    -0.00191112    -0.00081840
     6
  Step:    34            Position(A)                                  Velocity(au)
C        -0.03483830     0.01779373    -0.37840705    -0.00015303     0.00009176    -0.00040054
N        -0.02582504    -0.02416304     1.65747927     0.00007815     0.00025339     0.00048701
H         0.93400801     0.30298196    -0.84888687    -0.00053745     0.00083398    -0.00132187
H         0.61797858    -0.66708419     2.01282703    -0.00165458    -0.00349710     0.00031788
H        -0.96432889     0.03768376     2.08590005     0.00098274    -0.00004127    -0.00030601
H        -1.02659426    -0.21963170    -0.88160531     0.00194680    -0.00191026    -0.00068478
     6
  Step:    35            Position(A)                                  Velocity(au)
C        -0.03658980     0.01877878    -0.38235739    -0.00016348     0.00008890    -0.00032079
N        -0.02509156    -0.02115623     1.66236752     0.00006614     0.00029082     0.00040781
H         0.92733851     0.31195819    -0.86294143    -0.00068565     0.00080699    -0.00123995
H         0.60129724    -0.70790332     2.01688348    -0.00147079    -0.00389557     0.00038015
H        -0.95311990     0.03691130     2.08185821     0.00100131    -0.00009293    -0.00040820
H        -1.00377436    -0.24053874    -0.88842209     0.00218412    -0.00191926    -0.00057646
     6
  Step:    36            Position(A)                                  Velocity(au)
C        -0.03841480     0.01973868    -0.38542499    -0.00016621     0.00008745    -0.00023879
N        -0.02437817    -0.01780084     1.66640080     0.00007499     0.00031544     0.00033096
H         0.91900812     0.32063649    -0.87601315    -0.00083732     0.00078096    -0.00114348
H         0.58580230    -0.75230729     2.02114364    -0.00144193    -0.00413073     0.00035095
H        -0.94242339     0.03565084     2.07696992     0.00088591    -0.00012955    -0.00045942
H        -0.97881245    -0.26161915    -0.89421652     0.00233178    -0.00194628    -0.00050177
     6
  Step:    37            Position(A)                                  Velocity(au)
C        -0.04022595     0.02069185    -0.38758138    -0.00016095     0.00008793    -0.00015391
N        -0.02345100    -0.01425530     1.66960791     0.00010382     0.00032522     0.00025669
H         0.90902056     0.32904315    -0.88795723    -0.00098467     0.00075896    -0.00103532
H         0.56975235    -0.79827103     2.02456112    -0.00156058    -0.00417644     0.00023074
H        -0.93373894     0.03407704     2.07180748     0.00064082    -0.00014993    -0.00046130
H        -0.95276216    -0.28311723    -0.89939934     0.00237965    -0.00199975    -0.00046727
     6
  Step:    38            Position(A)                                  Velocity(au)
C        -0.04193590     0.02166226    -0.38879198    -0.00014813     0.00009073    -0.00006579
N        -0.02210700    -0.01068608     1.67201641     0.00014840     0.00032037     0.00018485
H         0.89746654     0.33724026    -0.89866272    -0.00111978     0.00074445    -0.00091873
H         0.55166156    -0.84367488     2.02619156    -0.00179557    -0.00403713     0.00003376
H        -0.92840422     0.03237082     2.06687814     0.00029222    -0.00015387    -0.00042431
H        -0.92675304    -0.30536745    -0.90443885     0.00232609    -0.00208670    -0.00047554
     6
  Step:    39            Position(A)                                  Velocity(au)
C        -0.04346668     0.02267682    -0.38902059    -0.00012913     0.00009594     0.00002541
N        -0.02020450    -0.00724656     1.67365182     0.00020239     0.00030258     0.00011539
H         0.88452322     0.34532948    -0.90805617    -0.00123498     0.00074114    -0.00079721
H         0.53047091    -0.88659101     2.02529977    -0.00210683    -0.00373711    -0.00021960
H        -0.92734608     0.03071088     2.06252487    -0.00011324    -0.00014149    -0.00036678
H        -0.90187452    -0.32876770    -0.90980270     0.00218127    -0.00221053    -0.00052276
     6
  Step:    40            Position(A)                                  Velocity(au)
C        -0.04476090     0.02376104    -0.38823613    -0.00010632     0.00010313     0.00011883
N        -0.01767930    -0.00406657     1.67454088     0.00025864     0.00027407     0.00004854
H         0.87044895     0.35345402    -0.91610314    -0.00132335     0.00075278    -0.00067425
H         0.50557064    -0.92543137     2.02138738    -0.00245593    -0.00330914    -0.00050857
H        -0.93088167     0.02927546     2.05885416    -0.00051641    -0.00011229    -0.00031096
H        -0.87903362    -0.35372700    -0.91587515     0.00196839    -0.00236881    -0.00059687
     6
  Step:    41            Position(A)                                  Velocity(au)
C        -0.04579268     0.02493294    -0.38642086    -0.00008286     0.00011137     0.00021294
N        -0.01454614    -0.00125086     1.67471380     0.00031045     0.00023697    -0.00001544
H         0.85557238     0.36179806    -0.92280657    -0.00137927     0.00078295    -0.00055297
H         0.47674267    -0.95898478     2.01417393    -0.00281070    -0.00278664    -0.00081476
H        -0.93864346     0.02825436     2.05572208    -0.00085813    -0.00006435    -0.00027736
H        -0.85881232    -0.38058986    -0.92286033     0.00172127    -0.00255210    -0.00067777
     6
  Step:    42            Position(A)                                  Velocity(au)
C        -0.04657355     0.02619742    -0.38357757    -0.00006207     0.00011932     0.00030566
N        -0.01088761     0.00111758     1.67420303     0.00035245     0.00019305    -0.00007660
H         0.84027473     0.37058264    -0.92820038    -0.00139911     0.00083460    -0.00043559
H         0.44408119    -0.98639440     2.00356288    -0.00314561    -0.00220027    -0.00112268
H        -0.94965491     0.02786767     2.05278637    -0.00109158     0.00000604    -0.00027957
H        -0.84137745    -0.40955902    -0.93070277     0.00147817    -0.00274499    -0.00074006
     6
  Step:    43            Position(A)                                  Velocity(au)
C        -0.04715055     0.02754328    -0.37973387    -0.00004675     0.00012558     0.00039471
N        -0.00683572     0.00297257     1.67303808     0.00038099     0.00014364    -0.00013551
H         0.82496423     0.38005643    -0.93233588    -0.00138184     0.00090958    -0.00032267
H         0.40792653    -1.00711994     1.98961322    -0.00343996    -0.00157762    -0.00141871
H        -0.96252392     0.02838643     2.04960594    -0.00118945     0.00010451    -0.00032149
H        -0.82647455    -0.44064168    -0.93905060     0.00127386    -0.00292911    -0.00075742
     6
  Step:    44            Position(A)                                  Velocity(au)
C        -0.04759624     0.02894477    -0.37494259    -0.00003852     0.00012910     0.00047789
N        -0.00255270     0.00426008     1.67123851     0.00039400     0.00008968    -0.00019343
H         0.81004442     0.39048147    -0.93525944    -0.00132938     0.00100822    -0.00021230
H         0.36882559    -1.02090789     1.97252584    -0.00367517    -0.00094445    -0.00168970
H        -0.97567639     0.03015413     2.04575320    -0.00114464     0.00023874    -0.00039741
H        -0.81350937    -0.47363901    -0.94727281     0.00113300    -0.00308712    -0.00070713
     6