 Fermi distribution function

Calculation with static geometry


********************************************************************************
 iSCC Total electronic   Diff electronic      SCC error    
   12   -0.52881205E+01   -0.10758061E-09    0.57109912E-06
********************************************************************************

 Total charge:     1.00000000

 Atomic gross charges (e)
 Atom           Charge
    1       0.27844948
    2      -0.20542012
    3       0.17585825
    4       0.28418681
    5       0.28085063
    6       0.18607494

Nr. of electrons (up):     12.00000000
Atom populations (up)
 Atom       Population
    1       3.72155052
    2       5.20542012
    3       0.82414175
    4       0.71581319
    5       0.71914937
    6       0.81392506

l-shell populations (up)
 Atom Sh.   l       Population
    1   1   0       1.39827100
    1   2   1       2.32327951
    2   1   0       1.48789959
    2   2   1       3.71752052
    3   1   0       0.82414175
    4   1   0       0.71581319
    5   1   0       0.71914937
    6   1   0       0.81392506

Orbital populations (up)
 Atom Sh.   l   m       Population  Label
    1   1   0   0       1.39827100  s
    1   2   1  -1       0.52399882  p_y
    1   2   1   0       0.82662089  p_z
    1   2   1   1       0.97265980  p_x
    2   1   0   0       1.48789959  s
    2   2   1  -1       1.44696854  p_y
    2   2   1   0       1.04259878  p_z
    2   2   1   1       1.22795321  p_x
    3   1   0   0       0.82414175  s
    4   1   0   0       0.71581319  s
    5   1   0   0       0.71914937  s
    6   1   0   0       0.81392506  s

Fermi level:                        -0.4932037654 H          -13.4208 eV
Band energy:                        -8.6033035135 H         -234.1078 eV
TS:                                  0.0000000000 H            0.0000 eV
Band free energy (E-TS):            -8.6033035135 H         -234.1078 eV
Extrapolated E(0K):                 -8.6033035135 H         -234.1078 eV
Input / Output electrons (q):     12.0000000000     12.0000000000

Energy H0:                          -5.4174227514 H         -147.4156 eV
Energy SCC:                          0.1293022264 H            3.5185 eV
Total Electronic energy:            -5.2881205250 H         -143.8971 eV
Repulsive energy:                    0.1353288299 H            3.6825 eV
Total energy:                       -5.1527916951 H         -140.2146 eV
Extrapolated to 0:                  -5.1527916951 H         -140.2146 eV
Total Mermin free energy:           -5.1527916951 H         -140.2146 eV
Force related energy:               -5.1527916951 H         -140.2146 eV

SCC converged

Excitation Energy:                   0.1152456731 H            3.1360 eV

Total Forces
    1      0.002557275731     -0.004208417979      0.070114935046
    2      0.031031661414      0.015959221003     -0.054076901955
    3     -0.003592590596     -0.011708395758     -0.002495219656
    4     -0.034369636924      0.000615883885     -0.016933604399
    5      0.001665164920     -0.012878930494      0.001924737153
    6      0.002708125455      0.012220639343      0.001466053812

Maximal derivative component:        0.701149E-01 au


