     6
  Step:     0            Position(A)                                  Velocity(au)
C        -0.04037398     0.00925301     0.00682645    -0.00005539    -0.00003782    -0.00004892
N        -0.04153897    -0.06168473     1.31090911     0.00019571    -0.00008630     0.00011210
H         0.91441467     0.02428425    -0.47412149     0.00067368     0.00015842    -0.00061615
H         0.88010826    -0.08973283     1.80001697    -0.00144917     0.00065262    -0.00074471
H        -0.96310159    -0.00164570     1.84066376    -0.00124218     0.00036955     0.00048045
H        -0.98602030     0.14425022    -0.57271678    -0.00004196     0.00046944    -0.00009446
     6
  Step:     1            Position(A)                                  Velocity(au)
C        -0.04070693     0.00904100     0.00625006    -0.00006557    -0.00003978    -0.00016142
N        -0.04048784    -0.06218664     1.31179505     0.00018628    -0.00009709     0.00021065
H         0.91844186     0.02529088    -0.47769971     0.00078870     0.00020949    -0.00068537
H         0.87207179    -0.08604325     1.79600356    -0.00146828     0.00069643    -0.00071153
H        -0.96958293     0.00048280     1.84320531    -0.00111486     0.00040771     0.00044193
H        -0.98616914     0.14692706    -0.57310984    -0.00001289     0.00050966    -0.00004896
     6
  Step:     2            Position(A)                                  Velocity(au)
C        -0.04109128     0.00881786     0.00506062    -0.00007403    -0.00004186    -0.00027248
N        -0.03950111    -0.06274686     1.31321360     0.00017211    -0.00010753     0.00030616
H         0.92304279     0.02657600    -0.48161916     0.00088203     0.00025982    -0.00074036
H         0.86404575    -0.08211409     1.79223311    -0.00144326     0.00073975    -0.00065468
H        -0.97529772     0.00281453     1.84549837    -0.00096336     0.00044342     0.00039079
H        -0.98616135     0.14982572    -0.57325238     0.00001495     0.00055010    -0.00000344
     6
  Step:     3            Position(A)                                  Velocity(au)
C        -0.04151702     0.00858298     0.00326834    -0.00008055    -0.00004401    -0.00038098
N        -0.03860440    -0.06336329     1.31514536     0.00015332    -0.00011751     0.00039743
H         0.92809381     0.02813401    -0.48580138     0.00095189     0.00030873    -0.00078089
H         0.85627833    -0.07794819     1.78883944    -0.00137187     0.00078227    -0.00057285
H        -0.98012486     0.00533515     1.84748170    -0.00079167     0.00047619     0.00032979
H        -0.98600554     0.15294673    -0.57314753     0.00004082     0.00059028     0.00004087
     6
  Step:     4            Position(A)                                  Velocity(au)
C        -0.04197310     0.00833600     0.00088956    -0.00008495    -0.00004622    -0.00048567
N        -0.03782252    -0.06403332     1.31756476     0.00013013    -0.00012692     0.00048328
H         0.93346416     0.02995598    -0.49016846     0.00099736     0.00035559    -0.00080729
H         0.84902637    -0.07354972     1.78596145    -0.00125340     0.00082368    -0.00046571
H        -0.98396503     0.00802797     1.84910890    -0.00060395     0.00050559     0.00026161
H        -0.98571443     0.15628815    -0.57280490     0.00006392     0.00062968     0.00008280
     6
  Step:     5            Position(A)                                  Velocity(au)
C        -0.04244767     0.00807665    -0.00205256    -0.00008711    -0.00004843    -0.00058515
N        -0.03717876    -0.06475380     1.32044008     0.00010292    -0.00013567     0.00056253
H         0.93902064     0.03202981    -0.49464590     0.00101836     0.00039981    -0.00082036
H         0.84254632    -0.06892414     1.78373726    -0.00108921     0.00086368    -0.00033421
H        -0.98674158     0.01087429     1.85034787    -0.00040466     0.00053125     0.00018895
H        -0.98530525     0.15984538    -0.57224037     0.00008335     0.00066776     0.00012118
     6
  Step:     6            Position(A)                                  Velocity(au)
C        -0.04292840     0.00780486    -0.00552735    -0.00008698    -0.00005064    -0.00067791
N        -0.03669389    -0.06552108     1.32373360     0.00007230    -0.00014364     0.00063403
H         0.94463182     0.03434042    -0.49916474     0.00101555     0.00044079    -0.00082118
H         0.83708172    -0.06407829     1.78229640    -0.00088322     0.00090193    -0.00018090
H        -0.98840261     0.01385386     1.85118094    -0.00019869     0.00055291     0.00011448
H        -0.98480037     0.16361100    -0.57147599     0.00009814     0.00070393     0.00015489
     6
  Step:     7            Position(A)                                  Velocity(au)
C        -0.04340269     0.00752065    -0.00949609    -0.00008453    -0.00005280    -0.00076239
N        -0.03638494    -0.06633097     1.32740179     0.00003910    -0.00015073     0.00069671
H         0.95017151     0.03686977    -0.50366254     0.00099012     0.00047797    -0.00081090
H         0.83284847    -0.05902083     1.78175091    -0.00064217     0.00093796    -0.00001002
H        -0.98892328     0.01694527     1.85160493     0.00000857     0.00057037     0.00004097
H        -0.98422764     0.16757462    -0.57053965     0.00010730     0.00073758     0.00018289
     6
  Step:     8            Position(A)                                  Velocity(au)
C        -0.04385799     0.00722418    -0.01391179    -0.00007981    -0.00005489    -0.00083703
N        -0.03626383    -0.06717875     1.33139570     0.00000444    -0.00015683     0.00074958
H         0.95552081     0.03959695    -0.50808271     0.00094363     0.00051078    -0.00079046
H         0.83001934    -0.05376296     1.78218624    -0.00037563     0.00097116     0.00017262
H        -0.98830837     0.02012655     1.85163146     0.00021132     0.00058357    -0.00002884
H        -0.98362033     0.17172266    -0.56946462     0.00010992     0.00076809     0.00020427
     6
  Step:     9            Position(A)                                  Velocity(au)
C        -0.04428208     0.00691577    -0.01871938    -0.00007293    -0.00005689    -0.00090041
N        -0.03633599    -0.06805909     1.33566150    -0.00003037    -0.00016183     0.00079185
H         0.96056943     0.04249810    -0.51237264     0.00087794     0.00053870    -0.00076051
H         0.82870940    -0.04831953     1.78365297    -0.00009553     0.00100075     0.00035984
H        -0.98659469     0.02337571     1.85128716     0.00040341     0.00059260    -0.00009216
H        -0.98301645     0.17603822    -0.56828878     0.00010529     0.00079482     0.00021831
     6
  Step:    10            Position(A)                                  Velocity(au)
C        -0.04466345     0.00659590    -0.02385637    -0.00006409    -0.00005874    -0.00095132
N        -0.03659930    -0.06896611     1.34014130    -0.00006390    -0.00016564     0.00082295
H         0.96521728     0.04554661    -0.51648220     0.00079547     0.00056129    -0.00072190
H         0.82896429    -0.04271017     1.78616046     0.00018457     0.00102578     0.00054369
H        -0.98385285     0.02667149     1.85061361     0.00057858     0.00059768    -0.00014633
H        -0.98245741     0.18050101    -0.56705352     0.00009304     0.00081719     0.00022454
     6
  Step:    11            Position(A)                                  Velocity(au)
C        -0.04499178     0.00626525    -0.02925404    -0.00005356    -0.00006044    -0.00098896
N        -0.03704360    -0.06989339     1.34477459    -0.00009468    -0.00016820     0.00084270
H         0.96937831     0.04871366    -0.52036682     0.00069930     0.00057831    -0.00067595
H         0.83075330    -0.03696034     1.78967361     0.00045066     0.00104527     0.00071612
H        -0.98018765     0.02999429     1.84966678     0.00073080     0.00059930    -0.00018890
H        -0.98198614     0.18508760    -0.56580224     0.00007318     0.00083479     0.00022286
     6
  Step:    12            Position(A)                                  Velocity(au)
C        -0.04525832     0.00592470    -0.03483972    -0.00004171    -0.00006195    -0.00101317
N        -0.03765077    -0.07083416     1.34950021    -0.00012137    -0.00016952     0.00085142
H         0.97298360     0.05196929    -0.52398928     0.00059299     0.00058982    -0.00062432
H         0.83396923    -0.03110146     1.79411363     0.00068968     0.00105843     0.00086988
H        -0.97573663     0.03332731     1.84851573     0.00085475     0.00059822    -0.00021781
H        -0.98164473     0.18977211    -0.56457849     0.00004618     0.00084744     0.00021352
     6
  Step:    13            Position(A)                                  Velocity(au)
C        -0.04545639     0.00557522    -0.04054015    -0.00004923    -0.00010763    -0.00174277
N        -0.03839558    -0.07178171     1.35425894    -0.00024310    -0.00028863     0.00144593
H         0.97598387     0.05528389    -0.52732141     0.00081726     0.00101417    -0.00096780
H         0.83843592    -0.02517001     1.79936363     0.00151563     0.00181133     0.00169998
H        -0.97066621     0.03665816     1.84724054     0.00160978     0.00101301    -0.00039387
H        -0.98147173     0.19452762    -0.56342375     0.00002207     0.00145499     0.00033547
     6
  Step:    14            Position(A)                                  Velocity(au)
C        -0.04570875     0.00496766    -0.04995830    -0.00003942    -0.00010743    -0.00158514
N        -0.03978789    -0.07335641     1.36208110    -0.00024499    -0.00026824     0.00131815
H         0.98049070     0.06087221    -0.53285741     0.00077256     0.00096152    -0.00098512
H         0.84734885    -0.01521522     1.80916461     0.00160198     0.00170836     0.00174465
H        -0.96158301     0.04215230     1.84506656     0.00157641     0.00093243    -0.00036207
H        -0.98161930     0.20261364    -0.56198731    -0.00007683     0.00140552     0.00017361
     6
  Step:    15            Position(A)                                  Velocity(au)
C        -0.04590278     0.00435856    -0.05849180    -0.00002851    -0.00010698    -0.00141686
N        -0.04117003    -0.07481948     1.36918696    -0.00023731    -0.00024669     0.00118162
H         0.98473306     0.06617302    -0.53847783     0.00071649     0.00090331    -0.00098773
H         0.85657829    -0.00582298     1.81912170     0.00161291     0.00159564     0.00173873
H        -0.95281346     0.04721792     1.84314008     0.00148507     0.00085318    -0.00030424
H        -0.98234183     0.21044509    -0.56145763    -0.00017698     0.00135080     0.00001648
     6
  Step:    16            Position(A)                                  Velocity(au)
C        -0.04603325     0.00374986    -0.06608763    -0.00001725    -0.00010712    -0.00125548
N        -0.04248944    -0.07616466     1.37553241    -0.00022321    -0.00022664     0.00105069
H         0.98864707     0.07115533    -0.54410152     0.00065678     0.00084887    -0.00098583
H         0.86570993     0.00294924     1.82895797     0.00157010     0.00148890     0.00170314
H        -0.94467728     0.05186479     1.84160311     0.00135519     0.00078471    -0.00022644
H        -0.98363395     0.21799091    -0.56179966    -0.00027469     0.00130362    -0.00013142
     6
  Step:    17            Position(A)                                  Velocity(au)
C        -0.04609921     0.00313876    -0.07278792    -0.00000604    -0.00010845    -0.00111003
N        -0.04371175    -0.07740026     1.38115124    -0.00020507    -0.00020955     0.00093280
H         0.99221187     0.07583916    -0.54970344     0.00059788     0.00080361    -0.00098683
H         0.87445710     0.01113113     1.83851536     0.00149175     0.00139710     0.00165393
H        -0.93738184     0.05615346     1.84056158     0.00120062     0.00073193    -0.00013278
H        -0.98546968     0.22528948    -0.56295411    -0.00036851     0.00127167    -0.00026974
     6
  Step:    18            Position(A)                                  Velocity(au)
C        -0.04610182     0.00251930    -0.07868346     0.00000498    -0.00011105    -0.00098146
N        -0.04481642    -0.07854245     1.38611720    -0.00018403    -0.00019555     0.00082865
H         0.99543135     0.08027408    -0.55529931     0.00054035     0.00076832    -0.00099335
H         0.88263727     0.01880251     1.84772562     0.00138745     0.00132133     0.00159816
H        -0.93105346     0.06017020     1.84009640     0.00102749     0.00069510    -0.00002540
H        -0.98781559     0.23242086    -0.56486044    -0.00045728     0.00125603    -0.00039948
     6
  Step:    19            Position(A)                                  Velocity(au)
C        -0.04604300     0.00188491    -0.08386943     0.00001574    -0.00011469    -0.00086657
N        -0.04578958    -0.07960815     1.39050738    -0.00016044    -0.00018405     0.00073553
H         0.99831286     0.08451416    -0.56091921     0.00048259     0.00074105    -0.00100440
H         0.89012255     0.02605007     1.85655991     0.00126042     0.00125805     0.00153628
H        -0.92578064     0.06400174     1.84027481     0.00083787     0.00067179     0.00009401
H        -0.99063276     0.23947114    -0.56746461    -0.00053887     0.00125348    -0.00052089
     6
  Step:    20            Position(A)                                  Velocity(au)
C        -0.04592497     0.00123035    -0.08842289     0.00002611    -0.00011897    -0.00076168
N        -0.04661959    -0.08061102     1.39438377    -0.00013453    -0.00017432     0.00065034
H         1.00085520     0.08860277    -0.56658779     0.00042268     0.00071918    -0.00101765
H         0.89680310     0.03294170     1.86499182     0.00111193     0.00120279     0.00146657
H        -0.92163661     0.06772045     1.84115299     0.00063415     0.00065878     0.00022294
H        -0.99387194     0.24650875    -0.57071476    -0.00061043     0.00125949    -0.00063308
     6
  Step:    21            Position(A)                                  Velocity(au)
C        -0.04575054     0.00055241    -0.09240028     0.00003595    -0.00012356    -0.00066408
N        -0.04729632    -0.08156058     1.39779126    -0.00010674    -0.00016575     0.00057088
H         1.00304687     0.09256900    -0.57231694     0.00035925     0.00070055    -0.00103092
H         0.90257621     0.03952143     1.87298557     0.00094394     0.00115212     0.00138785
H        -0.91867810     0.07138013     1.84277177     0.00042083     0.00065304     0.00035782
H        -0.99746965     0.25357751    -0.57455510    -0.00066914     0.00127005    -0.00073464
     6
  Step:    22            Position(A)                                  Velocity(au)
C        -0.04552328    -0.00015023    -0.09584294     0.00004509    -0.00012817    -0.00057214
N        -0.04781221    -0.08246301     1.40076240    -0.00007773    -0.00015790     0.00049583
H         1.00486928     0.09643025    -0.57810672     0.00029166     0.00068368    -0.00104268
H         0.90735008     0.04581476     1.88049885     0.00075958     0.00110384     0.00130011
H        -0.91693453     0.07501711     1.84515111     0.00020436     0.00065189     0.00049434
H        -1.00134851     0.26069958    -0.57892323    -0.00071270     0.00128216    -0.00082429
     6
  Step:    23            Position(A)                                  Velocity(au)
C        -0.04524757    -0.00087742    -0.09878295     0.00005338    -0.00013261    -0.00048495
N        -0.04816344    -0.08332205     1.40332256    -0.00004831    -0.00015046     0.00042454
H         1.00630053     0.10019599    -0.58394881     0.00021977     0.00066768    -0.00105197
H         0.91104982     0.05183561     1.88748920     0.00056272     0.00105680     0.00120424
H        -0.91639830     0.07865242     1.84828653    -0.00000769     0.00065297     0.00062787
H        -1.00542030     0.26788094    -0.58375063    -0.00073954     0.00129368    -0.00090106
     6
  Step:    24            Position(A)                                  Velocity(au)
C        -0.04492845    -0.00162798    -0.10124716     0.00006071    -0.00013673    -0.00040200
N        -0.04835054    -0.08413975     1.40549345    -0.00001931    -0.00014323     0.00035674
H         1.00731837     0.10387077    -0.58982970     0.00014383     0.00065199    -0.00105825
H         0.91362090     0.05759155     1.89391868     0.00035743     0.00101041     0.00110163
H        -0.91702017     0.08229375     1.85214804    -0.00020757     0.00065418     0.00075387
H        -1.00958985     0.27511621    -0.58896448    -0.00074884     0.00130315    -0.00096442
     6
  Step:    25            Position(A)                                  Velocity(au)
C        -0.04457150    -0.00240003    -0.10325944     0.00006702    -0.00014046    -0.00032297
N        -0.04837844    -0.08491695     1.40729507     0.00000849    -0.00013602     0.00029231
H         1.00790213     0.10745627    -0.59573302     0.00006429     0.00063631    -0.00106125
H         0.91502998     0.06308710     1.89975653     0.00014772     0.00096447     0.00099392
H        -0.91870966     0.08593715     1.85668127    -0.00038808     0.00065365     0.00086814
H        -1.01375904     0.28239233    -0.59448999    -0.00074042     0.00130956    -0.00101424
     6
  Step:    26            Position(A)                                  Velocity(au)
C        -0.04418259    -0.00319122    -0.10484174     0.00007225    -0.00014372    -0.00024766
N        -0.04825609    -0.08565361     1.40874670     0.00003438    -0.00012873     0.00023120
H         1.00803392     0.11095264    -0.60164102    -0.00001823     0.00062048    -0.00106088
H         0.91526498     0.06832574     1.90498066    -0.00006252     0.00091900     0.00088284
H        -0.92133937     0.08956858     1.86181010    -0.00054313     0.00064975     0.00096711
H        -1.01783048     0.28969113    -0.60025254    -0.00071471     0.00131224    -0.00105071
     6
  Step:    27            Position(A)                                  Velocity(au)
C        -0.04376776    -0.00399893    -0.10601471     0.00007639    -0.00014648    -0.00017589
N        -0.04799600    -0.08634903     1.40986716     0.00005778    -0.00012125     0.00017337
H         1.00769934     0.11435919    -0.60753547    -0.00010304     0.00060443    -0.00105714
H         0.91433441     0.07331105     1.90957820    -0.00026963     0.00087412     0.00077012
H        -0.92475204     0.09316566     1.86744052    -0.00066804     0.00064118     0.00104795
H        -1.02171029     0.29699114    -0.60617931    -0.00067256     0.00131075    -0.00107430
     6
  Step:    28            Position(A)                                  Velocity(au)
C        -0.04333299    -0.00482036    -0.10679789     0.00007947    -0.00014873    -0.00010749
N        -0.04761345    -0.08700208     1.41067488     0.00007826    -0.00011353     0.00011877
H         1.00688794     0.11767491    -0.61339822    -0.00018939     0.00058814    -0.00105010
H         0.91226627     0.07804744     1.91354565    -0.00047014     0.00083006     0.00065747
H        -0.92876909     0.09669954     1.87346511    -0.00075975     0.00062696     0.00110866
H        -1.02531045     0.30426891    -0.61220058    -0.00061518     0.00130487    -0.00108564
     6
  Step:    29            Position(A)                                  Velocity(au)
C        -0.04288415    -0.00565270    -0.10720987     0.00008150    -0.00015047    -0.00004232
N        -0.04712582    -0.08761137     1.41118773     0.00009549    -0.00010554     0.00006728
H         1.00559345     0.12089873    -0.61921155    -0.00027652     0.00057162    -0.00103985
H         0.90910684     0.08254057     1.91688865    -0.00066086     0.00078710     0.00054656
H        -0.93319979     0.10013686     1.87976782    -0.00081684     0.00060647     0.00114809
H        -1.02855049     0.31150006    -0.61825064    -0.00054398     0.00129448    -0.00108548
     6
  Step:    30            Position(A)                                  Velocity(au)
C        -0.04242693    -0.00649311    -0.10726837     0.00008253    -0.00015169     0.00001975
N        -0.04655183    -0.08817539     1.41142285     0.00010929    -0.00009728     0.00001878
H         1.00381387     0.12402964    -0.62495842    -0.00036363     0.00055489    -0.00102656
H         0.90491943     0.08679773     1.91962179    -0.00083877     0.00074556     0.00043898
H        -0.93785003     0.10344170     1.88622865    -0.00083933     0.00057939     0.00116589
H        -1.03135794     0.31865983    -0.62426802    -0.00046049     0.00127959    -0.00107462
     6
  Step:    31            Position(A)                                  Velocity(au)
C        -0.04196672    -0.00733881    -0.10699035     0.00008262    -0.00015241     0.00007884
N        -0.04591097    -0.08869274     1.41139649     0.00011956    -0.00008878    -0.00002690
H         1.00155145     0.12706680    -0.63062261    -0.00044995     0.00053801    -0.00101039
H         0.89978327     0.09082807     1.92176829    -0.00100110     0.00070582     0.00033630
H        -0.94252962     0.10657730     1.89272760    -0.00082851     0.00054574     0.00116237
H        -1.03366921     0.32572377    -0.63019592    -0.00036636     0.00126032    -0.00105393
     6
  Step:    32            Position(A)                                  Velocity(au)
C        -0.04150862    -0.00818714    -0.10639205     0.00008182    -0.00015266     0.00013507
N        -0.04522294    -0.08916216     1.41112384     0.00012630    -0.00008007    -0.00006996
H         0.99881262     0.13000959    -0.63618891    -0.00053476     0.00052101    -0.00099154
H         0.89379222     0.09464290     1.92335974    -0.00114532     0.00066828     0.00023998
H        -0.94705890     0.10950765     1.89914841    -0.00078670     0.00050577     0.00113848
H        -1.03542999     0.33266830    -0.63598242    -0.00026328     0.00123687    -0.00102429
     6
  Step:    33            Position(A)                                  Velocity(au)
C        -0.04105734    -0.00903559    -0.10548911     0.00008020    -0.00015247     0.00018853
N        -0.04450721    -0.08958273     1.41061895     0.00012958    -0.00007123    -0.00011059
H         0.99560783     0.13285761    -0.64164320    -0.00061732     0.00050394    -0.00097022
H         0.88705349     0.09825580     1.92443563    -0.00126914     0.00063339     0.00015144
H        -0.95127355     0.11219878     1.90538142    -0.00071698     0.00045994     0.00109560
H        -1.03659543     0.33947111    -0.64158054    -0.00015296     0.00120950    -0.00098661
     6
  Step:    34            Position(A)                                  Velocity(au)
C        -0.04061720    -0.00988179    -0.10429660     0.00007784    -0.00015187     0.00023931
N        -0.04378269    -0.08995389     1.40989469     0.00012953    -0.00006233    -0.00014901
H         0.99195134     0.13561070    -0.64697257    -0.00069696     0.00048684    -0.00094665
H         0.87968613     0.10168281     1.92504291    -0.00137056     0.00060158     0.00007196
H        -0.95502796     0.11461970     1.91132571    -0.00062296     0.00040885     0.00103548
H        -1.03713010     0.34611158    -0.64694831    -0.00003710     0.00117856    -0.00094179
     6
  Step:    35            Position(A)                                  Velocity(au)
C        -0.04019212    -0.01072359    -0.10282915     0.00007481    -0.00015089     0.00028748
N        -0.04306746    -0.09027552     1.40896274     0.00012632    -0.00005345    -0.00018542
H         0.98786099     0.13826893    -0.65216535    -0.00077307     0.00046977    -0.00092108
H         0.87181958     0.10494243     1.92523544    -0.00144783     0.00057331     0.00000275
H        -0.95819779     0.11674321     1.91689087    -0.00050862     0.00035325     0.00096012
H        -1.03700776     0.35257099    -0.65204864     0.00008270     0.00114441    -0.00089069
     6
  Step:    36            Position(A)                                  Velocity(au)
C        -0.03978561    -0.01155903    -0.10110103     0.00007118    -0.00014957     0.00033309
N        -0.04237856    -0.09054799     1.40783354     0.00012015    -0.00004468    -0.00022005
H         0.98335800     0.14083255    -0.65721113    -0.00084505     0.00045274    -0.00089372
H         0.86359222     0.10805569     1.92507346    -0.00149955     0.00054902    -0.00005513
H        -0.96068167     0.11854643     1.92199832    -0.00037815     0.00029396     0.00087174
H        -1.03621081     0.35883268    -0.65684906     0.00020490     0.00110742    -0.00083413
     6
  Step:    37            Position(A)                                  Velocity(au)
C        -0.03940081    -0.01238633    -0.09912621     0.00006702    -0.00014795     0.00037618
N        -0.04173176    -0.09077217     1.40651646     0.00011127    -0.00003610    -0.00025306
H         0.97846666     0.14330199    -0.66210080    -0.00091235     0.00043579    -0.00086482
H         0.85514915     0.11104590     1.92462256    -0.00152478     0.00052909    -0.00010085
H        -0.96240169     0.12001115     1.92658194    -0.00023577     0.00023182     0.00077259
H        -1.03472994     0.36488215    -0.66132165     0.00032803     0.00106800    -0.00077293
     6
  Step:    38            Position(A)                                  Velocity(au)
C        -0.03904044    -0.01320394    -0.09691849     0.00006240    -0.00014605     0.00041678
N        -0.04114143    -0.09094941     1.40501991     0.00009995    -0.00002781    -0.00028461
H         0.97321411     0.14567780    -0.66682647    -0.00097450     0.00041894    -0.00083458
H         0.84663919     0.11393827     1.92395221    -0.00152316     0.00051378    -0.00013388
H        -0.96330307     0.12112387     1.93058828    -0.00008556     0.00016767     0.00066496
H        -1.03256367     0.37070712    -0.66544275     0.00045072     0.00102655    -0.00070783
     6
  Step:    39            Position(A)                                  Velocity(au)
C        -0.03870686    -0.01401048    -0.09449156     0.00005739    -0.00014393     0.00045488
N        -0.04062034    -0.09108146     1.40335156     0.00008649    -0.00001987    -0.00031480
H         0.96763008     0.14796063    -0.67138147    -0.00103103     0.00040220    -0.00080323
H         0.83821134     0.11675919     1.92313379    -0.00149503     0.00050324    -0.00015408
H        -0.96335313     0.12187571     1.93397636     0.00006860     0.00010235     0.00055106
H        -1.02971790     0.37629759    -0.66919284     0.00057167     0.00098348    -0.00063957
     6
  Step:    40            Position(A)                                  Velocity(au)
C        -0.03840209    -0.01480475    -0.09185915     0.00005205    -0.00014160     0.00049047
N        -0.04017947    -0.09117045     1.40151860     0.00007124    -0.00001234    -0.00034369
H         0.96174665     0.15015117    -0.67576021    -0.00108153     0.00038557    -0.00077094
H         0.83001099     0.11953548     1.92223852    -0.00144138     0.00049746    -0.00016168
H        -0.96254010     0.12226229     1.93671734     0.00022301     0.00003666     0.00043307
H        -1.02620535     0.38164576    -0.67255629     0.00068968     0.00093919    -0.00056884
     6
  Step:    41            Position(A)                                  Velocity(au)
C        -0.03812778    -0.01558575    -0.08903513     0.00004644    -0.00013909     0.00052350
N        -0.03982781    -0.09121879     1.39952801     0.00005458    -0.00000527    -0.00037129
H         0.95559805     0.15225011    -0.67995817    -0.00112565     0.00036906    -0.00073791
H         0.82217600     0.12229345     1.92133515    -0.00136394     0.00049626    -0.00015734
H        -0.96087217     0.12228356     1.93879430     0.00037415    -0.00002862     0.00031315
H        -1.02204519     0.38674603    -0.67552114     0.00080361     0.00089406    -0.00049629
     6
  Step:    42            Position(A)                                  Velocity(au)
C        -0.03788526    -0.01635259    -0.08603364     0.00004063    -0.00013644     0.00055391
N        -0.03957215    -0.09122912     1.39738681     0.00003691     0.00000131    -0.00039757
H         0.94922033     0.15425810    -0.68397173    -0.00116306     0.00035265    -0.00070429
H         0.81483291     0.12505792     1.92048762    -0.00126511     0.00049927    -0.00014216
H        -0.95837650     0.12194375     1.94020206     0.00051869    -0.00009274     0.00019337
H        -1.01726267     0.39159496    -0.67807910     0.00091238     0.00084850    -0.00042259
     6
  Step:    43            Position(A)                                  Velocity(au)
C        -0.03767553    -0.01710458    -0.08286913     0.00003466    -0.00013367     0.00058164
N        -0.03941688    -0.09120419     1.39510235     0.00001871     0.00000739    -0.00042244
H         0.94265119     0.15617570    -0.68779812    -0.00119349     0.00033632    -0.00067023
H         0.80809312     0.12785117     1.91975263    -0.00114795     0.00050592    -0.00011767
H        -0.95509822     0.12125117     1.94094688     0.00065348    -0.00015497     0.00007581
H        -1.01188881     0.39619133    -0.68022534     0.00101496     0.00080290    -0.00034837
     6
  Step:    44            Position(A)                                  Velocity(au)
C        -0.03749926    -0.01784114    -0.07955653     0.00002861    -0.00013080     0.00060658
N        -0.03936383    -0.09114683     1.39268253     0.00000043     0.00001296    -0.00044578
H         0.93592964     0.15800340    -0.69143535    -0.00121674     0.00032007    -0.00063585
H         0.80204932     0.13069184     1.91917728    -0.00101618     0.00051547    -0.00008578
H        -0.95109940     0.12021805     1.94104627     0.00077560    -0.00021460    -0.00003755
H        -1.00596004     0.40053603    -0.68195852     0.00111041     0.00075765    -0.00027425
     6