     6
  Step:     0            Position(A)                                  Velocity(au)
C        -0.03833835     0.01638033     0.03560769     0.00011100     0.00003450     0.00008285
N        -0.04208662    -0.03776158     1.28168926    -0.00014984     0.00000277    -0.00003051
H         0.93968303    -0.02670484    -0.53917052    -0.00069167    -0.00003894    -0.00006957
H         0.80801383    -0.22431482     1.84890214     0.00130791    -0.00035838     0.00081502
H        -0.92771016    -0.11954114     1.86392314     0.00071513     0.00022405    -0.00114341
H        -0.99123199     0.03034114    -0.51672123    -0.00057181    -0.00027631    -0.00016530
     6
  Step:     1            Position(A)                                  Velocity(au)
C        -0.03771034     0.01661169     0.03561648     0.00011761     0.00005017    -0.00007958
N        -0.04292120    -0.03774497     1.28191879    -0.00015321     0.00000312     0.00011437
H         0.93584594    -0.02705521    -0.53939454    -0.00070579    -0.00008970    -0.00001477
H         0.81525405    -0.22642028     1.85326493     0.00132238    -0.00040766     0.00077009
H        -0.92366016    -0.11840978     1.85741110     0.00075314     0.00018808    -0.00122875
H        -0.99457078     0.02867796    -0.51764232    -0.00064204    -0.00033190    -0.00016759
     6
  Step:     2            Position(A)                                  Velocity(au)
C        -0.03705191     0.01692917     0.03473715     0.00012203     0.00006597    -0.00024100
N        -0.04376254    -0.03772748     1.28294033    -0.00015224     0.00000318     0.00025816
H         0.93196269    -0.02768608    -0.53933207    -0.00070834    -0.00014168     0.00003453
H         0.82247891    -0.22877411     1.85732588     0.00130322    -0.00044953     0.00070585
H        -0.91947185    -0.11748384     1.85048226     0.00076381     0.00014848    -0.00129399
H        -0.99825502     0.02671064    -0.51855443    -0.00069718    -0.00038751    -0.00016212
     6
  Step:     3            Position(A)                                  Velocity(au)
C        -0.03637535     0.01733341     0.03297992     0.00012409     0.00008181    -0.00039940
N        -0.04458672    -0.03771020     1.28474310    -0.00014681     0.00000313     0.00039883
H         0.92809651    -0.02860521    -0.53901673    -0.00069904    -0.00019510     0.00007704
H         0.82951156    -0.23133829     1.86098710     0.00125255    -0.00048459     0.00062495
H        -0.91530390    -0.11678537     1.84325458     0.00074360     0.00010445    -0.00133560
H        -1.00219808     0.02443847    -0.51941598    -0.00073554    -0.00044300    -0.00014932
     6
  Step:     4            Position(A)                                  Velocity(au)
C        -0.03569379     0.01782456     0.03036570     0.00012364     0.00009754    -0.00055251
N        -0.04536941    -0.03769328     1.28730547    -0.00013688     0.00000311     0.00053411
H         0.92431173    -0.02982148    -0.53848890    -0.00067764    -0.00024995     0.00011148
H         0.83618798    -0.23407794     1.86416598     0.00117274    -0.00051318     0.00053032
H        -0.91133315    -0.11634065     1.83586418     0.00068945     0.00005538    -0.00135020
H        -1.00630543     0.02186207    -0.52018869    -0.00075574    -0.00049778    -0.00012996
     6
  Step:     5            Position(A)                                  Velocity(au)
C        -0.03502099     0.01840188     0.02692763     0.00012058     0.00011292    -0.00069768
N        -0.04608610    -0.03767611     1.29059377    -0.00012246     0.00000326     0.00066146
H         0.92067357    -0.03134318    -0.53779557    -0.00064399    -0.00030579     0.00013666
H         0.84235794    -0.23695968     1.86679632     0.00106648    -0.00053530     0.00042513
H        -0.90775155    -0.11617875     1.82846431     0.00059924     0.00000106    -0.00133485
H        -1.01047654     0.01898572    -0.52083962    -0.00075688    -0.00055082    -0.00010525
     6
  Step:     6            Position(A)                                  Velocity(au)
C        -0.03437113     0.01906321     0.02271288     0.00011488     0.00012762    -0.00083193
N        -0.04671263    -0.03765756     1.29456101    -0.00010373     0.00000363     0.00077814
H         0.91724788    -0.03317562    -0.53698993    -0.00059804    -0.00036171     0.00015149
H         0.84788615    -0.23994957     1.86882925     0.00093690    -0.00055063     0.00031282
H        -0.90476015    -0.11632906     1.82122233     0.00047244    -0.00005817    -0.00128757
H        -1.01460763     0.01582019    -0.52134321    -0.00073876    -0.00060057    -0.00007673
     6
  Step:     7            Position(A)                                  Velocity(au)
C        -0.03375846     0.01980442     0.01778450     0.00010657     0.00014119    -0.00095202
N        -0.04722608    -0.03763625     1.29914574    -0.00008107     0.00000424     0.00088125
H         0.91410098    -0.03531845    -0.53613062    -0.00053985    -0.00041636     0.00015516
H         0.85265468    -0.24301122     1.87023429     0.00078779    -0.00055862     0.00019704
H        -0.90255932    -0.11681801     1.81431357     0.00031076    -0.00012130    -0.00120794
H        -1.01859566     0.01238528    -0.52168292    -0.00070206    -0.00064513    -0.00004621
     6
  Step:     8            Position(A)                                  Velocity(au)
C        -0.03319684     0.02061897     0.01222292     0.00009582     0.00015319    -0.00105467
N        -0.04760591    -0.03761080     1.30427127    -0.00005513     0.00000509     0.00096801
H         0.91129950    -0.03776336    -0.53528026    -0.00046961    -0.00046811     0.00014720
H         0.85656652    -0.24610487     1.87100040     0.00062386    -0.00055878     0.00008168
H        -0.90133598    -0.11766564     1.80791241     0.00011867    -0.00018677    -0.00109761
H        -1.02234344     0.00871167    -0.52185236    -0.00064857    -0.00068248    -0.00001561
     6
  Step:     9            Position(A)                                  Velocity(au)
C        -0.03269922     0.02149780     0.00612600     0.00008290     0.00016318    -0.00113699
N        -0.04783555    -0.03757998     1.30984631    -0.00002687     0.00000614     0.00103606
H         0.90890983    -0.04049298    -0.53450348    -0.00038785    -0.00051531     0.00012765
H         0.85955099    -0.24918808     1.87113721     0.00045086    -0.00055094    -0.00002925
H        -0.90124754    -0.11888258     1.80218031    -0.00009638    -0.00025257    -0.00096067
H        -1.02576512     0.00484101    -0.52185548    -0.00058109    -0.00071085     0.00001320
     6
  Step:    10            Position(A)                                  Velocity(au)
C        -0.03227701     0.02242958    -0.00039325     0.00006819     0.00017085    -0.00119704
N        -0.04790401    -0.03754271     1.31576754     0.00000254     0.00000735     0.00108400
H         0.90699588    -0.04348128    -0.53386386    -0.00029572    -0.00055667     0.00009722
H         0.86156935    -0.25221812     1.87067581     0.00027535    -0.00053557    -0.00013184
H        -0.90240537    -0.12046824     1.79725267    -0.00032426    -0.00031662    -0.00080357
H        -1.02879130     0.00082402    -0.52170590    -0.00050328    -0.00072913     0.00003859
     6
  Step:    11            Position(A)                                  Velocity(au)
C        -0.03193936     0.02340147    -0.00721201     0.00005224     0.00017611    -0.00123442
N        -0.04780724    -0.03749806     1.32192472     0.00003175     0.00000872     0.00111180
H         0.90561476    -0.04669561    -0.53342017    -0.00019522    -0.00059152     0.00005732
H         0.86261910    -0.25515567     1.86966819     0.00010424    -0.00051395    -0.00022261
H        -0.90486061    -0.12241048     1.79322656    -0.00055331    -0.00037701    -0.00063458
H        -1.03137294    -0.00328326    -0.52142547    -0.00041935    -0.00073718     0.00005934
     6
  Step:    12            Position(A)                                  Velocity(au)
C        -0.03169247     0.02440020    -0.01420599     0.00003563     0.00017913    -0.00125068
N        -0.04754879    -0.03744517     1.32820818     0.00005944     0.00001023     0.00112117
H         0.90481146    -0.05010020    -0.53322242    -0.00008906    -0.00062007     0.00000992
H         0.86273574    -0.25796909     1.86818488    -0.00005600    -0.00048811    -0.00029896
H        -0.90859676    -0.12468691     1.79015196    -0.00077198    -0.00043244    -0.00046273
H        -1.03348365    -0.00742481    -0.52104188    -0.00033356    -0.00073603     0.00007475
     6
  Step:    13            Position(A)                                  Velocity(au)
C        -0.03153912     0.02541355    -0.02126037     0.00001897     0.00018034    -0.00124941
N        -0.04713955    -0.03738316     1.33451835     0.00008456     0.00001190     0.00111555
H         0.90461434    -0.05366066    -0.53330870     0.00001967    -0.00064346    -0.00004271
H         0.86199002    -0.26063842     1.86631012    -0.00020019    -0.00046063    -0.00035949
H        -0.91353197    -0.12726795     1.78802891    -0.00097071    -0.00048242    -0.00029649
H        -1.03511972    -0.01155079    -0.52058580    -0.00024986    -0.00072776     0.00008460
     6
  Step:    14            Position(A)                                  Velocity(au)
C        -0.03147877     0.02643174    -0.02828079     0.00000276     0.00018035    -0.00123554
N        -0.04659624    -0.03731112     1.34077505     0.00010639     0.00001375     0.00109948
H         0.90503307    -0.05734885    -0.53370351     0.00012817    -0.00066351    -0.00009841
H         0.86048061    -0.26315811     1.86413522    -0.00032491    -0.00043425    -0.00040400
H        -0.91953191    -0.13012142     1.78681198    -0.00114314    -0.00052731    -0.00014249
H        -1.03629841    -0.01562315    -0.52008890    -0.00017142    -0.00071512     0.00008892
     6
  Step:    15            Position(A)                                  Velocity(au)
C        -0.03150796     0.02744835    -0.03520018    -0.00001965     0.00027983    -0.00188950
N        -0.04593926    -0.03722800     1.34692306     0.00019387     0.00002463     0.00167686
H         0.90606038    -0.06114655    -0.53441901     0.00036459    -0.00106176    -0.00024202
H         0.85832426    -0.26553776     1.86175204    -0.00066683    -0.00064033    -0.00067406
H        -0.92642925    -0.13321722     1.78642131    -0.00200151    -0.00088403    -0.00000761
H        -1.03705376    -0.01961904    -0.51958262    -0.00015620    -0.00109071     0.00013681
     6
  Step:    16            Position(A)                                  Velocity(au)
C        -0.03164048     0.02898684    -0.04542078    -0.00002657     0.00026180    -0.00170616
N        -0.04482004    -0.03709068     1.35603218     0.00019707     0.00002403     0.00152761
H         0.90855364    -0.06700807    -0.53628992     0.00050905    -0.00100281    -0.00041065
H         0.85438952    -0.26900332     1.85797578    -0.00070111    -0.00058441    -0.00064385
H        -0.93796889    -0.13810833     1.78683558    -0.00203396    -0.00083597     0.00013806
H        -1.03804663    -0.02564179    -0.51914415    -0.00019588    -0.00103039     0.00001892
     6
  Step:    17            Position(A)                                  Velocity(au)
C        -0.03181021     0.03042678    -0.05461063    -0.00003265     0.00024527    -0.00152895
N        -0.04369730    -0.03695460     1.36430221     0.00019527     0.00002415     0.00138332
H         0.91185164    -0.07255528    -0.53909090     0.00064510    -0.00095108    -0.00056786
H         0.85034793    -0.27218637     1.85442716    -0.00070544    -0.00054122    -0.00059536
H        -0.94956907    -0.14272781     1.78799194    -0.00202413    -0.00078851     0.00025423
H        -1.03928225    -0.03134151    -0.51936735    -0.00024009    -0.00097742    -0.00009515
     6
  Step:    18            Position(A)                                  Velocity(au)
C        -0.03201179     0.03177642    -0.06281026    -0.00003790     0.00023126    -0.00136615
N        -0.04259909    -0.03681602     1.37176540     0.00018965     0.00002499     0.00125124
H         0.91589063    -0.07782519    -0.54274843     0.00077155    -0.00090965    -0.00071468
H         0.84636624    -0.27515888     1.85120450    -0.00068495    -0.00051292    -0.00053335
H        -0.96099031    -0.14707649     1.78972709    -0.00198330    -0.00074457     0.00034473
H        -1.04077732    -0.03675848    -0.52022634    -0.00028723    -0.00093583    -0.00020518
     6
  Step:    19            Position(A)                                  Velocity(au)
C        -0.03224000     0.03304954    -0.07010415    -0.00004226     0.00021965    -0.00121792
N        -0.04154644    -0.03667122     1.37849246     0.00018062     0.00002647     0.00113137
H         0.92060180    -0.08287155    -0.54719612     0.00088602    -0.00087734    -0.00085119
H         0.84257993    -0.27800342     1.84837845    -0.00064212    -0.00049895    -0.00045973
H        -0.97206157    -0.15117202     1.79190147    -0.00191505    -0.00070368     0.00041317
H        -1.04253968    -0.04195468    -0.52169426    -0.00033519    -0.00090514    -0.00031138
     6
  Step:    20            Position(A)                                  Velocity(au)
C        -0.03248947     0.03425907    -0.07657645    -0.00004564     0.00020983    -0.00108155
N        -0.04055757    -0.03651685     1.38455331     0.00016826     0.00002848     0.00102116
H         0.92590536    -0.08774174    -0.55236938     0.00098498    -0.00085132    -0.00097599
H         0.83910839    -0.28079854     1.84600821    -0.00057833    -0.00049762    -0.00037539
H        -0.98263614    -0.15503019     1.79439711    -0.00181946    -0.00066411     0.00046221
H        -1.04456600    -0.04698929    -0.52374583    -0.00038147    -0.00088306    -0.00041341
     6
  Step:    21            Position(A)                                  Velocity(au)
C        -0.03275448     0.03541475    -0.08229556    -0.00004795     0.00020124    -0.00095450
N        -0.03964983    -0.03635017     1.39000312     0.00015272     0.00003091     0.00091817
H         0.93170464    -0.09246780    -0.55819766     0.00106493    -0.00082887    -0.00108727
H         0.83606089    -0.28361264     1.84414703    -0.00049553    -0.00050699    -0.00028159
H        -0.99257080    -0.15865798     1.79711161    -0.00169683    -0.00062435     0.00049400
H        -1.04683963    -0.05190867    -0.52635424    -0.00042350    -0.00086722    -0.00051043
     6
  Step:    22            Position(A)                                  Velocity(au)
C        -0.03302893     0.03652312    -0.08731527    -0.00004915     0.00019345    -0.00083520
N        -0.03883934    -0.03616912     1.39488334     0.00013437     0.00003363     0.00082087
H         0.93788652    -0.09706716    -0.56460196     0.00112329    -0.00080799    -0.00118358
H         0.83353338    -0.28650250     1.84284015    -0.00039680    -0.00052517    -0.00018032
H        -1.00172664    -0.16205460     1.79995491    -0.00154907    -0.00058355     0.00051056
H        -1.04933063    -0.05674610    -0.52948853    -0.00045905    -0.00085583    -0.00060150
     6
  Step:    23            Position(A)                                  Velocity(au)
C        -0.03330670     0.03758845    -0.09168014    -0.00004925     0.00018622    -0.00072283
N        -0.03814001    -0.03597230     1.39922670     0.00011373     0.00003654     0.00072850
H         0.94432630    -0.10154658    -0.57149671     0.00115874    -0.00078737    -0.00126419
H         0.83160233    -0.28951358     1.84212092    -0.00028629    -0.00055031    -0.00007414
H        -1.00997665    -0.16521493     1.80284840    -0.00137955    -0.00054143     0.00051402
H        -1.05199763    -0.06152497    -0.53311290    -0.00048637    -0.00084766    -0.00068583
     6
  Step:    24            Position(A)                                  Velocity(au)
C        -0.03358186     0.03861360    -0.09542979    -0.00004835     0.00017937    -0.00061698
N        -0.03756265    -0.03575891     1.40306143     0.00009143     0.00003954     0.00064069
H         0.95089457    -0.10590616    -0.57879378     0.00117112    -0.00076627    -0.00132914
H         0.83031945    -0.29268032     1.84200790    -0.00016884    -0.00058058     0.00003409
H        -1.01721341    -0.16813269     1.80572532    -0.00119251    -0.00049811     0.00050658
H        -1.05479062    -0.06626191    -0.53718764    -0.00050423    -0.00084190    -0.00076288
     6
  Step:    25            Position(A)                                  Velocity(au)
C        -0.03384903     0.03960059    -0.09860115    -0.00004653     0.00017283    -0.00051738
N        -0.03711438    -0.03552877     1.40641371     0.00006817     0.00004252     0.00055732
H         0.95746346    -0.11014232    -0.58640638     0.00116119    -0.00074433    -0.00137900
H         0.82970832    -0.29602629     1.84250334    -0.00004961    -0.00061412     0.00014143
H        -1.02335368    -0.17080253     1.80853095    -0.00099254    -0.00045394     0.00049038
H        -1.05765383    -0.07096906    -0.54167051    -0.00051186    -0.00083800    -0.00083237
     6
  Step:    26            Position(A)                                  Velocity(au)
C        -0.03410344     0.04055096    -0.10122942    -0.00004393     0.00016653    -0.00042379
N        -0.03679852    -0.03528223     1.40930876     0.00004460     0.00004540     0.00047828
H         0.96391102    -0.11424976    -0.59425186     0.00113031    -0.00072137    -0.00141476
H         0.82976337    -0.29956440     1.84359323     0.00006630    -0.00064911     0.00024505
H        -1.02833943    -0.17322111     1.81122227    -0.00078409    -0.00040932     0.00046745
H        -1.06052836    -0.07565556    -0.54651821    -0.00050891    -0.00083555    -0.00089426
     6
  Step:    27            Position(A)                                  Velocity(au)
C        -0.03434108     0.04146599    -0.10334814    -0.00004067     0.00016044    -0.00033589
N        -0.03661475    -0.03502019     1.41177113     0.00002136     0.00004808     0.00040346
H         0.97012458    -0.11822273    -0.60225368     0.00108028    -0.00069740    -0.00143756
H         0.83045095    -0.30329722     1.84524830     0.00017409    -0.00068376     0.00034241
H        -1.03213665    -0.17538746     1.81376703    -0.00057121    -0.00036468     0.00043959
H        -1.06335429    -0.08032835    -0.55168751    -0.00049531    -0.00083420    -0.00094862
     6
  Step:    28            Position(A)                                  Velocity(au)
C        -0.03455867     0.04234678    -0.10498897    -0.00003689     0.00015453    -0.00025334
N        -0.03655946    -0.03474404     1.41382464    -0.00000102     0.00005048     0.00033271
H         0.97600240    -0.12205563    -0.61034221     0.00101305    -0.00067245    -0.00144862
H         0.83171198    -0.30721759     1.84742573     0.00026956    -0.00071641     0.00043124
H        -1.03473294    -0.17730289     1.81614253    -0.00035751    -0.00032040     0.00040839
H        -1.06607226    -0.08499260    -0.55713596    -0.00047125    -0.00083366    -0.00099561
     6
  Step:    29            Position(A)                                  Velocity(au)
C        -0.03475368     0.04319426    -0.10618151    -0.00003271     0.00014877    -0.00017576
N        -0.03662621    -0.03445560     1.41549213    -0.00002207     0.00005253     0.00026583
H         0.98145451    -0.12574341    -0.61845494     0.00093065    -0.00064662    -0.00144910
H         0.83346566    -0.31130949     1.85007127     0.00034917    -0.00074555     0.00050969
H        -1.03613500    -0.17897083     1.81833443    -0.00014620    -0.00027684     0.00037524
H        -1.06862474    -0.08965195    -0.56282234    -0.00043711    -0.00083365    -0.00103542
     6
  Step:    30            Position(A)                                  Velocity(au)
C        -0.03492420     0.04400925    -0.10695314    -0.00002823     0.00014312    -0.00010277
N        -0.03680613    -0.03415704     1.41679525    -0.00004139     0.00005416     0.00020259
H         0.98640242    -0.12928163    -0.62653593     0.00083498    -0.00061999    -0.00144006
H         0.83561392    -0.31554914     1.85312152     0.00041021    -0.00076989     0.00057629
H        -1.03636676    -0.18039660     1.82033583     0.00005975    -0.00023431     0.00034139
H        -1.07095696    -0.09430861    -0.56870685    -0.00039340    -0.00083390    -0.00106829
     6
  Step:    31            Position(A)                                  Velocity(au)
C        -0.03506885     0.04479241    -0.10732908    -0.00002353     0.00013758    -0.00003399
N        -0.03708840    -0.03385084     1.41775432    -0.00005866     0.00005533     0.00014276
H         0.99077812    -0.13266634    -0.63453497     0.00072785    -0.00059263    -0.00142241
H         0.83804622    -0.31990631     1.85650629     0.00045083    -0.00078838     0.00062999
H        -1.03546783    -0.18158722     1.82214649     0.00025761    -0.00019311     0.00030798
H        -1.07301755    -0.09896348    -0.57475112    -0.00034074    -0.00083417    -0.00109441
     6
  Step:    32            Position(A)                                  Velocity(au)
C        -0.03518674     0.04554430    -0.10733242    -0.00001870     0.00013210     0.00003091
N        -0.03746066    -0.03353964     1.41838819    -0.00007363     0.00005602     0.00008609
H         0.99452375    -0.13589415    -0.64240701     0.00061101    -0.00056463    -0.00139697
H         0.84064429    -0.32434577     1.86015094     0.00046998    -0.00080020     0.00067013
H        -1.03349236    -0.18255129     1.82377222     0.00044481    -0.00015351     0.00027604
H        -1.07475894    -0.10361619    -0.58091814    -0.00027982    -0.00083422    -0.00111396
     6
  Step:    33            Position(A)                                  Velocity(au)
C        -0.03527738     0.04626534    -0.10698437    -0.00001382     0.00012667     0.00009225
N        -0.03790933    -0.03322620     1.41871427    -0.00008610     0.00005621     0.00003234
H         0.99759100    -0.13896213    -0.65011150     0.00048611    -0.00053608    -0.00136449
H         0.84328663    -0.32882865     1.86397837     0.00046741    -0.00080481     0.00069640
H        -1.03050816    -0.18329889     1.82522440     0.00061888    -0.00011578     0.00024655
H        -1.07613757    -0.10826518    -0.58717202    -0.00021136    -0.00083383    -0.00112713
     6
  Step:    34            Position(A)                                  Velocity(au)
C        -0.03534068     0.04695582    -0.10630445    -0.00000893     0.00012127     0.00015027
N        -0.03842004    -0.03291329     1.41874856    -0.00009594     0.00005591    -0.00001873
H         0.99994063    -0.14186782    -0.65761190     0.00035475    -0.00050704    -0.00132561
H         0.84585276    -0.33331397     1.86791113     0.00044360    -0.00080193     0.00070887
H        -1.02659600    -0.18384149     1.82651960     0.00077751    -0.00008018     0.00022042
H        -1.07711417    -0.11290783    -0.59347803    -0.00013617    -0.00083282    -0.00113407
     6
  Step:    35            Position(A)                                  Velocity(au)
C        -0.03537687     0.04761598    -0.10531075    -0.00000411     0.00011589     0.00020519
N        -0.03897785    -0.03260356     1.41850569    -0.00010308     0.00005513    -0.00006733
H         1.00154198    -0.14460922    -0.66487522     0.00021845    -0.00047762    -0.00128094
H         0.84822707    -0.33775998     1.87187322     0.00039966    -0.00079153     0.00070789
H        -1.02184888    -0.18419191     1.82767926     0.00091846    -0.00004696     0.00019851
H        -1.07765416    -0.11754055    -0.59980248    -0.00005512    -0.00083102    -0.00113497
     6
  Step:    36            Position(A)                                  Velocity(au)
C        -0.03538645     0.04824598    -0.10402019     0.00000061     0.00011053     0.00025718
N        -0.03956757    -0.03229955     1.41799906    -0.00010748     0.00005392    -0.00011365
H         1.00237244    -0.14718476    -0.67187158     0.00007864    -0.00044788    -0.00123100
H         0.85030189    -0.34212543     1.87579157     0.00033724    -0.00077376     0.00069410
H        -1.01637149    -0.18436427     1.82872949     0.00103964    -0.00001636     0.00018166
H        -1.07772782    -0.12215895    -0.60611277     0.00003089    -0.00082829    -0.00113000
     6
  Step:    37            Position(A)                                  Velocity(au)
C        -0.03537013     0.04884593    -0.10244878     0.00000518     0.00010516     0.00030636
N        -0.04017394    -0.03200355     1.41724095    -0.00010915     0.00005231    -0.00015788
H         1.00241705    -0.14959331    -0.67857396    -0.00006329    -0.00041792    -0.00117629
H         0.85197994    -0.34637058     1.87959728     0.00025838    -0.00074900     0.00066832
H        -1.01027956    -0.18437397     1.82970083     0.00113912     0.00001139     0.00017063
H        -1.07731046    -0.12675793    -0.61237736     0.00012091    -0.00082451    -0.00111936
     6
  Step:    38            Position(A)                                  Velocity(au)
C        -0.03532887     0.04941593    -0.10061187     0.00000956     0.00009980     0.00035281
N        -0.04078188    -0.03171759     1.41624265    -0.00010813     0.00005036    -0.00020015
H         1.00166831    -0.15183420    -0.68495803    -0.00020597    -0.00038783    -0.00111731
H         0.85317639    -0.35045818     1.88322681     0.00016548    -0.00071775     0.00063161
H        -1.00369861    -0.18423750     1.83062783     0.00121524     0.00003611     0.00016610
H        -1.07638261    -0.13133182    -0.61856585     0.00021400    -0.00081960    -0.00110324
     6
  Step:    39            Position(A)                                  Velocity(au)
C        -0.03526380     0.04995607    -0.09852435     0.00001372     0.00009445     0.00039659
N        -0.04137671    -0.03144339     1.41501467    -0.00010453     0.00004812    -0.00024057
H         1.00012599    -0.15390728    -0.69100207    -0.00034808    -0.00035772    -0.00105453
H         0.85382057    -0.35435432     1.88662281     0.00006120    -0.00068069     0.00058514
H        -0.99676213    -0.18397230     1.83154842     0.00126677     0.00005765     0.00016859
H        -1.07493010    -0.13587453    -0.62464900     0.00030914    -0.00081348    -0.00108188
     6
  Step:    40            Position(A)                                  Velocity(au)
C        -0.03517625     0.05046647    -0.09620086     0.00001763     0.00008912     0.00043770
N        -0.04194445    -0.03118234     1.41356689    -0.00009848     0.00004566    -0.00027924
H         0.99779682    -0.15581291    -0.69668687    -0.00048834    -0.00032769    -0.00098842
H         0.85385704    -0.35802910     1.88973498    -0.00005162    -0.00063860     0.00053025
H        -0.98960913    -0.18359632     1.83250298     0.00129298     0.00007594     0.00017844
H        -1.07294419    -0.14037962    -0.63059888     0.00040535    -0.00080611    -0.00105551
     6
  Step:    41            Position(A)                                  Velocity(au)
C        -0.03506766     0.05094731    -0.09365599     0.00002127     0.00008382     0.00047614
N        -0.04247205    -0.03093554     1.41190879    -0.00009019     0.00004302    -0.00031619
H         0.99469444    -0.15755205    -0.70199577    -0.00062546    -0.00029786    -0.00091947
H         0.85324640    -0.36145720     1.89252057    -0.00017005    -0.00059235     0.00046835
H        -0.98238093    -0.18312765     1.83353311     0.00129376     0.00009101     0.00019572
H        -1.07042162    -0.14484048    -0.63638891     0.00050159    -0.00079746    -0.00102440
     6
  Step:    42            Position(A)                                  Velocity(au)
C        -0.03493967     0.05139884    -0.09090443     0.00002459     0.00007856     0.00051186
N        -0.04294766    -0.03070375     1.41004968    -0.00007990     0.00004027    -0.00035142
H         0.99083932    -0.15912627    -0.70691475    -0.00075821    -0.00026836    -0.00084818
H         0.85196549    -0.36461824     1.89494478    -0.00029112    -0.00054286     0.00040090
H        -0.97521765    -0.18258397     1.83468017     0.00126970     0.00010297     0.00022026
H        -1.06736464    -0.14925039    -0.64199403     0.00059686    -0.00078754    -0.00098885
     6
  Step:    43            Position(A)                                  Velocity(au)
C        -0.03479405     0.05182140    -0.08796111     0.00002758     0.00007337     0.00054479
N        -0.04336097    -0.03048747     1.40799893    -0.00006790     0.00003745    -0.00038489
H         0.98625869    -0.16053786    -0.71143257    -0.00088532    -0.00023933    -0.00077509
H         0.85000740    -0.36749709     1.89698102    -0.00041192    -0.00049112     0.00032943
H        -0.96825434    -0.18198198     1.83598372     0.00122205     0.00011206     0.00025155
H        -1.06378096    -0.15360266    -0.64739081     0.00069016    -0.00077637    -0.00094917
     6
  Step:    44            Position(A)                                  Velocity(au)
C        -0.03463272     0.05221544    -0.08484131     0.00003021     0.00006828     0.00057487
N        -0.04370338    -0.03028695     1.40576621    -0.00005455     0.00003460    -0.00041651
H         0.98098643    -0.16178985    -0.71554093    -0.00100559    -0.00021091    -0.00070077
H         0.84738113    -0.37008406     1.89861103    -0.00052960    -0.00043813     0.00025545
H        -0.96161718    -0.18133682     1.83747977     0.00115283     0.00011861     0.00028879
H        -1.05968374    -0.15789072    -0.65255756     0.00078049    -0.00076397    -0.00090571
     6