     6
  Step:   120            Position(A)                                  Velocity(au)
C        -0.04630827    -0.02170992    -0.17834480     0.00000652    -0.00000490     0.00025851
N        -0.04771116    -0.14033566     1.48269777     0.00003466     0.00001239    -0.00020569
H         0.87895748     0.53397652    -0.44031276    -0.00041135     0.00122022     0.00098638
H         0.86117991     0.15750958     1.88951314    -0.00025443    -0.00153905    -0.00007658
H        -0.73852828     0.62677122     1.66936271     0.00060886     0.00155061    -0.00059293
H        -0.99972302     0.22080284    -0.70542516    -0.00050238    -0.00134562    -0.00053884
