 Fermi distribution function

Calculation with static geometry


********************************************************************************
 iSCC Total electronic   Diff electronic      SCC error    
   13   -0.53173275E+01   -0.20872193E-11    0.25249452E-06
********************************************************************************

 Total charge:     1.00000000

 Atomic gross charges (e)
 Atom           Charge
    1       0.31057060
    2      -0.21377811
    3       0.17350382
    4       0.28861712
    5       0.27076735
    6       0.17031923

Nr. of electrons (up):     12.00000000
Atom populations (up)
 Atom       Population
    1       3.68942940
    2       5.21377811
    3       0.82649618
    4       0.71138288
    5       0.72923265
    6       0.82968077

l-shell populations (up)
 Atom Sh.   l       Population
    1   1   0       1.37047510
    1   2   1       2.31895430
    2   1   0       1.47018314
    2   2   1       3.74359497
    3   1   0       0.82649618
    4   1   0       0.71138288
    5   1   0       0.72923265
    6   1   0       0.82968077

Orbital populations (up)
 Atom Sh.   l   m       Population  Label
    1   1   0   0       1.37047510  s
    1   2   1  -1       0.48745872  p_y
    1   2   1   0       0.86157472  p_z
    1   2   1   1       0.96992086  p_x
    2   1   0   0       1.47018314  s
    2   2   1  -1       1.36269290  p_y
    2   2   1   0       1.06481953  p_z
    2   2   1   1       1.31608255  p_x
    3   1   0   0       0.82649618  s
    4   1   0   0       0.71138288  s
    5   1   0   0       0.72923265  s
    6   1   0   0       0.82968077  s

Fermi level:                        -0.4968904331 H          -13.5211 eV
Band energy:                        -8.6889654376 H         -236.4388 eV
TS:                                  0.0000000000 H            0.0000 eV
Band free energy (E-TS):            -8.6889654376 H         -236.4388 eV
Extrapolated E(0K):                 -8.6889654376 H         -236.4388 eV
Input / Output electrons (q):     12.0000000000     12.0000000000

Energy H0:                          -5.4494297936 H         -148.2865 eV
Energy SCC:                          0.1321022904 H            3.5947 eV
Total Electronic energy:            -5.3173275032 H         -144.6918 eV
Repulsive energy:                    0.1489477956 H            4.0531 eV
Total energy:                       -5.1683797076 H         -140.6388 eV
Extrapolated to 0:                  -5.1683797076 H         -140.6388 eV
Total Mermin free energy:           -5.1683797076 H         -140.6388 eV
Force related energy:               -5.1683797076 H         -140.6388 eV

SCC converged

Excitation Energy:                   0.1014602181 H            2.7609 eV

Total Forces
    1     -0.007655396573     -0.006737499450      0.086028494491
    2      0.020226494974     -0.004958801807     -0.084801448129
    3     -0.002605756716      0.014121086000      0.002421307347
    4     -0.021183071684     -0.002536269610     -0.008650570445
    5      0.002364615459      0.012636626028      0.002418001056
    6      0.008853114540     -0.012525141161      0.002584215680

Maximal derivative component:        0.860285E-01 au


