|===============================================================================
|
|  DFTB+ release 20.1
|
|  Copyright (C) 2006 - 2020  DFTB+ developers group
|
|===============================================================================
|
|  When publishing results obtained with DFTB+, please cite the following
|  reference:
|
|  * DFTB+, a software package for efficient approximate density functional
|    theory based atomistic simulations, J. Chem. Phys. 152, 124101 (2020).
|    [doi: 10.1063/1.5143190]
|
|  You should also cite additional publications crediting the parametrization
|  data you use. Please consult the documentation of the SK-files for the
|  references.
|
|===============================================================================

Reading input file 'dftb_in.hsd'
Parser version: 8

--------------------------------------------------------------------------------
Reading SK-files:
Done.


Processed input in HSD format written to 'dftb_pin.hsd'

Starting initialization...
--------------------------------------------------------------------------------
WARNING!
-> Excited state forces are not implemented yet for fractional occupations, kT=  0.3158E-02K
OpenMP threads:              1
Chosen random seed:          509072805
Mode:                        Static calculation
Self consistent charges:     Yes
SCC-tolerance:                 0.100000E-05
Max. scc iterations:                    100
Shell resolved Hubbard:      No
Spin polarisation:           No
Nr. of up electrons:             6.000000
Nr. of down electrons:           6.000000
Periodic boundaries:         No
Electronic solver:           Relatively robust
Mixer:                       Broyden mixer
Mixing parameter:                  0.200000
Maximal SCC-cycles:                     100
Nr. of chrg. vec. in memory:              0
Electronic temperature:        0.100000E-07 H      0.272114E-06 eV
Initial charges:             Set automatically (system chrg:   0.100E+01)
Included shells:             C:  s, p
                             N:  s, p
                             H:  s
Extra options:
                             Mulliken analysis
                             Force calculation
Force type                   original
                             Eigenvector printing

--------------------------------------------------------------------------------

***  Geometry step: 0

 iSCC Total electronic   Diff electronic      SCC error    
    1   -0.52884163E+01    0.00000000E+00    0.10591648E+01
    2   -0.53065011E+01   -0.18084763E-01    0.67841384E+00
    3   -0.53138028E+01   -0.73017328E-02    0.25793427E+00
    4   -0.50795471E+01    0.23425572E+00    0.16176747E+01
    5   -0.53170231E+01   -0.23747596E+00    0.59059722E-01
    6   -0.53172910E+01   -0.26792206E-03    0.24685892E-01
    7   -0.53172830E+01    0.80182334E-05    0.25435882E-01
    8   -0.53173227E+01   -0.39772244E-04    0.80515187E-02
    9   -0.53173243E+01   -0.15594572E-05    0.66084400E-02
   10   -0.53173274E+01   -0.31305273E-05    0.99338049E-03
   11   -0.53173275E+01   -0.64414539E-07    0.33575653E-03
   12   -0.53173275E+01   -0.83840188E-08    0.52087161E-05
   13   -0.53173275E+01   -0.20872193E-11    0.25249452E-06
>> Charges saved for restart in charges.bin

Total Energy:                       -5.0669194895 H         -137.8779 eV
Extrapolated to 0:                  -5.1683797076 H         -140.6388 eV
Total Mermin free energy:           -5.0669194895 H         -137.8779 eV
Force related energy:               -5.1683797076 H         -140.6388 eV

--------------------------------------------------------------------------------
DFTB+ running times                          cpu [s]             wall clock [s]
--------------------------------------------------------------------------------
SCC                                    +     0.02  ( 55.6%)      0.05  ( 67.1%)
Post-SCC processing                    +     0.01  ( 38.4%)      0.02  ( 26.0%)
--------------------------------------------------------------------------------
Missing                                +     0.00  (  6.0%)      0.01  (  6.8%)
Total                                  =     0.03  (100.0%)      0.07  (100.0%)
--------------------------------------------------------------------------------
