 Fermi distribution function

Calculation with static geometry


********************************************************************************
 iSCC Total electronic   Diff electronic      SCC error    
   10   -0.54004783E+01   -0.79136697E-12    0.29891077E-06
********************************************************************************

 Total charge:     1.00000000

 Atomic gross charges (e)
 Atom           Charge
    1       0.28583748
    2      -0.18133840
    3       0.14176715
    4       0.29343657
    5       0.29691703
    6       0.16338017

Nr. of electrons (up):     12.00000000
Atom populations (up)
 Atom       Population
    1       3.71416252
    2       5.18133840
    3       0.85823285
    4       0.70656343
    5       0.70308297
    6       0.83661983

l-shell populations (up)
 Atom Sh.   l       Population
    1   1   0       1.29367338
    1   2   1       2.42048914
    2   1   0       1.40414851
    2   2   1       3.77718989
    3   1   0       0.85823285
    4   1   0       0.70656343
    5   1   0       0.70308297
    6   1   0       0.83661983

Orbital populations (up)
 Atom Sh.   l   m       Population  Label
    1   1   0   0       1.29367338  s
    1   2   1  -1       0.55176755  p_y
    1   2   1   0       0.89352392  p_z
    1   2   1   1       0.97519767  p_x
    2   1   0   0       1.40414851  s
    2   2   1  -1       1.34060135  p_y
    2   2   1   0       1.07534990  p_z
    2   2   1   1       1.36123863  p_x
    3   1   0   0       0.85823285  s
    4   1   0   0       0.70656343  s
    5   1   0   0       0.70308297  s
    6   1   0   0       0.83661983  s

Fermi level:                        -0.4815991928 H          -13.1050 eV
Band energy:                        -8.8623370709 H         -241.1565 eV
TS:                                  0.0000000000 H            0.0000 eV
Band free energy (E-TS):            -8.8623370709 H         -241.1565 eV
Extrapolated E(0K):                 -8.8623370709 H         -241.1565 eV
Input / Output electrons (q):     12.0000000000     12.0000000000

Energy H0:                          -5.5324430976 H         -150.5454 eV
Energy SCC:                          0.1319648236 H            3.5909 eV
Total Electronic energy:            -5.4004782739 H         -146.9545 eV
Repulsive energy:                    0.2030120291 H            5.5242 eV
Total energy:                       -5.1974662448 H         -141.4303 eV
Extrapolated to 0:                  -5.1974662448 H         -141.4303 eV
Total Mermin free energy:           -5.1974662448 H         -141.4303 eV
Force related energy:               -5.1974662448 H         -141.4303 eV

SCC converged

Excitation Energy:                   0.0914405664 H            2.4882 eV

Total Forces
    1     -0.007894923706     -0.010057219105      0.005080500978
    2     -0.003245051009      0.011431978495     -0.002303987850
    3     -0.002324525501      0.015491706216      0.004759891592
    4     -0.008215679230     -0.012751725320     -0.000682974941
    5      0.015546308348      0.006568950290     -0.005928885504
    6      0.006133871097     -0.010683690576     -0.000924544274

Maximal derivative component:        0.155463E-01 au


