     6
  Step:   300            Position(A)                                  Velocity(au)
C        -0.03922510     0.00673860     0.02973365     0.00000864     0.00000158     0.00004649
N        -0.04344788    -0.04768632     1.28501093    -0.00000983     0.00000441    -0.00004222
H         0.07674877     0.96622549    -0.47337864    -0.00188693    -0.00023819    -0.00041057
H        -0.22928899    -0.90938361     1.82421164    -0.00185367     0.00065155     0.00042879
H         0.15740845     0.75144773     1.90280949     0.00193809    -0.00075699     0.00033849
H        -0.14662082    -0.89568475    -0.57288350     0.00183610     0.00026349    -0.00032397
