|===============================================================================
|
|  DFTB+ release 20.1
|
|  Copyright (C) 2006 - 2020  DFTB+ developers group
|
|===============================================================================
|
|  When publishing results obtained with DFTB+, please cite the following
|  reference:
|
|  * DFTB+, a software package for efficient approximate density functional
|    theory based atomistic simulations, J. Chem. Phys. 152, 124101 (2020).
|    [doi: 10.1063/1.5143190]
|
|  You should also cite additional publications crediting the parametrization
|  data you use. Please consult the documentation of the SK-files for the
|  references.
|
|===============================================================================

Reading input file 'dftb_in.hsd'
Parser version: 8

--------------------------------------------------------------------------------
Reading SK-files:
Done.


Processed input in HSD format written to 'dftb_pin.hsd'

Starting initialization...
--------------------------------------------------------------------------------
WARNING!
-> Excited state forces are not implemented yet for fractional occupations, kT=  0.3158E-02K
OpenMP threads:              1
Chosen random seed:          509073871
Mode:                        Static calculation
Self consistent charges:     Yes
SCC-tolerance:                 0.100000E-05
Max. scc iterations:                    100
Shell resolved Hubbard:      No
Spin polarisation:           No
Nr. of up electrons:             6.000000
Nr. of down electrons:           6.000000
Periodic boundaries:         No
Electronic solver:           Relatively robust
Mixer:                       Broyden mixer
Mixing parameter:                  0.200000
Maximal SCC-cycles:                     100
Nr. of chrg. vec. in memory:              0
Electronic temperature:        0.100000E-07 H      0.272114E-06 eV
Initial charges:             Set automatically (system chrg:   0.100E+01)
Included shells:             C:  s, p
                             N:  s, p
                             H:  s
Extra options:
                             Mulliken analysis
                             Force calculation
Force type                   original
                             Eigenvector printing

--------------------------------------------------------------------------------

***  Geometry step: 0

 iSCC Total electronic   Diff electronic      SCC error    
    1   -0.52452061E+01    0.00000000E+00    0.10946732E+01
    2   -0.52698676E+01   -0.24661434E-01    0.67795014E+00
    3   -0.52780689E+01   -0.82013205E-02    0.29818022E+00
    4   -0.48957936E+01    0.38227528E+00    0.19808303E+01
    5   -0.52805161E+01   -0.38472250E+00    0.15951604E+00
    6   -0.52830516E+01   -0.25354584E-02    0.12653636E-01
    7   -0.52830422E+01    0.94103841E-05    0.16554546E-01
    8   -0.52830550E+01   -0.12786396E-04    0.55502532E-02
    9   -0.52830556E+01   -0.63969926E-06    0.47870925E-02
   10   -0.52830575E+01   -0.19239237E-05    0.73881213E-03
   11   -0.52830576E+01   -0.44584506E-07    0.21135299E-03
   12   -0.52830576E+01   -0.33105714E-08    0.72314317E-04
   13   -0.52830576E+01   -0.47186965E-09    0.13836109E-06
>> Charges saved for restart in charges.bin

Total Energy:                       -5.0435382548 H         -137.2417 eV
Extrapolated to 0:                  -5.1450047377 H         -140.0027 eV
Total Mermin free energy:           -5.0435382548 H         -137.2417 eV
Force related energy:               -5.1450047377 H         -140.0027 eV

--------------------------------------------------------------------------------
DFTB+ running times                          cpu [s]             wall clock [s]
--------------------------------------------------------------------------------
SCC                                    +     0.01  ( 50.0%)      0.03  ( 50.0%)
Post-SCC processing                    +     0.01  ( 42.9%)      0.03  ( 44.1%)
--------------------------------------------------------------------------------
Missing                                +     0.00  (  7.1%)      0.00  (  5.9%)
Total                                  =     0.03  (100.0%)      0.07  (100.0%)
--------------------------------------------------------------------------------
