    14
  Step:     0            Position(A)                                  Velocity(au)
C        -6.04594226    -0.72244206    -0.06197392    -0.00029528    -0.00015606    -0.00013937
C        -4.66357859    -0.76362058     0.09338796     0.00036285    -0.00001430     0.00013627
H        -6.65385889     0.19884644    -0.28482501    -0.00096362     0.00003715     0.00061879
H        -6.51930671    -1.65036966     0.35763115     0.00046122    -0.00081952     0.00099990
H        -4.21157989    -1.67779863     0.53844913    -0.00052300     0.00024573     0.00026847
C        -3.86896819     0.40333531    -0.13687135     0.00001487     0.00040744    -0.00029044
C        -2.56163905     0.51262293     0.16389469    -0.00023924    -0.00022796     0.00009846
H        -4.39258250     1.27574479    -0.63092209     0.00025963     0.00066565    -0.00006954
H        -2.01384285    -0.25847837     0.69358004     0.00067165     0.00066372    -0.00054708
C        -1.81159962     1.71051740    -0.00334141     0.00022345     0.00002265     0.00007107
H        -2.28966430     2.68473104    -0.33789268    -0.00059338    -0.00047075     0.00026502
N        -0.57323691     1.78904206     0.25775030     0.00000548    -0.00006114    -0.00004562
H        -0.09681824     2.66362087     0.11311101     0.00008530     0.00089244    -0.00009386
H         0.00005724     0.95420134     0.32632759    -0.00026817    -0.00074334     0.00066997
    14
  Step:     1            Position(A)                                  Velocity(au)
C        -6.04926069    -0.72424217    -0.06337606    -0.00030860    -0.00017399    -0.00011557
C        -4.65956843    -0.76372714     0.09489083     0.00036528    -0.00000264     0.00013670
H        -6.66352348     0.19801893    -0.27811979    -0.00079789    -0.00019490     0.00060657
H        -6.51476207    -1.65811322     0.36762375     0.00037248    -0.00058238     0.00081822
H        -4.21744560    -1.67442453     0.54083170    -0.00053568     0.00035760     0.00017483
C        -3.86940697     0.40778382    -0.14024831    -0.00009431     0.00040420    -0.00032586
C        -2.56369813     0.51026530     0.16512173    -0.00013633    -0.00020001     0.00012469
H        -4.38912052     1.28203759    -0.63095562     0.00036977     0.00048483     0.00006030
H        -2.00663963    -0.25185266     0.68754432     0.00064673     0.00052715    -0.00054693
C        -1.80991542     1.71083847    -0.00276698     0.00008218     0.00003418     0.00003418
H        -2.29590256     2.67802508    -0.33456616    -0.00054368    -0.00074399     0.00034018
N        -0.57256012     1.78839531     0.25736905     0.00012106    -0.00005525    -0.00002434
H        -0.09538861     2.67362678     0.11210249     0.00015665     0.00089032    -0.00008297
H        -0.00276589     0.94614672     0.33386986    -0.00025709    -0.00070658     0.00070625
    14
  Step:     2            Position(A)                                  Velocity(au)
C        -6.05269341    -0.72624850    -0.06450219    -0.00031572    -0.00019363    -0.00008911
C        -4.65558745    -0.76367830     0.09637845     0.00035749     0.00001437     0.00013332
H        -6.67131419     0.19458253    -0.27155511    -0.00062550    -0.00043273     0.00059155
H        -6.51115793    -1.66311034     0.37553125     0.00028703    -0.00032483     0.00062204
H        -4.22329890    -1.66997541     0.54227388    -0.00051915     0.00043850     0.00009880
C        -3.87103149     0.41217805    -0.14400021    -0.00020059     0.00039691    -0.00035838
C        -2.56462142     0.50824742     0.16662252    -0.00003285    -0.00016638     0.00014834
H        -4.38449306     1.28635134    -0.62960291     0.00046780     0.00031119     0.00017976
H        -1.99969446    -0.24694594     0.68161493     0.00062467     0.00035259    -0.00052914
C        -1.80980170     1.71126520    -0.00259374    -0.00006006     0.00004152    -0.00000133
H        -2.30155836     2.66845485    -0.33045059    -0.00049180    -0.00098536     0.00040598
N        -0.57058849     1.78783328     0.25721775     0.00023927    -0.00004584    -0.00000403
H        -0.09339118     2.68309838     0.11129597     0.00019243     0.00080068    -0.00005805
H        -0.00556710     0.93874359     0.34177821    -0.00026093    -0.00062883     0.00073707
    14
  Step:     3            Position(A)                                  Velocity(au)
C        -6.05616772    -0.72847821    -0.06532556    -0.00031587    -0.00021468    -0.00006046
C        -4.65174757    -0.76341267     0.09780744     0.00033969     0.00003719     0.00012588
H        -6.67720748     0.18855204    -0.26517851    -0.00045550    -0.00066217     0.00057075
H        -6.50848266    -1.66521954     0.38123203     0.00020058    -0.00006193     0.00041834
H        -4.22880290    -1.66483151     0.54299323    -0.00047107     0.00048223     0.00004418
C        -3.87379519     0.41646705    -0.14808851    -0.00030145     0.00038429    -0.00038677
C        -2.56441676     0.50662551     0.16836688     0.00006886    -0.00012820     0.00016914
H        -4.37888653     1.28884550    -0.62702292     0.00054402     0.00015958     0.00028062
H        -1.99297382    -0.24413901     0.67596837     0.00060494     0.00014783    -0.00049756
C        -1.81122928     1.71174673    -0.00279609    -0.00019608     0.00004370    -0.00003357
H        -2.30666162     2.65646852    -0.32568449    -0.00044787    -0.00117674     0.00045583
N        -0.56732565     1.78739254     0.25728079     0.00035412    -0.00003342     0.00001442
H        -0.09117893     2.69114319     0.11083251     0.00020092     0.00063889    -0.00002184
H        -0.00847424     0.93238993     0.34999467    -0.00027260    -0.00052055     0.00076302
    14
  Step:     4            Position(A)                                  Velocity(au)
C        -6.05960366    -0.73094502    -0.06582487    -0.00030856    -0.00023680    -0.00003016
C        -4.64815617    -0.76286473     0.09913221     0.00031263     0.00006614     0.00011424
H        -6.68127907     0.18009631    -0.25906878    -0.00029691    -0.00086931     0.00054146
H        -6.50676990    -1.66446518     0.38468315     0.00010911     0.00019113     0.00021449
H        -4.23360456    -1.65942569     0.54324031    -0.00039106     0.00048596     0.00001293
C        -3.87762639     0.42058522    -0.15246156    -0.00039513     0.00036487    -0.00040991
C        -2.56311496     0.50544275     0.17032288     0.00016721    -0.00008662     0.00018708
H        -4.37259163     1.28984244    -0.62346372     0.00058931     0.00004464     0.00035501
H        -1.98646023    -0.24371195     0.67072982     0.00058526    -0.00007681    -0.00045755
C        -1.81409139     1.71222117    -0.00332809    -0.00031922     0.00003960    -0.00006075
H        -2.31135643     2.64271149    -0.32047853    -0.00042237    -0.00130060     0.00048322
N        -0.56284155     1.78710211     0.25753327     0.00045976    -0.00001876     0.00003025
H        -0.08899568     2.69707537     0.11081820     0.00019293     0.00042585     0.00002227
H        -0.01153075     0.92735562     0.35847063    -0.00028422    -0.00039409     0.00078517
    14
  Step:     5            Position(A)                                  Velocity(au)
C        -6.06291803    -0.73365864    -0.06598540    -0.00029378    -0.00025959     0.00000111
C        -4.64490813    -0.76196565     0.10030659     0.00027799     0.00010157     0.00009843
H        -6.68370305     0.16953429    -0.25333299    -0.00015854    -0.00104081     0.00050130
H        -6.50609573    -1.66103812     0.38592452     0.00000882     0.00041917     0.00001825
H        -4.23735803    -1.65420014     0.54327614    -0.00028093     0.00045123     0.00000484
C        -3.88243932     0.42444927    -0.15705608    -0.00048111     0.00033683    -0.00042685
C        -2.56075867     0.50473053     0.17245954     0.00026186    -0.00004253     0.00020236
H        -4.36599415     1.28982198    -0.61925643     0.00059576    -0.00001999     0.00039590
H        -1.98017004    -0.24581943     0.66595851     0.00056206    -0.00030922    -0.00041555
C        -1.81821282     1.71261313    -0.00412503    -0.00042395     0.00002785    -0.00008128
H        -2.31590176     2.62801540    -0.31511316    -0.00042531    -0.00134126     0.00048212
N        -0.55726744     1.78698202     0.25794247     0.00055110    -0.00000272     0.00004282
H        -0.08695822     2.70045952     0.11131966     0.00018030     0.00018541     0.00007062
H        -0.01469213     0.92376844     0.36717171    -0.00028799    -0.00026253     0.00080502
    14
  Step:     6            Position(A)                                  Velocity(au)
C        -6.06603073    -0.73662405    -0.06580055    -0.00027223    -0.00028259     0.00003252
C        -4.64207455    -0.76064271     0.10128554     0.00023858     0.00014388     0.00007866
H        -6.68474737     0.15732660    -0.24810186    -0.00004849    -0.00116442     0.00044841
H        -6.50657684    -1.65529496     0.38508251    -0.00010388     0.00060729    -0.00016239
H        -4.23975049    -1.64955426     0.54334628    -0.00014494     0.00038455     0.00001720
C        -3.88815160     0.42795394    -0.16179971    -0.00056058     0.00029804    -0.00043692
C        -2.55738617     0.50451239     0.17474987     0.00035392     0.00000358     0.00021547
H        -4.35955816     1.28940505    -0.61480271     0.00055769    -0.00002340     0.00039805
H        -1.97416417    -0.25047678     0.66163890     0.00053122    -0.00053664    -0.00037842
C        -1.82336603     1.71283054    -0.00510632    -0.00050649     0.00000693    -0.00009394
H        -2.32066081     2.61336876    -0.30993129    -0.00046472    -0.00128748     0.00044774
N        -0.55078518     1.78704265     0.25846997     0.00062420     0.00001383     0.00005174
H        -0.08505122     2.70113167     0.11236308     0.00017493    -0.00005737     0.00011957
H        -0.01783106     0.92161217     0.37608190    -0.00027693    -0.00013856     0.00082435
    14
  Step:     7            Position(A)                                  Velocity(au)
C        -6.06887366    -0.73984076    -0.06527394    -0.00024534    -0.00030527     0.00006307
C        -4.63968885    -0.75881796     0.10202732     0.00019812     0.00019334     0.00005540
H        -6.68476389     0.14406035    -0.24352323     0.00002643    -0.00122980     0.00038160
H        -6.50836829    -1.64775253     0.38237188    -0.00023235     0.00074144    -0.00031951
H        -4.24052892    -1.64578737     0.54365250     0.00001041     0.00029730     0.00004479
C        -3.89470312     0.43096946    -0.16661458    -0.00063553     0.00024667    -0.00043979
C        -2.55301595     0.50480890     0.17717329     0.00044494     0.00005134     0.00022694
H        -4.35379352     1.28930995    -0.61054827     0.00047299     0.00004003     0.00035926
H        -1.96854869    -0.25755944     0.65767987     0.00048910    -0.00074689    -0.00035266
C        -1.82929323     1.71276468    -0.00618022    -0.00056518    -0.00002421    -0.00009806
H        -2.32606839     2.59984922    -0.30531794    -0.00054453    -0.00113609     0.00037798
N        -0.54361186     1.78728456     0.25907442     0.00067673     0.00002995     0.00005693
H        -0.08313138     2.69920434     0.11393539     0.00018793    -0.00027776     0.00016558
H        -0.02075056     0.92073716     0.38520590    -0.00024559    -0.00003322     0.00084503
    14
  Step:     8            Position(A)                                  Velocity(au)
C        -6.07139808    -0.74330244    -0.06442083    -0.00021463    -0.00032709     0.00009176
C        -4.63774023    -0.75641301     0.10249757     0.00015974     0.00024898     0.00002965
H        -6.68416918     0.13042236    -0.23975371     0.00006185    -0.00122992     0.00030039
H        -6.51165983    -1.63907458     0.37809263    -0.00037940     0.00080929    -0.00044590
H        -4.23952281    -1.64305023     0.54432621     0.00017700     0.00020422     0.00008020
C        -3.90205500     0.43335041    -0.17142097    -0.00070596     0.00018280    -0.00043545
C        -2.54765236     0.50563547     0.17971472     0.00053413     0.00009941     0.00023700
H        -4.34921070     1.29028072    -0.60694328     0.00034421     0.00016791     0.00028163
H        -1.96346427    -0.26681636     0.65392386     0.00043331    -0.00092946    -0.00034327
C        -1.83573035     1.71230092    -0.00725168    -0.00060021    -0.00006469    -0.00009390
H        -2.33257349     2.58851470    -0.30166227    -0.00066244    -0.00089563     0.00027517
N        -0.53598043     1.78769778     0.25971535     0.00070818     0.00004461     0.00005864
H        -0.08093986     2.69505507     0.11598537     0.00022881    -0.00045307     0.00020516
H        -0.02320375     0.92088547     0.39456851    -0.00019068     0.00004554     0.00086859
    14
  Step:     9            Position(A)                                  Velocity(au)
C        -6.07356905    -0.74699640    -0.06326653    -0.00018054    -0.00034742     0.00011793
C        -4.63619416    -0.75337094     0.10267604     0.00012388     0.00030761     0.00000293
H        -6.68341079     0.11715360    -0.23695153     0.00005684    -0.00116261     0.00020486
H        -6.51666849    -1.63004783     0.37261703    -0.00054678     0.00080179    -0.00053632
H        -4.23665677    -1.64131975     0.54540711     0.00034602     0.00012118     0.00011464
C        -3.91014740     0.43496851    -0.17614081    -0.00076800     0.00010977    -0.00042429
C        -2.54133085     0.50698375     0.18235811     0.00061664     0.00014473     0.00024527
H        -4.34626332     1.29298324    -0.60438701     0.00017920     0.00034790     0.00017253
H        -1.95906929    -0.27789312     0.65017024     0.00036303    -0.00107607    -0.00035277
C        -1.84242398     1.71134938    -0.00823437    -0.00061286    -0.00011072    -0.00008273
H        -2.34056058     2.58025551    -0.29929801    -0.00080868    -0.00058825     0.00014719
N        -0.52811916     1.78826041     0.26035721     0.00071956     0.00005670     0.00005742
H        -0.07812570     2.68929254     0.11842376     0.00030447    -0.00056489     0.00023506
H        -0.02492211     0.92173352     0.40420788    -0.00011171     0.00009406     0.00089574
    14
  Step:    10            Position(A)                                  Velocity(au)
C        -6.07534779    -0.75090283    -0.06184094    -0.00014253    -0.00036555     0.00014135
C        -4.63503012    -0.74968346     0.10256162     0.00008861     0.00036455    -0.00002310
H        -6.68292572     0.10498814    -0.23527206     0.00001468    -0.00103206     0.00009577
H        -6.52362163    -1.62153398     0.36635958    -0.00073415     0.00071533    -0.00058874
H        -4.23195296    -1.64039922     0.54683428     0.00050887     0.00006309     0.00013941
C        -3.91885646     0.43575194    -0.18070318    -0.00081637     0.00003332    -0.00040732
C        -2.53416221     0.50880166     0.18508047     0.00068607     0.00018340     0.00025120
H        -4.34529030     1.29789162    -0.60316875    -0.00000948     0.00055812     0.00004403
H        -1.95552236    -0.29035744     0.64620636     0.00027897    -0.00118092    -0.00038125
C        -1.84913775     1.70987867    -0.00906145    -0.00060501    -0.00015649    -0.00006652
H        -2.35026484     2.57564551    -0.29844216    -0.00096639    -0.00024789     0.00000634
N        -0.52023872     1.78893824     0.26097156     0.00071275     0.00006524     0.00005392
H        -0.07427903     2.68269712     0.12112780     0.00041833    -0.00060140     0.00025287
H        -0.02564764     0.92294331     0.41416455    -0.00001106     0.00011323     0.00092633
    14
  Step:    11            Position(A)                                  Velocity(au)
C        -6.07668716    -0.75499342    -0.06017428    -0.00010044    -0.00038074     0.00016208
C        -4.63425555    -0.74539565     0.10217075     0.00005187     0.00041552    -0.00004702
H        -6.68308974     0.09457524    -0.23485638    -0.00005660    -0.00084972    -0.00002477
H        -6.53272937    -1.61439859     0.35973732    -0.00093798     0.00055412    -0.00060513
H        -4.22552425    -1.63993957     0.54845692     0.00065798     0.00004197     0.00014744
C        -3.92800708     0.43569751    -0.18505177    -0.00084814    -0.00004062    -0.00038612
C        -2.52632180     0.51099606     0.18785351     0.00073815     0.00021237     0.00025451
H        -4.34647069     1.30519311    -0.60342375    -0.00020629     0.00076995    -0.00008894
H        -1.95296620    -0.30372803     0.64182974     0.00018327    -0.00124092    -0.00042720
C        -1.85565971     1.70792589    -0.00968964    -0.00057928    -0.00019613    -0.00004739
H        -2.36170226     2.57483242    -0.29915928    -0.00111433     0.00008517    -0.00013327
N        -0.51252631     1.78968762     0.26153671     0.00069013     0.00006961     0.00004868
H        -0.06897386     2.67613574     0.12395575     0.00056946    -0.00055968     0.00025780
H        -0.02516404     0.92421073     0.42447319     0.00010630     0.00010801     0.00095956
    14
  Step:    12            Position(A)                                  Velocity(au)
C        -6.07754504    -0.75923232    -0.05829504    -0.00005542    -0.00039248     0.00018038
C        -4.63389543    -0.74059327     0.10153307     0.00001251     0.00045734    -0.00006779
H        -6.68416391     0.08639892    -0.23581390    -0.00014451    -0.00063359    -0.00015309
H        -6.54414169    -1.60941144     0.35312122    -0.00115047     0.00033173    -0.00059196
H        -4.21755836    -1.63948104     0.55005983     0.00078751     0.00006538     0.00013429
C        -3.93741105     0.43486331    -0.18915039    -0.00086312    -0.00010690    -0.00036260
C        -2.51801375     0.51344770     0.19064833     0.00077130     0.00022976     0.00025526
H        -4.34980329     1.31473568    -0.60511458    -0.00039534     0.00095288    -0.00021119
H        -1.95151297    -0.31750492     0.63686064     0.00007926    -0.00125574    -0.00048805
C        -1.86181072     1.70558797    -0.01009824    -0.00053881    -0.00022478    -0.00002727
H        -2.37464292     2.57750870    -0.30135759    -0.00123126     0.00037215    -0.00025837
N        -0.50514078     1.79046100     0.26203643     0.00065453     0.00006977     0.00004214
H        -0.06182106     2.67045307     0.12676765     0.00075175    -0.00044741     0.00025097
H        -0.02332223     0.92530615     0.43515666     0.00023339     0.00008662     0.00099403
    14
  Step:    13            Position(A)                                  Velocity(au)
C        -6.07789967    -0.76357973    -0.05622814    -0.00000983    -0.00040062     0.00019663
C        -4.63398181    -0.73539044     0.10068779    -0.00002986     0.00048783    -0.00008466
H        -6.68625126     0.08071427    -0.23820560    -0.00023364    -0.00040606    -0.00028426
H        -6.55789814    -1.60714130     0.34678706    -0.00135940     0.00007042    -0.00055963
H        -4.20829603    -1.63850917     0.55139482     0.00089364     0.00013576     0.00009830
C        -3.94688942     0.43335892    -0.19298432    -0.00086247    -0.00016127    -0.00033861
C        -2.50944804     0.51602260     0.19343791     0.00078548     0.00023458     0.00025367
H        -4.35511942     1.32603924    -0.60804398    -0.00056317     0.00108024    -0.00030993
H        -1.95123213    -0.33119980     0.63115274    -0.00002880    -0.00122768    -0.00056036
C        -1.86744721     1.70300833    -0.01028616    -0.00048664    -0.00023892    -0.00000773
H        -2.38863843     2.58297384    -0.30481154    -0.00130041     0.00058314    -0.00035868
N        -0.49820731     1.79121403     0.26245867     0.00060916     0.00006638     0.00003465
H        -0.05252784     2.66634772     0.12944619     0.00095377    -0.00028334     0.00023527
H        -0.02005819     0.92610570     0.44621957     0.00036208     0.00005947     0.00102783
    14
  Step:    14            Position(A)                                  Velocity(au)
C        -6.07776006    -0.76799675    -0.05399334     0.00003334    -0.00040547     0.00021135
C        -4.63454866    -0.72992094     0.09968095    -0.00007529     0.00050556    -0.00009714
H        -6.68927513     0.07751552    -0.24203252    -0.00030791    -0.00019058    -0.00041261
H        -6.57388124    -1.60787078     0.34087816    -0.00154910    -0.00020178    -0.00052091
H        -4.19800838    -1.63651110     0.55221030     0.00097454     0.00025066     0.00004033
C        -3.95627918     0.43133520    -0.19655806    -0.00084770    -0.00020056    -0.00031570
C        -2.50082988     0.51857952     0.19619781     0.00078139     0.00022644     0.00024995
H        -4.36212369     1.33836792    -0.61189485    -0.00070061     0.00113360    -0.00037667
H        -1.95214297    -0.34436288     0.62460176    -0.00013619    -0.00116130    -0.00064002
C        -1.87245688     1.70036105    -0.01026740    -0.00042532    -0.00023653     0.00001008
H        -2.40309182     2.59026593    -0.30920434    -0.00131204     0.00070121    -0.00042807
N        -0.49181432     1.79191312     0.26279440     0.00055742     0.00006067     0.00002641
H        -0.04095562     2.66425435     0.13191453     0.00115955    -0.00009520     0.00021486
H        -0.01540104     0.92660727     0.45764244     0.00048394     0.00003764     0.00105857
    14
  Step:    15            Position(A)                                  Velocity(au)
C        -6.07717034    -0.77245009    -0.05160436     0.00007094    -0.00040765     0.00022506
C        -4.63562901    -0.72433032     0.09856264    -0.00012360     0.00050978    -0.00010497
H        -6.69298748     0.07654493    -0.24723223    -0.00035330    -0.00000807    -0.00053258
H        -6.59178774    -1.61155556     0.33539105    -0.00170267    -0.00045585    -0.00048851
H        -4.18697615    -1.63302552     0.55227718     0.00103013     0.00040362    -0.00003665
C        -3.96543437     0.42897133    -0.19989097    -0.00082031    -0.00022282    -0.00029502
C        -2.49235373     0.52097649     0.19890603     0.00076020     0.00020563     0.00024430
H        -4.37044664     1.35083890    -0.61628434    -0.00080328     0.00110493    -0.00040792
H        -1.95421152    -0.35660553     0.61715097    -0.00023808    -0.00106303    -0.00072262
C        -1.87675193     1.69783375    -0.01006571    -0.00035679    -0.00021713     0.00002551
H        -2.41734187     2.59831414    -0.31417630    -0.00126387     0.00072278    -0.00046463
N        -0.48601275     1.79254134     0.26303646     0.00050261     0.00005430     0.00001758
H        -0.02716054     2.66426503     0.13414667     0.00135075     0.00008501     0.00019441
H        -0.00947118     0.92692913     0.46937781     0.00059113     0.00003123     0.00108368
    14
  Step:    16            Position(A)                                  Velocity(au)
C        -6.07620802    -0.77691481    -0.04906973     0.00010026    -0.00040795     0.00023812
C        -4.63725275    -0.71876848     0.09738445    -0.00017444     0.00050040    -0.00010812
H        -6.69700430     0.07733908    -0.25368366    -0.00035982     0.00012592    -0.00063932
H        -6.61113037    -1.61784326     0.33019101    -0.00180484    -0.00066686    -0.00047260
H        -4.17547242    -1.62768107     0.55140851     0.00106166     0.00058528    -0.00012825
C        -3.97422498     0.42646065    -0.20301210    -0.00078174    -0.00022733    -0.00027723
C        -2.48419896     0.52307800     0.20154229     0.00072348     0.00017304     0.00023683
H        -4.37969691     1.36254042    -0.62081884    -0.00087091     0.00099593    -0.00040458
H        -1.95735134    -0.36761865     0.60879313    -0.00032978    -0.00094078    -0.00080360
C        -1.88026233     1.69561086    -0.00970938    -0.00028246    -0.00018164     0.00003834
H        -2.43074135     2.60607820    -0.31936912    -0.00115958     0.00065499    -0.00046992
N        -0.48081885     1.79310098     0.26317897     0.00044764     0.00004894     0.00000826
H        -0.01140541     2.66611419     0.13616759     0.00150948     0.00022705     0.00017809
H        -0.00246897     0.92729054     0.48135002     0.00067719     0.00004804     0.00110075
    14
  Step:    17            Position(A)                                  Velocity(au)
C        -6.07497688    -0.78137479    -0.04639501     0.00011934    -0.00040712     0.00025069
C        -4.63944520    -0.71338314     0.09619740    -0.00022727     0.00047792    -0.00010672
H        -6.70085918     0.07929976    -0.26121865    -0.00032264     0.00020267    -0.00072927
H        -6.63127200    -1.62614437     0.32505200    -0.00184454    -0.00081768    -0.00047922
H        -4.16375028    -1.62022131     0.54947141     0.00107138     0.00078450    -0.00022922
C        -3.98253642     0.42399805    -0.20595587    -0.00073338    -0.00021448    -0.00026264
C        -2.47652631     0.52476208     0.20408720     0.00067301     0.00013027     0.00022757
H        -4.38949937     1.37262676    -0.62513538    -0.00090614     0.00081579    -0.00037078
H        -1.96142607    -0.37718690     0.59957070    -0.00040695    -0.00080363    -0.00087856
C        -1.88293138     1.69386012    -0.00922694    -0.00020347    -0.00013206     0.00004870
H        -2.44270997     2.61264340    -0.32445665    -0.00100675     0.00051192    -0.00044771
N        -0.47621973     1.79361207     0.26321716     0.00039485     0.00004601    -0.00000143
H         0.00586225     2.66923208     0.13804283     0.00162114     0.00030790     0.00016884
H         0.00534367     0.92798015     0.49345875     0.00073751     0.00009264     0.00110784
    14
  Step:    18            Position(A)                                  Velocity(au)
C        -6.07359718    -0.78582133    -0.04358544     0.00012716    -0.00040571     0.00026268
C        -4.64222476    -0.70831310     0.09504971    -0.00028140     0.00044344    -0.00010113
H        -6.70406271     0.08177283    -0.26963789    -0.00024201     0.00022016    -0.00080032
H        -6.65148328    -1.63573168     0.31970719    -0.00181644    -0.00090048    -0.00050988
H        -4.15203403    -1.61051859     0.54639392     0.00106223     0.00098917    -0.00033383
C        -3.99026897     0.42176856    -0.20875792    -0.00067658    -0.00018556    -0.00025123
C        -2.46947568     0.52592785     0.20652089     0.00061076     0.00007953     0.00021642
H        -4.39952036     1.38038731    -0.62893030    -0.00091330     0.00057853    -0.00031255
H        -1.96625411    -0.38519954     0.58957304    -0.00046570    -0.00066143    -0.00094339
C        -1.88471356     1.69272177    -0.00864393    -0.00012077    -0.00007124     0.00005698
H        -2.45276600     2.61727734    -0.32916360    -0.00081491     0.00031120    -0.00040301
N        -0.47218076     1.79410756     0.26314767     0.00034582     0.00004639    -0.00001136
H         0.02406010     2.67285004     0.13986120     0.00167631     0.00031511     0.00016788
H         0.01366556     0.92931713     0.50558613     0.00076959     0.00016595     0.00110379
    14
  Step:    19            Position(A)                                  Velocity(au)
C        -6.07219508    -0.79025045    -0.04064841     0.00012359    -0.00040405     0.00027383
C        -4.64560132    -0.70368204     0.09398496    -0.00033596     0.00039861    -0.00009185
H        -6.70615354     0.08411612    -0.27872719    -0.00012226     0.00018187    -0.00085178
H        -6.67101002    -1.64584407     0.31389738    -0.00172095    -0.00091584    -0.00056232
H        -4.14051187    -1.59858135     0.54216830     0.00103780     0.00118679    -0.00043619
C        -3.99733794     0.41993854    -0.21145206    -0.00061276    -0.00014262    -0.00024271
C        -2.46316487     0.52650185     0.20882181     0.00053878     0.00002355     0.00020317
H        -4.40947953     1.38528319    -0.63197298    -0.00089750     0.00030071    -0.00023685
H        -1.97161421    -0.39165695     0.57893232    -0.00050272    -0.00052443    -0.00099444
C        -1.88557354     1.69230150    -0.00798049    -0.00003530    -0.00000258     0.00006373
H        -2.46053777     2.61945142    -0.33327328    -0.00059429     0.00007178    -0.00034134
N        -0.46865418     1.79462705     0.26296871     0.00030139     0.00005043    -0.00002137
H         0.04253484     2.67612576     0.14171546     0.00167153     0.00024736     0.00017480
H         0.02217995     0.93161052     0.51760629     0.00077302     0.00026539     0.00108836
    14
  Step:    20            Position(A)                                  Velocity(au)
C        -6.07089348    -0.79466067    -0.03759489     0.00010926    -0.00040228     0.00028379
C        -4.64957461    -0.69959279     0.09304031    -0.00038998     0.00034555    -0.00007954
H        -6.70673731     0.08575169    -0.28827219     0.00002928     0.00009532    -0.00088420
H        -6.68913238    -1.65576738     0.30740527    -0.00156340    -0.00087069    -0.00063176
H        -4.12933018    -1.58455538     0.53685143     0.00100210     0.00136496    -0.00053049
C        -4.00367437     0.41864844    -0.21406777    -0.00054339    -0.00008830    -0.00023659
C        -2.45768879     0.52644308     0.21096570     0.00045916    -0.00003455     0.00018755
H        -4.41915496     1.38696582    -0.63411185    -0.00086417     0.00000005    -0.00015098
H        -1.97725205    -0.39667256     0.56781778    -0.00051536    -0.00040276    -0.00102869
C        -1.88548583     1.69266543    -0.00724970     0.00005207     0.00007021     0.00006966
H        -2.46576727     2.61884756    -0.33663111    -0.00035522    -0.00018727    -0.00026841
N        -0.46558719     1.79521079     0.26268018     0.00026171     0.00005795    -0.00003132