     6
  Step:   300            Position(A)                                  Velocity(au)
C        -0.02500065    -0.00230686     0.02449834    -0.00000696     0.00006525    -0.00015058
N        -0.02842599    -0.04800426     1.29224834     0.00002975     0.00005350     0.00017101
H         0.02587661    -0.85053054    -0.64766720    -0.00146280    -0.00009288     0.00003861
H        -0.35235616     0.76326204     1.84366552    -0.00177573    -0.00082112    -0.00007936
H        -0.19657790    -0.87962280     1.86751070     0.00131171    -0.00031731     0.00010906
H         0.00304652     0.99171142    -0.42093371     0.00159644    -0.00028967    -0.00065043
