|===============================================================================
|
|  DFTB+ release 20.1
|
|  Copyright (C) 2006 - 2020  DFTB+ developers group
|
|===============================================================================
|
|  When publishing results obtained with DFTB+, please cite the following
|  reference:
|
|  * DFTB+, a software package for efficient approximate density functional
|    theory based atomistic simulations, J. Chem. Phys. 152, 124101 (2020).
|    [doi: 10.1063/1.5143190]
|
|  You should also cite additional publications crediting the parametrization
|  data you use. Please consult the documentation of the SK-files for the
|  references.
|
|===============================================================================

Reading input file 'dftb_in.hsd'
Parser version: 8

--------------------------------------------------------------------------------
Reading SK-files:
Done.


Processed input in HSD format written to 'dftb_pin.hsd'

Starting initialization...
--------------------------------------------------------------------------------
OpenMP threads:              1
Chosen random seed:          451683610
Mode:                        Static calculation
Self consistent charges:     Yes
SCC-tolerance:                 0.100000E-05
Max. scc iterations:                   1000
Shell resolved Hubbard:      No
Spin polarisation:           No
Nr. of up electrons:             6.000000
Nr. of down electrons:           6.000000
Periodic boundaries:         No
Electronic solver:           Relatively robust
Maximal SCC-cycles:                    1000
Initial charges:             Set automatically (system chrg:   0.100E+01)
Included shells:             C:  s, p
                             N:  s, p
                             H:  s
Spin coupling constants:     C   1(s)-1(s):  -0.455900E-01
                             C   1(s)-2(p):  -0.293000E-01
                             C   2(p)-1(s):  -0.293000E-01
                             C   2(p)-2(p):  -0.275500E-01
                             N   1(s)-1(s):  -0.468700E-01
                             N   1(s)-2(p):  -0.317000E-01
                             N   2(p)-1(s):  -0.317000E-01
                             N   2(p)-2(p):  -0.307200E-01
                             H   1(s)-1(s):  -0.792500E-01
Range separated hybrid:      Yes
  Screening parameter omega:   0.300000E+00
  Range separated algorithm:   MatrixBased
Extra options:
                             Mulliken analysis
                             Force calculation
Force type                   original
                             Eigenvector printing


REKS Calcuation:             Yes
SSR(2,2) Calcuation:         Yes
Energy Functional:           (PPS+OSS)/2
Number of Core Orbitals:                  5
Number of Active Orbitals:                2
Number of Basis:                         12
Number of States:                         2
State-Averaging Weight:          0.500000
                                 0.500000
State of Interest:                        1
Initial Guess:               Diagonalize H0 matrix
Newton-Raphson for FON opt:  Yes
NR max. Iterations:                      50
Level Shifting:              Yes
Shift Value:                     0.300000
W Scale Factor:              C  =    3.200000
                             N  =    3.200000
                             H  =    3.200000
Transition Dipole:           No
Gradient of Microstate:      No
CP-REKS Solver:              Preconditioned Conjugate-Gradient
CG max. Iterations:                     100
CG Tolerance:                  0.100000E-07
Memory for A and Hxc:        Direct Updating Without Saving
Non-Adiabatic Coupling:      Yes

--------------------------------------------------------------------------------

***  Geometry step: 0

  iSCC       reks energy        Diff energy         x_a       SCC error   
    1       -6.1545538192       0.0000000000     0.893140    1.10291551
    2       -6.1601887810      -0.0056349618     0.894870    0.03706860
    3       -6.1617182608      -0.0015294798     0.906421    0.01871246
    4       -6.1624044866      -0.0006862257     0.927274    0.01411358
    5       -6.1632108660      -0.0008063795     0.963249    0.02098983
    6       -6.1650569335      -0.0018460675     0.996993    0.02060722
    7       -6.1670590766      -0.0020021431     0.999868    0.01156548
    8       -6.1679010270      -0.0008419504     0.999980    0.00818809
    9       -6.1682613836      -0.0003603566     0.999993    0.00623129
   10       -6.1684275442      -0.0001661606     0.999996    0.00455543
   11       -6.1685089859      -0.0000814417     0.999998    0.00327379
   12       -6.1685509897      -0.0000420038     0.999998    0.00234158
   13       -6.1685735703      -0.0000225806     0.999998    0.00167717
   14       -6.1685861215      -0.0000125512     0.999999    0.00126935
   15       -6.1685932898      -0.0000071683     0.999999    0.00095915
   16       -6.1685974776      -0.0000041878     0.999999    0.00079871
   17       -6.1685999728      -0.0000024952     0.999999    0.00066515
   18       -6.1686014865      -0.0000015137     0.999999    0.00055438
   19       -6.1686024207      -0.0000009342     0.999999    0.00046275
   20       -6.1686030071      -0.0000005864     0.999999    0.00038706
   21       -6.1686033816      -0.0000003745     0.999999    0.00032453
   22       -6.1686036250      -0.0000002434     0.999999    0.00027283
   23       -6.1686037859      -0.0000001609     0.999999    0.00023001
   24       -6.1686038941      -0.0000001082     0.999999    0.00019447
   25       -6.1686039681      -0.0000000740     0.999999    0.00016489
   26       -6.1686040194      -0.0000000514     0.999999    0.00014019
   27       -6.1686040556      -0.0000000362     0.999999    0.00011951
   28       -6.1686040814      -0.0000000258     0.999999    0.00010213
   29       -6.1686041000      -0.0000000186     0.999999    0.00008749
   30       -6.1686041135      -0.0000000135     0.999999    0.00007511
   31       -6.1686041235      -0.0000000099     0.999999    0.00006461
   32       -6.1686041308      -0.0000000073     0.999999    0.00005568
   33       -6.1686041362      -0.0000000055     0.999999    0.00004806
   34       -6.1686041403      -0.0000000041     0.999999    0.00004154
   35       -6.1686041434      -0.0000000030     0.999999    0.00003596
   36       -6.1686041457      -0.0000000023     0.999999    0.00003117
   37       -6.1686041474      -0.0000000017     0.999999    0.00002704
   38       -6.1686041487      -0.0000000013     0.999999    0.00002348
   39       -6.1686041497      -0.0000000010     0.999999    0.00002040
   40       -6.1686041504      -0.0000000007     0.999999    0.00001775
   41       -6.1686041510      -0.0000000006     0.999999    0.00001544
   42       -6.1686041514      -0.0000000004     0.999999    0.00001345
   43       -6.1686041517      -0.0000000003     0.999999    0.00001171
   44       -6.1686041520      -0.0000000002     0.999999    0.00001021
   45       -6.1686041522      -0.0000000002     0.999999    0.00000890
   46       -6.1686041523      -0.0000000001     0.999999    0.00000776
   47       -6.1686041524      -0.0000000001     0.999999    0.00000677
   48       -6.1686041525      -0.0000000001     0.999999    0.00000591
   49       -6.1686041526      -0.0000000001     0.999999    0.00000516
   50       -6.1686041526      -0.0000000000     0.999999    0.00000450
   51       -6.1686041526      -0.0000000000     0.999999    0.00000393
   52       -6.1686041527      -0.0000000000     0.999999    0.00000343
   53       -6.1686041527      -0.0000000000     0.999999    0.00000300
   54       -6.1686041527      -0.0000000000     0.999999    0.00000262
   55       -6.1686041527      -0.0000000000     0.999999    0.00000229
   56       -6.1686041527      -0.0000000000     0.999999    0.00000200
   57       -6.1686041527      -0.0000000000     0.999999    0.00000174
   58       -6.1686041527      -0.0000000000     0.999999    0.00000152
   59       -6.1686041527      -0.0000000000     0.999999    0.00000133
   60       -6.1686041527      -0.0000000000     0.999999    0.00000116
   61       -6.1686041528      -0.0000000000     0.999999    0.00000102
   62       -6.1686041528      -0.0000000000     0.999999    0.00000089
  
--------------------------------------------------
 Final SA-REKS(2,2) energy:      -6.16860415
  
 State     Energy      FON(1)    FON(2)   Spin
  PPS   -6.17725679   1.999998  0.000002  0.00
  OSS   -6.15995152   1.000000  1.000000  0.00
 Trip   -6.18860273   1.000000  1.000000  1.00
--------------------------------------------------

 Lagrangian Wab:   0.00294557  0.00294572

--------------------------------------------------
 SSR: 2SI-2SA-REKS(2,2) Hamiltonian matrix
               PPS           OSS
   PPS    -6.17725679    0.00416146
   OSS     0.00416146   -6.15995152
--------------------------------------------------

----------------------------------------------------------------
 SSR: 2SI-2SA-REKS(2,2) states
                    E_n       C_{PPS}    C_{OSS}
 SSR state  1   -6.17820550  -0.974985   0.222272
 SSR state  2   -6.15900281  -0.222272  -0.974985
----------------------------------------------------------------

 unrelaxed SSR FONs for S0:  1.950593  0.049407

Total Energy:                       -6.1782054964 H         -168.1175 eV
Extrapolated to 0:                  -6.1782054964 H         -168.1175 eV

----------------------------------------------------------------------------------
 Solving CP-REKS equation for  1 state vector...
----------------------------------------------------------------------------------
  CG solver: Constructing Y initial guess
  CG solver: Iteration    1    eps =    0.000180583880
  CG solver: Iteration    2    eps =    0.000013754336
  CG solver: Iteration    3    eps =    0.000006127336
  CG solver: Iteration    4    eps =    0.000001027644
  CG solver: Iteration    5    eps =    0.000000113052
  CG solver: Iteration    6    eps =    0.000000020850
  CG solver: Iteration    7    eps =    0.000000000755
  Convergence reached in CG solver after    7 iterations
  CG solver: Calculating converged R, Z, Q2 matrix
----------------------------------------------------------------------------------

----------------------------------------------------------------------------------
 Solving CP-REKS equation for SI between  1 and  2 state vectors...
----------------------------------------------------------------------------------
  CG solver: Constructing Y initial guess
  CG solver: Iteration    1    eps =    0.000833736754
  CG solver: Iteration    2    eps =    0.000425690268
  CG solver: Iteration    3    eps =    0.000058762064
  CG solver: Iteration    4    eps =    0.000008787066
  CG solver: Iteration    5    eps =    0.000000453404
  CG solver: Iteration    6    eps =    0.000000016811
  CG solver: Iteration    7    eps =    0.000000000379
  Convergence reached in CG solver after    7 iterations
  CG solver: Calculating converged R, Z, Q2 matrix
----------------------------------------------------------------------------------

--------------------------------------------------
 Gradient Information
--------------------------------------------------
           1 st state (SSR)
     0.10355153    -0.04031407    -0.02727555
    -0.03382580     0.04932458     0.14784339
     0.01028999     0.04015606    -0.02723579
    -0.03975676    -0.00161673    -0.00580366
     0.00655276    -0.01255135    -0.06565596
    -0.04681172    -0.03499848    -0.02187244

           2 st state (SSR)
     0.02246209    -0.05086724    -0.00901450
    -0.01642020     0.06332633     0.11626736
     0.01568975     0.04551151    -0.02207788
    -0.00593820     0.00466741     0.00159921
    -0.00618280    -0.02582514    -0.06111028
    -0.00961065    -0.03681286    -0.02566390
--------------------------------------------------
 Coupling Information
--------------------------------------------------
 between  1 and  2 states
--------------------------------------------------
 g vector - difference gradient
     0.04812376     0.00011926    -0.01025914
    -0.00725521    -0.00235086     0.01400070
    -0.00898591     0.00057425    -0.00177223
    -0.01904720     0.00030414    -0.00414453
     0.00365426     0.00101911    -0.00039149
    -0.01648969     0.00033410     0.00256669

 h vector - derivative coupling
     0.00651539    -0.01192620    -0.00026511
     0.00499390     0.01126449    -0.00731552
    -0.01245462     0.00737207     0.00226530
    -0.00059034     0.00788178    -0.00007748
    -0.00709373    -0.01319374     0.00442990
     0.00862939    -0.00139841     0.00096291

 G vector - GDV
     0.04054472     0.00527658    -0.00913053
    -0.00870280    -0.00700087     0.01578801
    -0.00269988    -0.00267772    -0.00257895
    -0.01690928    -0.00314207    -0.00370143
     0.00636778     0.00663690    -0.00227284
    -0.01860053     0.00090719     0.00189573

 H vector - DCV - non-adiabatic coupling
     1.39197241    -0.55700961    -0.24400101
     0.07060822     0.47558578    -0.02731016
    -0.78732146     0.35893595     0.06631064
    -0.45761990     0.37676010    -0.09718242
    -0.25043098    -0.59618533     0.19906043
     0.03279171    -0.05808690     0.10312252
--------------------------------------------------


--------------------------------------------------------------------------------
DFTB+ running times                          cpu [s]             wall clock [s]
--------------------------------------------------------------------------------
Global initialisation                  +     0.00  (  2.0%)      0.01  ( 20.4%)
SCC                                    +     0.03  ( 71.1%)      0.03  ( 55.6%)
Post-SCC processing                    +     0.01  ( 25.7%)      0.01  ( 22.2%)
  Force calculation                          0.01  ( 25.3%)      0.01  ( 18.5%)
--------------------------------------------------------------------------------
Missing                                +     0.00  (  1.2%)      0.00  (  1.9%)
Total                                  =     0.04  (100.0%)      0.05  (100.0%)
--------------------------------------------------------------------------------
