|===============================================================================
|
|  DFTB+ release 20.1
|
|  Copyright (C) 2006 - 2020  DFTB+ developers group
|
|===============================================================================
|
|  When publishing results obtained with DFTB+, please cite the following
|  reference:
|
|  * DFTB+, a software package for efficient approximate density functional
|    theory based atomistic simulations, J. Chem. Phys. 152, 124101 (2020).
|    [doi: 10.1063/1.5143190]
|
|  You should also cite additional publications crediting the parametrization
|  data you use. Please consult the documentation of the SK-files for the
|  references.
|
|===============================================================================

Reading input file 'dftb_in.hsd'
Parser version: 8

--------------------------------------------------------------------------------
Reading SK-files:
Done.


Processed input in HSD format written to 'dftb_pin.hsd'

Starting initialization...
--------------------------------------------------------------------------------
OpenMP threads:              1
Chosen random seed:          451503596
Mode:                        Static calculation
Self consistent charges:     Yes
SCC-tolerance:                 0.100000E-05
Max. scc iterations:                   1000
Shell resolved Hubbard:      No
Spin polarisation:           No
Nr. of up electrons:             6.000000
Nr. of down electrons:           6.000000
Periodic boundaries:         No
Electronic solver:           Relatively robust
Maximal SCC-cycles:                    1000
Initial charges:             Set automatically (system chrg:   0.100E+01)
Included shells:             C:  s, p
                             N:  s, p
                             H:  s
Spin coupling constants:     C   1(s)-1(s):  -0.455900E-01
                             C   1(s)-2(p):  -0.293000E-01
                             C   2(p)-1(s):  -0.293000E-01
                             C   2(p)-2(p):  -0.275500E-01
                             N   1(s)-1(s):  -0.468700E-01
                             N   1(s)-2(p):  -0.317000E-01
                             N   2(p)-1(s):  -0.317000E-01
                             N   2(p)-2(p):  -0.307200E-01
                             H   1(s)-1(s):  -0.792500E-01
Range separated hybrid:      Yes
  Screening parameter omega:   0.300000E+00
  Range separated algorithm:   MatrixBased
Extra options:
                             Mulliken analysis
                             Force calculation
Force type                   original
                             Eigenvector printing


REKS Calcuation:             Yes
SSR(2,2) Calcuation:         Yes
Energy Functional:           (PPS+OSS)/2
Number of Core Orbitals:                  5
Number of Active Orbitals:                2
Number of Basis:                         12
Number of States:                         2
State-Averaging Weight:          0.500000
                                 0.500000
State of Interest:                        1
Initial Guess:               Diagonalize H0 matrix
Newton-Raphson for FON opt:  Yes
NR max. Iterations:                      50
Level Shifting:              Yes
Shift Value:                     0.300000
W Scale Factor:              C  =    3.200000
                             N  =    3.200000
                             H  =    3.200000
Transition Dipole:           No
Gradient of Microstate:      No
CP-REKS Solver:              Preconditioned Conjugate-Gradient
CG max. Iterations:                     100
CG Tolerance:                  0.100000E-07
Memory for A and Hxc:        Direct Updating Without Saving
Non-Adiabatic Coupling:      Yes

--------------------------------------------------------------------------------

***  Geometry step: 0

  iSCC       reks energy        Diff energy         x_a       SCC error   
    1       -6.1076179282       0.0000000000     0.991411    1.04911228
    2       -6.1167006789      -0.0090827507     0.993651    0.05708015
    3       -6.1181307075      -0.0014300286     0.995143    0.01414084
    4       -6.1186436432      -0.0005129357     0.995990    0.00879900
    5       -6.1188811377      -0.0002374944     0.996530    0.00616915
    6       -6.1190105990      -0.0001294613     0.996904    0.00446519
    7       -6.1190900023      -0.0000794033     0.997179    0.00330021
    8       -6.1191426368      -0.0000526345     0.997389    0.00248342
    9       -6.1191792447      -0.0000366079     0.997555    0.00190706
   10       -6.1192054566      -0.0000262118     0.997688    0.00163364
   11       -6.1192245575      -0.0000191010     0.997797    0.00140371
   12       -6.1192386275      -0.0000140700     0.997886    0.00120884
   13       -6.1192490614      -0.0000104339     0.997960    0.00104272
   14       -6.1192568318      -0.0000077703     0.998023    0.00090050
   15       -6.1192626341      -0.0000058023     0.998075    0.00077834
   16       -6.1192669743      -0.0000043402     0.998119    0.00067315
   17       -6.1192702243      -0.0000032500     0.998156    0.00058240
   18       -6.1192726596      -0.0000024353     0.998188    0.00050402
   19       -6.1192744851      -0.0000018255     0.998214    0.00043626
   20       -6.1192758538      -0.0000013687     0.998237    0.00037763
   21       -6.1192768800      -0.0000010262     0.998257    0.00032690
   22       -6.1192776495      -0.0000007695     0.998274    0.00028298
   23       -6.1192782265      -0.0000005769     0.998288    0.00024495
   24       -6.1192786590      -0.0000004325     0.998300    0.00021203
   25       -6.1192789832      -0.0000003242     0.998311    0.00018352
   26       -6.1192792263      -0.0000002430     0.998320    0.00015884
   27       -6.1192794084      -0.0000001821     0.998328    0.00013748
   28       -6.1192795449      -0.0000001365     0.998335    0.00011898
   29       -6.1192796472      -0.0000001023     0.998340    0.00010296
   30       -6.1192797238      -0.0000000766     0.998345    0.00008910
   31       -6.1192797812      -0.0000000574     0.998350    0.00007711
   32       -6.1192798242      -0.0000000430     0.998353    0.00006672
   33       -6.1192798564      -0.0000000322     0.998357    0.00005773
   34       -6.1192798805      -0.0000000241     0.998359    0.00004996
   35       -6.1192798986      -0.0000000181     0.998362    0.00004323
   36       -6.1192799121      -0.0000000135     0.998364    0.00003740
   37       -6.1192799223      -0.0000000101     0.998366    0.00003236
   38       -6.1192799298      -0.0000000076     0.998367    0.00002800
   39       -6.1192799355      -0.0000000057     0.998368    0.00002423
   40       -6.1192799398      -0.0000000043     0.998370    0.00002096
   41       -6.1192799430      -0.0000000032     0.998371    0.00001814
   42       -6.1192799454      -0.0000000024     0.998371    0.00001569
   43       -6.1192799471      -0.0000000018     0.998372    0.00001358
   44       -6.1192799485      -0.0000000013     0.998373    0.00001175
   45       -6.1192799495      -0.0000000010     0.998373    0.00001016
   46       -6.1192799502      -0.0000000007     0.998374    0.00000879
   47       -6.1192799508      -0.0000000006     0.998374    0.00000761
   48       -6.1192799512      -0.0000000004     0.998375    0.00000658
   49       -6.1192799515      -0.0000000003     0.998375    0.00000570
   50       -6.1192799518      -0.0000000002     0.998375    0.00000493
   51       -6.1192799519      -0.0000000002     0.998375    0.00000426
   52       -6.1192799521      -0.0000000001     0.998376    0.00000369
   53       -6.1192799522      -0.0000000001     0.998376    0.00000319
   54       -6.1192799522      -0.0000000001     0.998376    0.00000276
   55       -6.1192799523      -0.0000000001     0.998376    0.00000239
   56       -6.1192799523      -0.0000000000     0.998376    0.00000207
   57       -6.1192799524      -0.0000000000     0.998376    0.00000179
   58       -6.1192799524      -0.0000000000     0.998376    0.00000155
   59       -6.1192799524      -0.0000000000     0.998376    0.00000134
   60       -6.1192799524      -0.0000000000     0.998376    0.00000116
   61       -6.1192799524      -0.0000000000     0.998377    0.00000100
   62       -6.1192799524      -0.0000000000     0.998377    0.00000087
  
--------------------------------------------------
 Final SA-REKS(2,2) energy:      -6.11927995
  
 State     Energy      FON(1)    FON(2)   Spin
  PPS   -6.20153743   1.996753  0.003247  0.00
  OSS   -6.03702248   1.000000  1.000000  0.00
 Trip   -6.12327784   1.000000  1.000000  1.00
--------------------------------------------------

 Lagrangian Wab:   0.00307876  0.00307887

--------------------------------------------------
 SSR: 2SI-2SA-REKS(2,2) Hamiltonian matrix
               PPS           OSS
   PPS    -6.20153743    0.00417506
   OSS     0.00417506   -6.03702248
--------------------------------------------------

----------------------------------------------------------------
 SSR: 2SI-2SA-REKS(2,2) states
                    E_n       C_{PPS}    C_{OSS}
 SSR state  1   -6.20164331  -0.999679   0.025354
 SSR state  2   -6.03691659  -0.025354  -0.999679
----------------------------------------------------------------

 unrelaxed SSR FONs for S0:  1.996112  0.003888

Total Energy:                       -6.2016433137 H         -168.7553 eV
Extrapolated to 0:                  -6.2016433137 H         -168.7553 eV

----------------------------------------------------------------------------------
 Solving CP-REKS equation for  1 state vector...
----------------------------------------------------------------------------------
  CG solver: Constructing Y initial guess
  CG solver: Iteration    1    eps =    0.000714189226
  CG solver: Iteration    2    eps =    0.000122366440
  CG solver: Iteration    3    eps =    0.000007124499
  CG solver: Iteration    4    eps =    0.000000775267
  CG solver: Iteration    5    eps =    0.000000291679
  CG solver: Iteration    6    eps =    0.000000015007
  CG solver: Iteration    7    eps =    0.000000002322
  Convergence reached in CG solver after    7 iterations
  CG solver: Calculating converged R, Z, Q2 matrix
----------------------------------------------------------------------------------

----------------------------------------------------------------------------------
 Solving CP-REKS equation for SI between  1 and  2 state vectors...
----------------------------------------------------------------------------------
  CG solver: Constructing Y initial guess
  CG solver: Iteration    1    eps =    0.003225492517
  CG solver: Iteration    2    eps =    0.001663623695
  CG solver: Iteration    3    eps =    0.000160373011
  CG solver: Iteration    4    eps =    0.000024219264
  CG solver: Iteration    5    eps =    0.000003791180
  CG solver: Iteration    6    eps =    0.000000600766
  CG solver: Iteration    7    eps =    0.000000030698
  CG solver: Iteration    8    eps =    0.000000012283
  CG solver: Iteration    9    eps =    0.000000000469
  Convergence reached in CG solver after    9 iterations
  CG solver: Calculating converged R, Z, Q2 matrix
----------------------------------------------------------------------------------

--------------------------------------------------
 Gradient Information
--------------------------------------------------
           1 st state (SSR)
     0.00143867     0.00982752    -0.00179682
     0.08808126    -0.00609775     0.14375307
    -0.02819321     0.00035681    -0.04756922
    -0.01371972     0.04162072     0.00919543
    -0.02417814    -0.03825366    -0.05123871
    -0.02342887    -0.00745364    -0.05234375

           2 st state (SSR)
    -0.01667578    -0.03185076     0.09152216
     0.09225769     0.03464375     0.10513908
    -0.01999312    -0.00495167    -0.04001473
    -0.03878306     0.03767810    -0.05835719
    -0.00178017    -0.03538655    -0.05146337
    -0.01502555    -0.00013288    -0.04682595
--------------------------------------------------
 Coupling Information
--------------------------------------------------
 between  1 and  2 states
--------------------------------------------------
 g vector - difference gradient
     0.00901973     0.02104275    -0.04770104
    -0.00192850    -0.01997228     0.01935063
    -0.00379257     0.00294410    -0.00364097
     0.01244762     0.00204638     0.03434446
    -0.01148058    -0.00213692     0.00030338
    -0.00426571    -0.00392404    -0.00265647

 h vector - derivative coupling
    -0.00096840     0.00348308    -0.01933738
     0.00319971     0.00836750     0.00036995
     0.00616187     0.00564366     0.00278077
    -0.00197380     0.00142903     0.01033725
    -0.00526400    -0.01382142     0.00376136
    -0.00115539    -0.00510185     0.00208805

 G vector - GDV
     0.00905723     0.02083914    -0.04665949
    -0.00208821    -0.02037075     0.01930700
    -0.00410004     0.00265424    -0.00377724
     0.01253167     0.00197131     0.03377631
    -0.01119899    -0.00143355     0.00011233
    -0.00420166    -0.00366038    -0.00275890

 H vector - DCV - non-adiabatic coupling
    -0.00309564     0.02759285    -0.13191858
     0.01880592     0.04458494     0.00819766
     0.03619143     0.03512266     0.01573897
    -0.00813638     0.00929372     0.07324196
    -0.03544772    -0.08445484     0.02289793
    -0.00831761    -0.03213933     0.01184207
--------------------------------------------------


--------------------------------------------------------------------------------
DFTB+ running times                          cpu [s]             wall clock [s]
--------------------------------------------------------------------------------
SCC                                    +     0.02  ( 67.0%)      0.03  ( 63.4%)
Post-SCC processing                    +     0.01  ( 30.4%)      0.01  ( 26.8%)
  Force calculation                          0.01  ( 30.1%)      0.01  ( 24.4%)
--------------------------------------------------------------------------------
Missing                                +     0.00  (  2.5%)      0.00  (  9.8%)
Total                                  =     0.04  (100.0%)      0.04  (100.0%)
--------------------------------------------------------------------------------
