 Fermi distribution function

Calculation with static geometry


********************************************************************************
 iSCC Total electronic   Diff electronic      SCC error    
    9   -0.53862198E+01   -0.19584334E-11    0.72295972E-06
********************************************************************************

 Total charge:     1.00000000

 Atomic gross charges (e)
 Atom           Charge
    1       0.14688497
    2      -0.03930293
    3       0.20416663
    4       0.27818272
    5       0.26575144
    6       0.14431718

Nr. of electrons (up):     12.00000000
Atom populations (up)
 Atom       Population
    1       3.85311503
    2       5.03930293
    3       0.79583337
    4       0.72181728
    5       0.73424856
    6       0.85568282

l-shell populations (up)
 Atom Sh.   l       Population
    1   1   0       1.33333101
    1   2   1       2.51978402
    2   1   0       1.44661874
    2   2   1       3.59268419
    3   1   0       0.79583337
    4   1   0       0.72181728
    5   1   0       0.73424856
    6   1   0       0.85568282

Orbital populations (up)
 Atom Sh.   l   m       Population  Label
    1   1   0   0       1.33333101  s
    1   2   1  -1       0.58389910  p_y
    1   2   1   0       0.87754757  p_z
    1   2   1   1       1.05833735  p_x
    2   1   0   0       1.44661874  s
    2   2   1  -1       1.29016481  p_y
    2   2   1   0       1.11136976  p_z
    2   2   1   1       1.19114962  p_x
    3   1   0   0       0.79583337  s
    4   1   0   0       0.72181728  s
    5   1   0   0       0.73424856  s
    6   1   0   0       0.85568282  s

Fermi level:                        -0.5031250481 H          -13.6907 eV
Band energy:                        -8.9199044448 H         -242.7229 eV
TS:                                  0.0000000000 H            0.0000 eV
Band free energy (E-TS):            -8.9199044448 H         -242.7229 eV
Extrapolated E(0K):                 -8.9199044448 H         -242.7229 eV
Input / Output electrons (q):     12.0000000000     12.0000000000

Energy H0:                          -5.5204172899 H         -150.2182 eV
Energy SCC:                          0.1341974470 H            3.6517 eV
Total Electronic energy:            -5.3862198429 H         -146.5665 eV
Repulsive energy:                    0.1798444564 H            4.8938 eV
Total energy:                       -5.2063753865 H         -141.6727 eV
Extrapolated to 0:                  -5.2063753865 H         -141.6727 eV
Total Mermin free energy:           -5.2063753865 H         -141.6727 eV
Force related energy:               -5.2063753865 H         -141.6727 eV

SCC converged

Excitation Energy:                   0.1260006029 H            3.4287 eV

Total Forces
    1      0.002883801288     -0.018943409501      0.043651215383
    2     -0.012604063188      0.013940155184     -0.037813256515
    3     -0.004177200862     -0.000932008963     -0.003168393340
    4     -0.002510641911      0.004215010461      0.007202838324
    5      0.017396965317     -0.004356370625     -0.007064153027
    6     -0.000988860644      0.006076623444     -0.002808250825

Maximal derivative component:        0.436512E-01 au


