|===============================================================================
|
|  DFTB+ release 20.1
|
|  Copyright (C) 2006 - 2020  DFTB+ developers group
|
|===============================================================================
|
|  When publishing results obtained with DFTB+, please cite the following
|  reference:
|
|  * DFTB+, a software package for efficient approximate density functional
|    theory based atomistic simulations, J. Chem. Phys. 152, 124101 (2020).
|    [doi: 10.1063/1.5143190]
|
|  You should also cite additional publications crediting the parametrization
|  data you use. Please consult the documentation of the SK-files for the
|  references.
|
|===============================================================================

Reading input file 'dftb_in.hsd'
Parser version: 8

--------------------------------------------------------------------------------
Reading SK-files:
Done.


Processed input in HSD format written to 'dftb_pin.hsd'

Starting initialization...
--------------------------------------------------------------------------------
WARNING!
-> Excited state forces are not implemented yet for fractional occupations, kT=  0.3158E-02K
OpenMP threads:              1
Chosen random seed:          435510574
Mode:                        Static calculation
Self consistent charges:     Yes
SCC-tolerance:                 0.100000E-05
Max. scc iterations:                    100
Shell resolved Hubbard:      No
Spin polarisation:           No
Nr. of up electrons:             6.000000
Nr. of down electrons:           6.000000
Periodic boundaries:         No
Electronic solver:           Relatively robust
Mixer:                       Broyden mixer
Mixing parameter:                  0.200000
Maximal SCC-cycles:                     100
Nr. of chrg. vec. in memory:              0
Electronic temperature:        0.100000E-07 H      0.272114E-06 eV
Initial charges:             Set automatically (system chrg:   0.100E+01)
Included shells:             C:  s, p
                             N:  s, p
                             H:  s
Extra options:
                             Mulliken analysis
                             Force calculation
Force type                   original
                             Eigenvector printing

--------------------------------------------------------------------------------

***  Geometry step: 0

 iSCC Total electronic   Diff electronic      SCC error    
    1   -0.53797798E+01    0.00000000E+00    0.63523605E+00
    2   -0.53834530E+01   -0.36731611E-02    0.42965583E+00
    3   -0.53859266E+01   -0.24736348E-02    0.75389531E-01
    4   -0.53862140E+01   -0.28735639E-03    0.18249774E-01
    5   -0.53862178E+01   -0.38313796E-05    0.42381720E-02
    6   -0.53862198E+01   -0.20290567E-05    0.36812484E-03
    7   -0.53862198E+01   -0.28006619E-08    0.28243593E-04
    8   -0.53862198E+01   -0.28641978E-10    0.74033318E-05
    9   -0.53862198E+01   -0.19584334E-11    0.72295972E-06
>> Charges saved for restart in charges.bin

Total Energy:                       -5.0803747836 H         -138.2440 eV
Extrapolated to 0:                  -5.2063753865 H         -141.6727 eV
Total Mermin free energy:           -5.0803747836 H         -138.2440 eV
Force related energy:               -5.2063753865 H         -141.6727 eV

--------------------------------------------------------------------------------
DFTB+ running times                          cpu [s]             wall clock [s]
--------------------------------------------------------------------------------
SCC                                    +     0.01  ( 47.0%)      0.05  ( 62.8%)
Post-SCC processing                    +     0.01  ( 46.2%)      0.02  ( 24.4%)
--------------------------------------------------------------------------------
Missing                                +     0.00  (  6.7%)      0.01  ( 12.8%)
Total                                  =     0.02  (100.0%)      0.08  (100.0%)
--------------------------------------------------------------------------------
