    14
  Step:   600            Position(A)                                  Velocity(au)
C        -4.86631529    -0.37133657     0.95288982     0.00019259     0.00050885    -0.00049395
C        -4.93249093    -0.54930982    -0.44328110    -0.00023988    -0.00066780    -0.00017594
H        -4.42436195     0.47499110     1.55943694     0.00150784     0.00258364    -0.00040032
H        -5.31208396    -1.12999356     1.54841791     0.00183633     0.00095233     0.00044607
H        -5.60469885    -1.23025613    -1.09863041     0.00050101     0.00071581    -0.00099680
C        -3.98555224     0.46076367    -1.12433715    -0.00032063    -0.00015851     0.00051328
C        -2.80453190     1.05225604    -0.56079613    -0.00007305     0.00004226    -0.00005843
H        -4.18888031     0.79684064    -2.13603540    -0.00064605     0.00219623    -0.00051817
H        -2.11728147     1.34267690    -1.49953900    -0.00068210    -0.00195226    -0.00047608
C        -2.19039224     1.31628554     0.73031846     0.00070900    -0.00046150    -0.00010750
H        -2.66206444     2.12598083     1.40167703     0.00174049    -0.00057771     0.00177984
N        -0.79947968     1.09003555     0.68721013    -0.00042342     0.00008622     0.00035359
H        -0.11030155     1.62611209     1.27277741    -0.00073870     0.00135056    -0.00057963
H        -0.66799393     0.74352289    -0.27877746    -0.00082859     0.00231191    -0.00032528
