|===============================================================================
|
|  DFTB+ release 20.1
|
|  Copyright (C) 2006 - 2020  DFTB+ developers group
|
|===============================================================================
|
|  When publishing results obtained with DFTB+, please cite the following
|  reference:
|
|  * DFTB+, a software package for efficient approximate density functional
|    theory based atomistic simulations, J. Chem. Phys. 152, 124101 (2020).
|    [doi: 10.1063/1.5143190]
|
|  You should also cite additional publications crediting the parametrization
|  data you use. Please consult the documentation of the SK-files for the
|  references.
|
|===============================================================================

Reading input file 'dftb_in.hsd'
Parser version: 8

--------------------------------------------------------------------------------
Reading SK-files:
Done.


Processed input in HSD format written to 'dftb_pin.hsd'

Starting initialization...
--------------------------------------------------------------------------------
OpenMP threads:              1
Chosen random seed:          502929468
Mode:                        Static calculation
Self consistent charges:     Yes
SCC-tolerance:                 0.100000E-05
Max. scc iterations:                   1000
Shell resolved Hubbard:      No
Spin polarisation:           No
Nr. of up electrons:            16.000000
Nr. of down electrons:          16.000000
Periodic boundaries:         No
Electronic solver:           Relatively robust
Maximal SCC-cycles:                    1000
Initial charges:             Set automatically (system chrg:   0.100E+01)
Included shells:             C:  s, p
                             H:  s
                             N:  s, p
Spin coupling constants:     C   1(s)-1(s):  -0.455900E-01
                             C   1(s)-2(p):  -0.293000E-01
                             C   2(p)-1(s):  -0.293000E-01
                             C   2(p)-2(p):  -0.275500E-01
                             H   1(s)-1(s):  -0.792500E-01
                             N   1(s)-1(s):  -0.468700E-01
                             N   1(s)-2(p):  -0.317000E-01
                             N   2(p)-1(s):  -0.317000E-01
                             N   2(p)-2(p):  -0.307200E-01
Range separated hybrid:      Yes
  Screening parameter omega:   0.300000E+00
  Range separated algorithm:   MatrixBased
Extra options:
                             Mulliken analysis
                             Force calculation
Force type                   original
                             Eigenvector printing


REKS Calcuation:             Yes
SSR(2,2) Calcuation:         Yes
Energy Functional:           (PPS+OSS)/2
Number of Core Orbitals:                 15
Number of Active Orbitals:                2
Number of Basis:                         32
Number of States:                         2
State-Averaging Weight:          0.500000
                                 0.500000
State of Interest:                        1
Initial Guess:               Diagonalize H0 matrix
Newton-Raphson for FON opt:  Yes
NR max. Iterations:                      50
Level Shifting:              Yes
Shift Value:                     0.300000
W Scale Factor:              C  =    3.200000
                             H  =    3.200000
                             N  =    3.200000
Transition Dipole:           No
Gradient of Microstate:      No
CP-REKS Solver:              Preconditioned Conjugate-Gradient
CG max. Iterations:                     100
CG Tolerance:                  0.100000E-07
Memory for A and Hxc:        Direct Updating Without Saving
Non-Adiabatic Coupling:      Yes

--------------------------------------------------------------------------------

***  Geometry step: 0

  iSCC       reks energy        Diff energy         x_a       SCC error   
    1      -16.3730078478       0.0000000000     0.993566    1.24436532
    2      -16.3919642807      -0.0189564329     0.998841    0.04309976
    3      -16.3969298903      -0.0049656095     0.999627    0.02394897
    4      -16.3988914924      -0.0019616022     0.999828    0.01541675
    5      -16.3998553106      -0.0009638182     0.999903    0.01043311
    6      -16.4003968903      -0.0005415797     0.999937    0.00740325
    7      -16.4007318183      -0.0003349281     0.999955    0.00545885
    8      -16.4009544279      -0.0002226095     0.999966    0.00415173
    9      -16.4011109581      -0.0001565303     0.999973    0.00369812
   10      -16.4012261095      -0.0001151514     0.999978    0.00346981
   11      -16.4013139476      -0.0000878381     0.999981    0.00321738
   12      -16.4013828924      -0.0000689448     0.999984    0.00296449
   13      -16.4014382073      -0.0000553149     0.999986    0.00272276
   14      -16.4014833205      -0.0000451132     0.999987    0.00249723
   15      -16.4015205574      -0.0000372368     0.999988    0.00228944
   16      -16.4015515584      -0.0000310011     0.999989    0.00209916
   17      -16.4015775252      -0.0000259667     0.999990    0.00192537
   18      -16.4015993669      -0.0000218417     0.999991    0.00176673
   19      -16.4016177918      -0.0000184249     0.999992    0.00162183
   20      -16.4016333641      -0.0000155723     0.999992    0.00148936
   21      -16.4016465415      -0.0000131774     0.999993    0.00136811
   22      -16.4016577006      -0.0000111591     0.999993    0.00125702
   23      -16.4016671543      -0.0000094537     0.999993    0.00115513
   24      -16.4016751644      -0.0000080101     0.999994    0.00106161
   25      -16.4016819513      -0.0000067869     0.999994    0.00097571
   26      -16.4016877010      -0.0000057497     0.999994    0.00089678
   27      -16.4016925710      -0.0000048700     0.999994    0.00082421
   28      -16.4016966949      -0.0000041239     0.999995    0.00075748
   29      -16.4017001860      -0.0000034911     0.999995    0.00069612
   30      -16.4017031405      -0.0000029545     0.999995    0.00063969
   31      -16.4017056400      -0.0000024996     0.999995    0.00058778
   32      -16.4017077541      -0.0000021141     0.999995    0.00054004
   33      -16.4017095416      -0.0000017875     0.999995    0.00049614
   34      -16.4017110525      -0.0000015109     0.999995    0.00045577
   35      -16.4017123293      -0.0000012768     0.999995    0.00041865
   36      -16.4017134080      -0.0000010787     0.999995    0.00038452
   37      -16.4017143191      -0.0000009111     0.999996    0.00035315
   38      -16.4017150884      -0.0000007693     0.999996    0.00032432
   39      -16.4017157378      -0.0000006495     0.999996    0.00029782
   40      -16.4017162860      -0.0000005482     0.999996    0.00027346
   41      -16.4017167486      -0.0000004626     0.999996    0.00025109
   42      -16.4017171390      -0.0000003903     0.999996    0.00023053
   43      -16.4017174682      -0.0000003293     0.999996    0.00021164
   44      -16.4017177459      -0.0000002777     0.999996    0.00019430
   45      -16.4017179802      -0.0000002342     0.999996    0.00017836
   46      -16.4017181777      -0.0000001975     0.999996    0.00016373
   47      -16.4017183442      -0.0000001665     0.999996    0.00015029
   48      -16.4017184846      -0.0000001404     0.999996    0.00013795
   49      -16.4017186029      -0.0000001183     0.999996    0.00012662
   50      -16.4017187027      -0.0000000997     0.999996    0.00011622
   51      -16.4017187867      -0.0000000841     0.999996    0.00010667
   52      -16.4017188576      -0.0000000708     0.999996    0.00009790
   53      -16.4017189172      -0.0000000597     0.999996    0.00008985
   54      -16.4017189675      -0.0000000503     0.999996    0.00008246
   55      -16.4017190099      -0.0000000424     0.999996    0.00007567
   56      -16.4017190456      -0.0000000357     0.999996    0.00006945
   57      -16.4017190757      -0.0000000301     0.999996    0.00006373
   58      -16.4017191010      -0.0000000253     0.999996    0.00005849
   59      -16.4017191224      -0.0000000213     0.999996    0.00005367
   60      -16.4017191404      -0.0000000180     0.999996    0.00004925
   61      -16.4017191555      -0.0000000151     0.999996    0.00004520
   62      -16.4017191683      -0.0000000128     0.999996    0.00004148
   63      -16.4017191790      -0.0000000107     0.999996    0.00003806
   64      -16.4017191881      -0.0000000090     0.999996    0.00003493
   65      -16.4017191957      -0.0000000076     0.999996    0.00003205
   66      -16.4017192021      -0.0000000064     0.999996    0.00002941
   67      -16.4017192075      -0.0000000054     0.999996    0.00002699
   68      -16.4017192121      -0.0000000046     0.999996    0.00002476
   69      -16.4017192159      -0.0000000038     0.999996    0.00002272
   70      -16.4017192191      -0.0000000032     0.999996    0.00002085
   71      -16.4017192218      -0.0000000027     0.999996    0.00001913
   72      -16.4017192241      -0.0000000023     0.999996    0.00001756
   73      -16.4017192260      -0.0000000019     0.999996    0.00001611
   74      -16.4017192277      -0.0000000016     0.999996    0.00001478
   75      -16.4017192290      -0.0000000014     0.999996    0.00001356
   76      -16.4017192302      -0.0000000012     0.999996    0.00001245
   77      -16.4017192312      -0.0000000010     0.999996    0.00001142
   78      -16.4017192320      -0.0000000008     0.999996    0.00001048
   79      -16.4017192327      -0.0000000007     0.999996    0.00000962
   80      -16.4017192332      -0.0000000006     0.999996    0.00000882
   81      -16.4017192337      -0.0000000005     0.999996    0.00000810
   82      -16.4017192341      -0.0000000004     0.999996    0.00000743
   83      -16.4017192345      -0.0000000003     0.999996    0.00000682
   84      -16.4017192348      -0.0000000003     0.999996    0.00000626
   85      -16.4017192350      -0.0000000002     0.999996    0.00000574
   86      -16.4017192352      -0.0000000002     0.999996    0.00000527
   87      -16.4017192354      -0.0000000002     0.999996    0.00000483
   88      -16.4017192355      -0.0000000001     0.999996    0.00000443
   89      -16.4017192357      -0.0000000001     0.999996    0.00000407
   90      -16.4017192358      -0.0000000001     0.999996    0.00000373
   91      -16.4017192359      -0.0000000001     0.999996    0.00000343
   92      -16.4017192359      -0.0000000001     0.999996    0.00000314
   93      -16.4017192360      -0.0000000001     0.999996    0.00000288
   94      -16.4017192360      -0.0000000001     0.999996    0.00000265
   95      -16.4017192361      -0.0000000000     0.999996    0.00000243
   96      -16.4017192361      -0.0000000000     0.999996    0.00000223
   97      -16.4017192362      -0.0000000000     0.999996    0.00000204
   98      -16.4017192362      -0.0000000000     0.999996    0.00000188
   99      -16.4017192362      -0.0000000000     0.999996    0.00000172
  100      -16.4017192362      -0.0000000000     0.999996    0.00000158
  101      -16.4017192362      -0.0000000000     0.999996    0.00000145
  102      -16.4017192363      -0.0000000000     0.999996    0.00000133
  103      -16.4017192363      -0.0000000000     0.999996    0.00000122
  104      -16.4017192363      -0.0000000000     0.999996    0.00000112
  105      -16.4017192363      -0.0000000000     0.999996    0.00000103
  106      -16.4017192363      -0.0000000000     0.999996    0.00000094
  
--------------------------------------------------
 Final SA-REKS(2,2) energy:     -16.40171924
  
 State     Energy      FON(1)    FON(2)   Spin
  PPS  -16.46155380   1.999993  0.000007  0.00
  OSS  -16.34188467   1.000000  1.000000  0.00
 Trip  -16.37563736   1.000000  1.000000  1.00
--------------------------------------------------

 Lagrangian Wab:   0.00172108  0.00172066

--------------------------------------------------
 SSR: 2SI-2SA-REKS(2,2) Hamiltonian matrix
               PPS           OSS
   PPS   -16.46155380    0.00242929
   OSS     0.00242929  -16.34188467
--------------------------------------------------

----------------------------------------------------------------
 SSR: 2SI-2SA-REKS(2,2) states
                    E_n       C_{PPS}    C_{OSS}
 SSR state  1  -16.46160309  -0.999794   0.020288
 SSR state  2  -16.34183538  -0.020288  -0.999794
----------------------------------------------------------------

 unrelaxed SSR FONs for S0:  1.999581  0.000419

Total Energy:                      -16.4616030931 H         -447.9430 eV
Extrapolated to 0:                 -16.4616030931 H         -447.9430 eV

----------------------------------------------------------------------------------
 Solving CP-REKS equation for  1 state vector...
----------------------------------------------------------------------------------
  CG solver: Constructing Y initial guess
  CG solver: Iteration    1    eps =    0.000400781354
  CG solver: Iteration    2    eps =    0.000113542354
  CG solver: Iteration    3    eps =    0.000046921014
  CG solver: Iteration    4    eps =    0.000006151801
  CG solver: Iteration    5    eps =    0.000001354553
  CG solver: Iteration    6    eps =    0.000000430371
  CG solver: Iteration    7    eps =    0.000000032579
  CG solver: Iteration    8    eps =    0.000000011360
  CG solver: Iteration    9    eps =    0.000000001863
  Convergence reached in CG solver after    9 iterations
  CG solver: Calculating converged R, Z, Q2 matrix
----------------------------------------------------------------------------------

----------------------------------------------------------------------------------
 Solving CP-REKS equation for SI between  1 and  2 state vectors...
----------------------------------------------------------------------------------
  CG solver: Constructing Y initial guess
  CG solver: Iteration    1    eps =    0.046766672191
  CG solver: Iteration    2    eps =    0.003224581347
  CG solver: Iteration    3    eps =    0.001111373965
  CG solver: Iteration    4    eps =    0.000640132338
  CG solver: Iteration    5    eps =    0.000160821500
  CG solver: Iteration    6    eps =    0.000053507552
  CG solver: Iteration    7    eps =    0.000004113972
  CG solver: Iteration    8    eps =    0.000000491180
  CG solver: Iteration    9    eps =    0.000000186922
  CG solver: Iteration   10    eps =    0.000000019637
  CG solver: Iteration   11    eps =    0.000000001773
  Convergence reached in CG solver after   11 iterations
  CG solver: Calculating converged R, Z, Q2 matrix
----------------------------------------------------------------------------------

--------------------------------------------------
 Gradient Information
--------------------------------------------------
           1 st state (SSR)
    -0.00675223    -0.00897410    -0.00830302
    -0.04878433    -0.00127675    -0.04394240
    -0.00079150     0.00999872    -0.00577175
     0.02201222     0.00560390     0.02316303
    -0.01269208     0.00260898     0.02509199
    -0.03152696    -0.01373123    -0.00289794
     0.08522164     0.02003339    -0.01979248
     0.02169405     0.00675980    -0.02713673
     0.00733033    -0.01393771     0.01879939
    -0.03629413     0.01265918     0.00869064
     0.00090029    -0.00234890     0.00841685
    -0.04897428     0.01379344     0.03403638
     0.00443819     0.02570455    -0.01635407
     0.04421880    -0.05689325     0.00600011

           2 st state (SSR)
    -0.01573661    -0.00351043     0.01627490
    -0.05914698    -0.00643147    -0.08955926
     0.00053951     0.00671575    -0.00453586
     0.02004659     0.00916498     0.02268746
    -0.00849565    -0.00187507     0.02680752
     0.02112750    -0.01357615     0.00438465
     0.09331955     0.01085636    -0.02953791
     0.02454235     0.00968679    -0.02829044
     0.00373477     0.00511347     0.01470164
    -0.04699152    -0.05572697    -0.02552399
     0.00043616    -0.00043368     0.00263569
    -0.06726494     0.07391784     0.10922845
     0.00654314     0.02674578    -0.01925063
     0.02734613    -0.06064719    -0.00002222
--------------------------------------------------
 Coupling Information
--------------------------------------------------
 between  1 and  2 states
--------------------------------------------------
 g vector - difference gradient
     0.00448716    -0.00273965    -0.01234686
     0.00536457     0.00257917     0.02303238
    -0.00066515     0.00166517    -0.00062716
     0.00099939    -0.00179336     0.00023383
    -0.00212175     0.00223044    -0.00085175
    -0.02795948    -0.00079396    -0.00428132
    -0.00153474     0.00470480     0.00442447
    -0.00134594    -0.00125158     0.00047763
     0.00167120    -0.00897926     0.00190898
     0.00457923     0.03320823     0.01761550
     0.00075131    -0.00103089     0.00294552
     0.00860185    -0.02914223    -0.03687071
    -0.00101655    -0.00049981     0.00137565
     0.00818888     0.00184291     0.00296385

 h vector - derivative coupling
    -0.00021495    -0.00013691    -0.00117671
     0.00440828    -0.00000766     0.00505306
     0.00002241     0.00055015    -0.00021455
     0.00038827    -0.00027969    -0.00010229
    -0.00053702    -0.00033077     0.00016550
    -0.03966879    -0.01764417    -0.01569019
     0.06200857     0.00277117    -0.01113939
     0.00195539     0.00524932    -0.00245568
    -0.00315412     0.01364963    -0.00348711
    -0.01906078    -0.02495115     0.01216958
     0.01278466    -0.00178554     0.00129449
    -0.01357179     0.02326936     0.01862788
     0.00090620     0.00052316    -0.00181821
    -0.00626633    -0.00087688    -0.00122636

 G vector - GDV
     0.00449219    -0.00273184    -0.01228896
     0.00518133     0.00257736     0.02280843
    -0.00066551     0.00164149    -0.00061794
     0.00098281    -0.00178054     0.00023779
    -0.00209822     0.00224203    -0.00085776
    -0.02632723    -0.00007754    -0.00364130
    -0.00404896     0.00458851     0.00487271
    -0.00142415    -0.00146350     0.00057685
     0.00179778    -0.00952559     0.00204887
     0.00534869     0.03419308     0.01710732
     0.00023206    -0.00095761     0.00289058
     0.00914533    -0.03006220    -0.03759604
    -0.00105247    -0.00052062     0.00144828
     0.00843634     0.00187697     0.00301116

 H vector - DCV - non-adiabatic coupling
    -0.00027341    -0.00207017    -0.01399885
     0.03859364     0.00080968     0.04995714
    -0.00003831     0.00515374    -0.00200237
     0.00357767    -0.00294077    -0.00077419
    -0.00519884    -0.00200400     0.00109218
    -0.34041192    -0.14746760    -0.13234749
     0.51679429     0.02471237    -0.09143313
     0.01585716     0.04336918    -0.02032504
    -0.02574761     0.11083232    -0.02844508
    -0.15746587    -0.19691002     0.10749278
     0.10691210    -0.01524529     0.01179715
    -0.11031074     0.18425665     0.14291684
     0.00721576     0.00419520    -0.01470272
    -0.04950394    -0.00669127    -0.00922720
--------------------------------------------------


--------------------------------------------------------------------------------
DFTB+ running times                          cpu [s]             wall clock [s]
--------------------------------------------------------------------------------
SCC                                    +     0.17  ( 36.3%)      0.17  ( 36.3%)
      Dense to sparse                        0.03  (  6.4%)      0.03  (  7.1%)
      Range separated Hamiltonian            0.01  (  2.9%)      0.02  (  3.4%)
  Density matrix creation                    0.02  (  3.6%)      0.02  (  3.1%)
Post-SCC processing                    +     0.30  ( 63.1%)      0.30  ( 62.5%)
  Force calculation                          0.30  ( 63.0%)      0.30  ( 62.1%)
--------------------------------------------------------------------------------
Missing                                +     0.00  (  0.6%)      0.01  (  1.3%)
Total                                  =     0.47  (100.0%)      0.48  (100.0%)
--------------------------------------------------------------------------------
