    14
  Step:     0            Position(A)                                  Velocity(au)
C        -5.99151231    -0.79331289     0.01048826     0.00010919    -0.00011131    -0.00017004
C        -4.62569046    -0.74065428     0.13063966    -0.00020034    -0.00010446     0.00011120
H        -6.54110170    -0.01769650    -0.56023069     0.00113225     0.00036589     0.00070613
H        -6.56050052    -1.72821675     0.18201562    -0.00051892    -0.00035708    -0.00028821
H        -4.09875313    -1.59835725     0.53445265    -0.00044704    -0.00069359     0.00018152
C        -3.93975858     0.49105642    -0.18959534    -0.00003130     0.00015417     0.00012798
C        -2.61039788     0.56955386     0.12670373     0.00019270     0.00003339    -0.00006199
H        -4.52640685     1.25013721    -0.67900003     0.00006704     0.00063182     0.00006777
H        -2.17881154    -0.33915035     0.55089098    -0.00000952     0.00133499     0.00000032
C        -1.82032266     1.77348667    -0.03399552    -0.00032314     0.00016427    -0.00002128
H        -2.20964958     2.76114267    -0.39497053    -0.00013602    -0.00125818    -0.00057444
N        -0.55639768     1.68922056     0.29814682     0.00000790    -0.00006037    -0.00002862
H         0.11591401     2.46991662     0.22081386     0.00196476    -0.00003442     0.00002788
H         0.01614165     0.87668321     0.48947215     0.00085111    -0.00077188     0.00044510
    14
  Step:     1            Position(A)                                  Velocity(au)
C        -5.99049610    -0.79462090     0.00848931     0.00007573    -0.00012958    -0.00019424
C        -4.62786789    -0.74169296     0.13187394    -0.00019522    -0.00008594     0.00011491
H        -6.52838695    -0.01390448    -0.55171176     0.00117454     0.00034120     0.00083781
H        -6.56584064    -1.73146328     0.17920690    -0.00044876    -0.00022330    -0.00022963
H        -4.10322748    -1.60596894     0.53653567    -0.00037528    -0.00068270     0.00019296
C        -3.94041186     0.49254307    -0.18824208    -0.00008814     0.00011744     0.00011948
C        -2.60800131     0.57011429     0.12603818     0.00024235     0.00007180    -0.00006105
H        -4.52563174     1.25775055    -0.67830124     0.00008067     0.00074644     0.00006683
H        -2.17840336    -0.32418339     0.55089014     0.00010113     0.00136111     0.00001619
C        -1.82423070     1.77518848    -0.03429205    -0.00038632     0.00014391    -0.00003142
H        -2.21087057     2.74607655    -0.40079783    -0.00009943    -0.00145558    -0.00050265
N        -0.55581558     1.68869202     0.29790832     0.00010148    -0.00003688    -0.00001493
H         0.13624533     2.46937505     0.22096305     0.00170904    -0.00010044     0.00000092
H         0.02449096     0.86741203     0.49442386     0.00063751    -0.00087597     0.00044845
    14
  Step:     2            Position(A)                                  Velocity(au)
C        -5.98985566    -0.79614764     0.00623881     0.00004128    -0.00015106    -0.00021586
C        -4.62996120    -0.74253434     0.13315345    -0.00018534    -0.00006858     0.00011944
H        -6.51540636    -0.01023202    -0.54190202     0.00117875     0.00034712     0.00094006
H        -6.57031795    -1.73310187     0.17699195    -0.00036468    -0.00006873    -0.00017903
H        -4.10696314    -1.61329265     0.53867406    -0.00031249    -0.00064046     0.00019167
C        -3.94168673     0.49362560    -0.18698145    -0.00014463     0.00008060     0.00011104
C        -2.60509599     0.57112454     0.12536822     0.00028543     0.00011540    -0.00006284
H        -4.52464209     1.26646707    -0.67753806     0.00010648     0.00083158     0.00008019
H        -2.17659903    -0.30937342     0.55124511     0.00024538     0.00130675     0.00006548
C        -1.82877423     1.77663504    -0.03468281    -0.00043786     0.00011696    -0.00003790
H        -2.21182485     2.72929900    -0.40596696    -0.00009117    -0.00156216    -0.00045838
N        -0.55417754     1.68841368     0.29782023     0.00019850    -0.00001501    -0.00000144
H         0.15330264     2.46771921     0.22083404     0.00137952    -0.00022532    -0.00002377
H         0.03008843     0.85751968     0.49928281     0.00035614    -0.00089220     0.00043003
    14
  Step:     3            Position(A)                                  Velocity(au)
C        -5.98959298    -0.79792568     0.00376695     0.00000740    -0.00017513    -0.00023465
C        -4.63192262    -0.74319334     0.13448682    -0.00017156    -0.00005264     0.00012466
H        -6.50259963    -0.00631050    -0.53114610     0.00114195     0.00038833     0.00101002
H        -6.57381865    -1.73296687     0.17529033    -0.00027398     0.00009500    -0.00013509
H        -4.11006387    -1.61998016     0.54072887    -0.00025899    -0.00056717     0.00017827
C        -3.94357588     0.49430636    -0.18581289    -0.00020026     0.00004416     0.00010267
C        -2.60175688     0.57263883     0.12466344     0.00032181     0.00016338    -0.00006723
H        -4.52330229     1.27594286    -0.67654699     0.00014409     0.00088445     0.00010843
H        -2.17303524    -0.29559583     0.55232261     0.00042011     0.00117760     0.00014607
C        -1.83380964     1.77774711    -0.03512117    -0.00047519     0.00008231    -0.00003964
H        -2.21286516     2.71190130    -0.41082584    -0.00011793    -0.00156297    -0.00044936
N        -0.55147310     1.68836376     0.29787684     0.00029401     0.00000467     0.00001122
H         0.16642491     2.46444568     0.22044295     0.00100392    -0.00038319    -0.00004777
H         0.03228227     0.84789345     0.50383149     0.00002532    -0.00083674     0.00039435
    14
  Step:     4            Position(A)                                  Velocity(au)
C        -5.98969380    -0.79997901     0.00110538    -0.00002456    -0.00020084    -0.00025061
C        -4.63371429    -0.74368599     0.13588057    -0.00015476    -0.00003806     0.00013032
H        -6.49042406    -0.00173662    -0.51980588     0.00106409     0.00046593     0.00104764
H        -6.57631171    -1.73102352     0.17403662    -0.00018436     0.00025581    -0.00009638
H        -4.11262905    -1.62570065     0.54257412    -0.00021382    -0.00046552     0.00015442
C        -3.94606782     0.49459175    -0.18473540    -0.00025487     0.00000834     0.00009442
C        -2.59805577     0.57469880     0.12389745     0.00035228     0.00021430    -0.00007360
H        -4.52148990     1.28581600    -0.67516590     0.00019157     0.00090446     0.00015080
H        -2.16740834    -0.28361117     0.55444067     0.00061740     0.00098898     0.00025100
C        -1.83916999     1.77843582    -0.03555012    -0.00049677     0.00003945    -0.00003594
H        -2.21440480     2.69510615    -0.41579756    -0.00018320    -0.00145097    -0.00048065
N        -0.54774557     1.68851576     0.29806559     0.00038331     0.00002179     0.00002246
H         0.17526521     2.45933618     0.21978906     0.00061125    -0.00054824    -0.00007259
H         0.03064245     0.83921439     0.50791001    -0.00033393    -0.00072976     0.00034709
    14
  Step:     5            Position(A)                                  Velocity(au)
C        -5.99013039    -0.80231934    -0.00171565    -0.00005357    -0.00022685    -0.00026402
C        -4.63530835    -0.74402592     0.13733784    -0.00013583    -0.00002445     0.00013607
H        -6.47932056     0.00388257    -0.50822706     0.00094841     0.00057644     0.00105606
H        -6.57785188    -1.72737059     0.17318188    -0.00010363     0.00040157    -0.00006134
H        -4.11474162    -1.63016435     0.54410712    -0.00017504    -0.00034007     0.00012259
C        -3.94915154     0.49448885    -0.18374716    -0.00030872    -0.00002697     0.00008640
C        -2.59405010     0.57732696     0.12305336     0.00037862     0.00026618    -0.00008087
H        -4.51911130     1.29572967    -0.67324790     0.00024575     0.00089306     0.00020540
H        -2.15952835    -0.27396010     0.55781375     0.00082487     0.00076463     0.00036875
C        -1.84467746     1.77861022    -0.03590736    -0.00050231    -0.00001126    -0.00002664
H        -2.21687293     2.68015858    -0.42134088    -0.00028538    -0.00123145    -0.00055248
N        -0.54308746     1.68884047     0.29836814     0.00046224     0.00003614     0.00003184
H         0.17979718     2.45245189     0.21885497     0.00023097    -0.00069507    -0.00009981
H         0.02497685     0.83192866     0.51142476    -0.00069992    -0.00059325     0.00029446
    14
  Step:     6            Position(A)                                  Velocity(au)
C        -5.99086573    -0.80494171    -0.00467047    -0.00007899    -0.00025147    -0.00027541
C        -4.63668585    -0.74422081     0.13885742    -0.00011547    -0.00001112     0.00014148
H        -6.46967570     0.01087401    -0.49670255     0.00080146     0.00071117     0.00104164
H        -6.57857876    -1.72223847     0.17269467    -0.00003937     0.00052054    -0.00002835
H        -4.11645830    -1.63314033     0.54525605    -0.00014001    -0.00019679     0.00008585
C        -3.95282158     0.49400168    -0.18284526    -0.00036244    -0.00006220     0.00007871
C        -2.58977273     0.58052209     0.12212835     0.00040328     0.00031678    -0.00008764
H        -4.51611355     1.30535331    -0.67067242     0.00030258     0.00085335     0.00026944
H        -2.14936282    -0.26688341     0.56250767     0.00102713     0.00053333     0.00048467
C        -1.85015898     1.77818957    -0.03613302    -0.00049295    -0.00006817    -0.00001241
H        -2.22064813     2.66816592    -0.42788401    -0.00041652    -0.00092504    -0.00065838
N        -0.53763325     1.68930631     0.29876222     0.00052735     0.00004746     0.00003912
H         0.18031823     2.44413021     0.21760554    -0.00010743    -0.00079860    -0.00013116
H         0.01533034     0.82623590     0.51435195    -0.00105154    -0.00044982     0.00024283
    14
  Step:     7            Position(A)                                  Velocity(au)
C        -5.99185844    -0.80782063    -0.00774087    -0.00010068    -0.00027272    -0.00028556
C        -4.63783446    -0.74426919     0.14043299    -0.00009421     0.00000276     0.00014610
H        -6.46178718     0.01944067    -0.48543913     0.00063252     0.00085659     0.00101300
H        -6.57871328    -1.71598268     0.17256168     0.00000135     0.00060199     0.00000433
H        -4.11780453    -1.63446953     0.54598524    -0.00010570    -0.00004272     0.00004743
C        -3.95708059     0.49312812    -0.18202518    -0.00041645    -0.00009785     0.00007156
C        -2.58522768     0.58425705     0.12113606     0.00042849     0.00036365    -0.00009248
H        -4.51249177     1.31439833    -0.66735330     0.00035746     0.00078975     0.00033967
H        -2.13705789    -0.26229253     0.56841681     0.00120837     0.00032379     0.00058366
C        -1.85546162     1.77711880    -0.03617875    -0.00047098    -0.00012819     0.00000532
H        -2.22598502     2.65992165    -0.43574410    -0.00056236    -0.00056711    -0.00078467
N        -0.53155067     1.68987882     0.29922394     0.00057599     0.00005550     0.00004421
H         0.17744689     2.43498092     0.21598550    -0.00037551    -0.00083474    -0.00016856
H         0.00197242     0.82208802     0.51673710    -0.00136923    -0.00032178     0.00019847
    14
  Step:     8            Position(A)                                  Velocity(au)
C        -5.99306820    -0.81090792    -0.01091762    -0.00011887    -0.00028857    -0.00029525
C        -4.63874686    -0.74416039     0.14205359    -0.00007257     0.00001786     0.00014956
H        -6.45583801     0.02961358    -0.47454127     0.00045248     0.00099594     0.00097951
H        -6.57854926    -1.70906870     0.17278940     0.00001265     0.00063710     0.00003840
H        -4.11877073    -1.63407492     0.54629370    -0.00006889     0.00011435     0.00001039
C        -3.96193222     0.49186106    -0.18127976    -0.00047003    -0.00013413     0.00006524
C        -2.58039880     0.58847765     0.12010511     0.00045499     0.00040414    -0.00009423
H        -4.50829346     1.32263056    -0.66324148     0.00040561     0.00070753     0.00041267
H        -2.12292747    -0.25979986     0.57527633     0.00135500     0.00015968     0.00065300
C        -1.86046265     1.77538509    -0.03601657    -0.00043911    -0.00018673     0.00002442
H        -2.23295076     2.65575926    -0.44505025    -0.00070456    -0.00020246    -0.00091218
N        -0.52503232     1.69052039     0.29972942     0.00060627     0.00006000     0.00004716
H         0.17210331     2.42586870     0.21391800    -0.00054827    -0.00078251    -0.00021398
H        -0.01462427     0.81919645     0.51869390    -0.00163602    -0.00023005     0.00016735
    14
  Step:     9            Position(A)                                  Velocity(au)
C        -5.99445896    -0.81413363    -0.01420011    -0.00013398    -0.00029723    -0.00030519
C        -4.63942207    -0.74387851     0.14370494    -0.00005132     0.00003436     0.00015164
H        -6.45188825     0.04122884    -0.46401037     0.00027214     0.00111176     0.00094984
H        -6.57843652    -1.70204485     0.17340176    -0.00000940     0.00062019     0.00007525
H        -4.11931171    -1.63196790     0.54621252    -0.00002642     0.00026629    -0.00002251
C        -3.96736348     0.49019387    -0.18059791    -0.00052090    -0.00017065     0.00006015
C        -2.57527395     0.59309840     0.11907458     0.00048127     0.00043524    -0.00009218
H        -4.50361835     1.32987693    -0.65832541     0.00044237     0.00061243     0.00048505
H        -2.10741469    -0.25879926     0.58270242     0.00145768     0.00005625     0.00068431
C        -1.86506809     1.77303371    -0.03564447    -0.00039947    -0.00023816     0.00004251
H        -2.24139870     2.65549239    -0.45569979    -0.00082450     0.00012371    -0.00101999
N        -0.51828725     1.69119136     0.30025562     0.00061712     0.00006097     0.00004803
H         0.16545237     2.41786204     0.21130434    -0.00060854    -0.00062819    -0.00026915
H        -0.03381864     0.81705532     0.52039821    -0.00183883    -0.00019231     0.00015460
    14
  Step:    10            Position(A)                                  Velocity(au)
C        -5.99599925    -0.81741031    -0.01759427    -0.00014639    -0.00029744    -0.00031583
C        -4.63986954    -0.74340864     0.14537109    -0.00003152     0.00005201     0.00015223
H        -6.44988439     0.05393554    -0.45376173     0.00010081     0.00118865     0.00093052
H        -6.57875489    -1.69550094     0.17443567    -0.00006590     0.00054996     0.00011572
H        -4.11934876    -1.62824923     0.54580136     0.00002456     0.00040525    -0.00004876
C        -3.97332781     0.48812785    -0.17996388    -0.00056585    -0.00020654     0.00005668
C        -2.56987004     0.59799925     0.11808848     0.00050429     0.00045399    -0.00008609
H        -4.49861582     1.33602854    -0.65263006     0.00046345     0.00051034     0.00055356
H        -2.09103789    -0.25856920     0.59024693     0.00151213     0.00001937     0.00067426
C        -1.86920176     1.77017483    -0.03508658    -0.00035324    -0.00027696     0.00005742
H        -2.25098823     2.65846558    -0.46736447    -0.00090709     0.00037505    -0.00109000
N        -0.51153166     1.69185412     0.30078010     0.00060856     0.00005891     0.00004686
H         0.15879041     2.41212588     0.20802982    -0.00055208    -0.00037067    -0.00033481
H        -0.05485229     0.81498927     0.52207613    -0.00196996    -0.00022048     0.00016386
    14
  Step:    11            Position(A)                                  Velocity(au)
C        -5.99766148    -0.82064060    -0.02110938    -0.00015650    -0.00028876    -0.00032729
C        -4.64011174    -0.74274058     0.14703519    -0.00001434     0.00007037     0.00015124
H        -6.44968276     0.06723283    -0.44365349    -0.00005467     0.00121549     0.00092526
H        -6.57987813    -1.69001339     0.17593335    -0.00015416     0.00043075     0.00015968
H        -4.11877432    -1.62310236     0.54514580     0.00008634     0.00052426    -0.00006616
C        -3.97974249     0.48567533    -0.17935790    -0.00060201    -0.00024087     0.00005513
C        -2.56424167     0.60303033     0.11719125     0.00052086     0.00045818    -0.00007605
H        -4.49347960     1.34104164    -0.64621515     0.00046518     0.00040712     0.00061516
H        -2.07433406    -0.25837557     0.59745309     0.00151871     0.00004660     0.00062400
C        -1.87279578     1.76697460    -0.03438823    -0.00030100    -0.00029891     0.00006757
H        -2.26124311     2.66369734    -0.47954569    -0.00094332     0.00052993    -0.00111035
N        -0.50497380     1.69248012     0.30128084     0.00058226     0.00005501     0.00004372
H         0.15337453     2.40975282     0.20397971    -0.00039191    -0.00002626    -0.00040974
H        -0.07691530     0.81223195     0.52398299    -0.00202820    -0.00031766     0.00019640
    14
  Step:    12            Position(A)                                  Velocity(au)
C        -5.99942296    -0.82372757    -0.02475431    -0.00016487    -0.00027175    -0.00033937
C        -4.64018329    -0.74186917     0.14867985    -0.00000074     0.00008898     0.00014867
H        -6.45108033     0.08052661    -0.43351993    -0.00019028     0.00118660     0.00093482
H        -6.58212746    -1.68607747     0.17792892    -0.00026723     0.00027302     0.00020566
H        -4.11745994    -1.61678010     0.54435390     0.00016032     0.00061783    -0.00007296
C        -3.98649785     0.48285842    -0.17875777    -0.00062742    -0.00027281     0.00005565
C        -2.55847512     0.60802280     0.11642478     0.00052858     0.00044662    -0.00006239
H        -4.48843912     1.34493510    -0.63917220     0.00044483     0.00030820     0.00066719
H        -2.05781329    -0.25754967     0.60389804     0.00148140     0.00012951     0.00053804
C        -1.87578669     1.76363558    -0.03360829    -0.00024311    -0.00030165     0.00007208
H        -2.27162512     2.67005878    -0.49165543    -0.00093061     0.00058238    -0.00107656
N        -0.49879351     1.69305758     0.30173649     0.00054170     0.00005104     0.00003866
H         0.15021669     2.41155144     0.19906604    -0.00015879     0.00037009    -0.00049003
H        -0.09922295     0.80803990     0.52637274    -0.00201918    -0.00047565     0.00025045
    14
  Step:    13            Position(A)                                  Velocity(au)
C        -6.00126832    -0.82658561    -0.02853385    -0.00017228    -0.00024783    -0.00035159
C        -4.64012791    -0.74079406     0.15028753     0.00000860     0.00010736     0.00014452
H        -6.45384549     0.09319204    -0.42320260    -0.00030456     0.00110174     0.00095745
H        -6.58572423    -1.68404063     0.18043256    -0.00039423     0.00009259     0.00025081
H        -4.11526705    -1.60958610     0.54354961     0.00024679     0.00068239    -0.00006814
C        -3.99346843     0.47970703    -0.17814050    -0.00064102    -0.00030171     0.00005823
C        -2.55267803     0.61280101     0.11582640     0.00052590     0.00041916    -0.00004560
H        -4.48374811     1.34778403    -0.63161918     0.00040076     0.00021822     0.00070757
H        -2.04192557    -0.25554229     0.60922376     0.00140652     0.00025592     0.00042309
C        -1.87811429     1.76037532    -0.03281130    -0.00017987    -0.00028463     0.00007073
H        -2.28160196     2.67643799    -0.50309751    -0.00087167     0.00053917    -0.00099067
N        -0.49312315     1.69359677     0.30212666     0.00049169     0.00004899     0.00003181
H         0.14990064     2.41784932     0.19325938     0.00010366     0.00076925    -0.00056918
H        -0.12108873     0.80182622     0.52946204    -0.00195441    -0.00067420     0.00032100
    14
  Step:    14            Position(A)                                  Velocity(au)
C        -6.00319198    -0.82914940    -0.03244592    -0.00017968    -0.00021914    -0.00036321
C        -4.63999506    -0.73952038     0.15184154     0.00001330     0.00012496     0.00013894
H        -6.45774307     0.10462925    -0.41257390    -0.00039809     0.00096532     0.00098969
H        -6.59075208    -1.68405184     0.18341582    -0.00052172    -0.00009139     0.00029112
H        -4.11206084    -1.60185153     0.54286311     0.00034467     0.00071664    -0.00005167
C        -4.00052141     0.47625783    -0.17748389    -0.00064246    -0.00032697     0.00006274
C        -2.54697012     0.61719277     0.11542730     0.00051212     0.00037657    -0.00002627
H        -4.47967163     1.34970912    -0.62369279     0.00033263     0.00014068     0.00073500
H        -2.02704304    -0.25195096     0.61315399     0.00130161     0.00041186     0.00028700
C        -1.87972180     1.75740877    -0.03206096    -0.00011168    -0.00024872     0.00006380
H        -2.29069452     2.68185409    -0.51332820    -0.00077257     0.00041528    -0.00085925
N        -0.48803678     1.69412943     0.30243246     0.00043754     0.00005049     0.00002335
H         0.15248435     2.42838031     0.18661422     0.00034864     0.00111789    -0.00063912
H        -0.14197948     0.79329040     0.53339527    -0.00184897    -0.00088305     0.00040025
    14
  Step:    15            Position(A)                                  Velocity(au)
C        -6.00519912    -0.83137968    -0.03647968    -0.00018801    -0.00018812    -0.00037342
C        -4.63983690    -0.73806025     0.15332720     0.00001326     0.00014107     0.00013217
H        -6.46255454     0.11431034    -0.40155131    -0.00047302     0.00078543     0.00102709
H        -6.59713789    -1.68604001     0.18680138    -0.00063562    -0.00025942     0.00032205
H        -4.10772665    -1.59390816     0.54241925     0.00045132     0.00072184    -0.00002459
C        -4.00752344     0.47255393    -0.17676804    -0.00063191    -0.00034799     0.00006891
C        -2.54147442     0.62103916     0.11525170     0.00048729     0.00032047    -0.00000510
H        -4.47647110     1.35086178    -0.61553957     0.00024143     0.00007758     0.00074905
H        -2.01345041    -0.24653204     0.61550241     0.00117481     0.00058266     0.00013813
C        -1.88055743     1.75493406    -0.03141552    -0.00003906    -0.00019595     0.00005194
H        -2.29850346     2.68552314    -0.52189517    -0.00064103     0.00022978    -0.00069139
N        -0.48355116     1.69470138     0.30263750     0.00038390     0.00005630     0.00001355
H         0.15752773     2.44230534     0.17927735     0.00053676     0.00137037    -0.00069204
H        -0.16153847     0.78250788     0.53821823    -0.00171838    -0.00106699     0.00047883
    14
  Step:    16            Position(A)                                  Velocity(au)
C        -6.00730507    -0.83326487    -0.04061516    -0.00019810    -0.00015721    -0.00038142
C        -4.63970507    -0.73643431     0.15473301     0.00000864     0.00015483     0.00012454
H        -6.46809134     0.12181213    -0.39010430    -0.00053244     0.00057253     0.00106491
H        -6.60465744    -1.68972719     0.19046127    -0.00072341    -0.00039462     0.00033928
H        -4.10218726    -1.58605992     0.54232509     0.00056255     0.00070174     0.00001091
C        -4.01434561     0.46864485    -0.17597636    -0.00060997    -0.00036419     0.00007640
C        -2.53630980     0.62420356     0.11531571     0.00045208     0.00025327     0.00001714
H        -4.47438988     1.35140635    -0.60730583     0.00012944     0.00002921     0.00075020
H        -2.00134174    -0.23920414     0.61617577     0.00103447     0.00075354    -0.00001500
C        -1.88057628     1.75312198    -0.03092461     0.00003725    -0.00012921     0.00003604
H        -2.30471827     2.68688099    -0.52845375    -0.00048524     0.00000300    -0.00049727
N        -0.47963819     1.69536107     0.30272888     0.00033405     0.00006615     0.00000276
H         0.16422706     2.45835981     0.17147444     0.00064341     0.00149778    -0.00072210
H        -0.17957237     0.76994788     0.54387054    -0.00157573    -0.00119280     0.00054757
    14
  Step:    17            Position(A)                                  Velocity(au)
C        -6.00953290    -0.83481885    -0.04482405    -0.00021047    -0.00012851    -0.00038653
C        -4.63964796    -0.73467311     0.15605180    -0.00000017     0.00016530     0.00011649
H        -6.47420278     0.12683551    -0.37825440    -0.00058005     0.00033846     0.00109854
H        -6.61296377    -1.69467309     0.19422377    -0.00077587    -0.00048510     0.00033944
H        -4.09541981    -1.57855616     0.54265790     0.00067275     0.00066231     0.00005168
C        -4.02086768     0.46458653    -0.17509658    -0.00057755    -0.00037498     0.00008480
C        -2.53158430     0.62657996     0.11562660     0.00040771     0.00017812     0.00003959
H        -4.47363931     1.35150072    -0.59912753     0.00000015    -0.00000588     0.00073980
H        -1.99081949    -0.23004700     0.61517429     0.00088897     0.00090985    -0.00016385
C        -1.87974254     1.75210734    -0.03062707     0.00011631    -0.00005210     0.00001715
H        -2.30911911     2.68558866    -0.53277386    -0.00031339    -0.00024477    -0.00028736
N        -0.47624310     1.69614863     0.30269796     0.00028961     0.00007899    -0.00000861
H         0.17160354     2.47507218     0.16348010     0.00066066     0.00149103    -0.00072642
H        -0.19601054     0.75641310     0.55019743    -0.00142985    -0.00123544     0.00059912
    14
  Step:    18            Position(A)                                  Velocity(au)
C        -6.01190952    -0.83607634    -0.04907134    -0.00022527    -0.00010369    -0.00038824
C        -4.63970874    -0.73281813     0.15728151    -0.00001261     0.00017148     0.00010850
H        -6.48078101     0.12921662    -0.36607160    -0.00061990     0.00009583     0.00112382
H        -6.62163103    -1.70033959     0.19788720    -0.00078805    -0.00052509     0.00032060
H        -4.08746961    -1.57157061     0.54345570     0.00077533     0.00061096     0.00009391
C        -4.02698070     0.46044148    -0.17412127    -0.00053579    -0.00037977     0.00009364
C        -2.52739036     0.62810025     0.11618187     0.00035575     0.00009872     0.00006134
H        -4.47438658     1.35127765    -0.59112136    -0.00014197    -0.00003071     0.00071991
H        -1.98189391    -0.21929934     0.61259125     0.00074678     0.00103723    -0.00029998
C        -1.87803172     1.75198227    -0.03054950     0.00019703     0.00003125    -0.00000356
H        -2.31157433     2.68152621    -0.53474031    -0.00013352    -0.00049366    -0.00007221
N        -0.47330250     1.69708920     0.30254048     0.00025071     0.00009338    -0.00002021
H         0.17868022     2.49097884     0.15558272     0.00059457     0.00135831    -0.00070516
H        -0.21085311     0.74292034     0.55697736    -0.00128508    -0.00118178     0.00062893
    14
  Step:    19            Position(A)                                  Velocity(au)
C        -6.01446117    -0.83708730    -0.05331743    -0.00024226    -0.00008390    -0.00038620
C        -4.63992386    -0.73092157     0.15842538    -0.00002805     0.00017248     0.00010103
H        -6.48776421     0.12893198    -0.35366868    -0.00065627    -0.00014253     0.00113715
H        -6.63020387    -1.70616046     0.20123761    -0.00075924    -0.00051476     0.00028241
H        -4.07845803    -1.56519025     0.54471236     0.00086332     0.00055558     0.00013358
C        -4.03258904     0.45627830    -0.17304803    -0.00048593    -0.00037806     0.00010248
C        -2.52380169     0.62873966     0.11696859     0.00029794     0.00001916     0.00008142
H        -4.47674520     1.35082889    -0.58337821    -0.00029174    -0.00004951     0.00069306
H        -1.97448228    -0.20735554     0.60861168     0.00061636     0.00112180    -0.00041517
C        -1.87543211     1.75279100    -0.03070499     0.00027823     0.00011631    -0.00002480
H        -2.31204008     2.67478888    -0.53435366     0.00004623    -0.00072402     0.00013748
N        -0.47075827     1.69819153     0.30225589     0.00021651     0.00010795    -0.00003174
H         0.18461090     2.50478775     0.14805344     0.00046032     0.00111967    -0.00066088
H        -0.22412404     0.73055945     0.56395658    -0.00114203    -0.00103121     0.00063565
    14
  Step:    20            Position(A)                                  Velocity(au)
C        -6.01720946    -0.83791176    -0.05752015    -0.00026087    -0.00006985    -0.00038028
C        -4.64032232    -0.72904475     0.15949168    -0.00004579     0.00016758     0.00009450
H        -6.49513827     0.12609849    -0.34119435    -0.00069355    -0.00036401     0.00113559
H        -6.63824085    -1.71160091     0.20406549    -0.00069230    -0.00045908     0.00022594
H        -4.06858280    -1.55941627     0.54637808     0.00093011     0.00050344     0.00016697
C        -4.03761143     0.45217059    -0.17187924    -0.00042933    -0.00036948     0.00011092
C        -2.52087228     0.62851936     0.11796303     0.00023609    -0.00005641     0.00009885
H        -4.48076899     1.35019451    -0.57595932    -0.00044360    -0.00006718     0.00066199
H        -1.96840977    -0.19475780     0.60350855     0.00050591     0.00115081    -0.00050181
C        -1.87194489     1.75452684    -0.03109209     0.00035879     0.00019840    -0.00004521
H        -2.31056289     2.66568682    -0.53173275     0.00021733    -0.00091604     0.00033070
N        -0.46856590     1.69945079     0.30184619     0.00018558     0.00012164    -0.00004302