     6
  Step:     0            Position(A)                                  Velocity(au)
C        -0.04085660     0.01249666     0.02309426     0.00006330    -0.00013217     0.00032013
N        -0.04175321    -0.06329773     1.28520924    -0.00005968     0.00006698    -0.00030177
H         0.94218853     0.03724353    -0.49756699    -0.00040504     0.00025113    -0.00014896
H         0.77717042    -0.07802422     1.82658189     0.00052716     0.00005701     0.00075291
H        -0.91800314     0.00162827     1.93477914     0.00021641    -0.00029168    -0.00031259
H        -0.94722655     0.10007152    -0.50666453    -0.00026352     0.00062767     0.00008740
     6
  Step:     1            Position(A)                                  Velocity(au)
C        -0.04046160     0.01177110     0.02445156     0.00008048    -0.00013333     0.00017520
N        -0.04215918    -0.06297156     1.28392369    -0.00008741     0.00005221    -0.00016700
H         0.93995055     0.03875127    -0.49835691    -0.00040890     0.00030113    -0.00014028
H         0.78083455    -0.07757610     1.83106728     0.00079732     0.00010748     0.00087613
H        -0.91646765     0.00013876     1.93261039     0.00034131    -0.00025202    -0.00047917
H        -0.94925374     0.10371825    -0.50650072    -0.00047409     0.00070660    -0.00002377
     6
  Step:     2            Position(A)                                  Velocity(au)
C        -0.03997639     0.01103850     0.02501037     0.00009609    -0.00013479     0.00002869
N        -0.04270921    -0.06272675     1.28338283    -0.00011212     0.00003731    -0.00003005
H         0.93771645     0.04053693    -0.49910117    -0.00040386     0.00035280    -0.00013277
H         0.78589054    -0.07684875     1.83616393     0.00103401     0.00015893     0.00097567
H        -0.91427035    -0.00112798     1.92953858     0.00045697    -0.00021041    -0.00064136
H        -0.95241156     0.10779943    -0.50692446    -0.00067412     0.00078631    -0.00012593
     6
  Step:     3            Position(A)                                  Velocity(au)
C        -0.03941100     0.01029732     0.02476525     0.00010961    -0.00013648    -0.00011834
N        -0.04338505    -0.06256360     1.28359516    -0.00013321     0.00002239     0.00010790
H         0.93553477     0.04260878    -0.49980856    -0.00039001     0.00040583    -0.00012721
H         0.79214035    -0.07583832     1.84173521     0.00123244     0.00021087     0.00104932
H        -0.91147114    -0.00216190     1.92559779     0.00055986    -0.00016690    -0.00079530
H        -0.95662449     0.11231569    -0.50787761    -0.00085724     0.00086534    -0.00021614
     6
  Step:     4            Position(A)                                  Velocity(au)
C        -0.03877808     0.00954638     0.02371654     0.00012057    -0.00013829    -0.00026458
N        -0.04416559    -0.06248197     1.28456251    -0.00015016     0.00000753     0.00024537
H         0.93345254     0.04497381    -0.50049191    -0.00036763     0.00045982    -0.00012425
H         0.79936460    -0.07454329     1.84763603     0.00138892     0.00026276     0.00109572
H        -0.90814948    -0.00295264     1.92084362     0.00064600    -0.00012136    -0.00093657
H        -0.96178366     0.11726009    -0.50928746    -0.00101737     0.00094200    -0.00029193
     6
  Step:     5            Position(A)                                  Velocity(au)
C        -0.03809257     0.00878508     0.02187191     0.00012855    -0.00014007    -0.00040829
N        -0.04502706    -0.06248129     1.28627838    -0.00016244    -0.00000717     0.00038044
H         0.93151460     0.04763706    -0.50116726    -0.00033716     0.00051415    -0.00012439
H         0.80732876    -0.07296494     1.85371735     0.00150084     0.00031388     0.00111432
H        -0.90440691    -0.00348904     1.91535610     0.00071088    -0.00007372    -0.00106009
H        -0.96774986     0.12261686    -0.51106994    -0.00114909     0.00101431    -0.00035148
     6
  Step:     6            Position(A)                                  Velocity(au)
C        -0.03737138     0.00801365     0.01924869     0.00013323    -0.00014163    -0.00054719
N        -0.04594314    -0.06256041     1.28872563    -0.00016958    -0.00002155     0.00051071
H         0.92976306     0.05060010    -0.50185305    -0.00029915     0.00056788    -0.00012796
H         0.81578811    -0.07110855     1.85982988     0.00156652     0.00036325     0.00110527
H        -0.90037039    -0.00375938     1.90924326     0.00074958    -0.00002404    -0.00116032
H        -0.97435801     0.12835956    -0.51313362    -0.00124796     0.00107995    -0.00039378
     6
  Step:     7            Position(A)                                  Velocity(au)
C        -0.03663290     0.00723335     0.01587664     0.00013436    -0.00014275    -0.00067850
N        -0.04688506    -0.06271738     1.29187400    -0.00017116    -0.00003541     0.00063333
H         0.92823696     0.05385905    -0.50256928    -0.00025423     0.00061970    -0.00013515
H         0.82449226    -0.06898503     1.86582725     0.00158535     0.00040960     0.00106948
H        -0.89619415    -0.00375248     1.90264313     0.00075719     0.00002735    -0.00123167
H        -0.98142313     0.13444930    -0.51538435    -0.00131088     0.00113637    -0.00041873
     6
  Step:     8            Position(A)                                  Velocity(au)
C        -0.03589646     0.00644672     0.01180077     0.00013187    -0.00014319    -0.00079902
N        -0.04782202    -0.06294912     1.29567778    -0.00016691    -0.00004851     0.00074514
H         0.92697239     0.05740256    -0.50333665    -0.00020305     0.00066800    -0.00014597
H         0.83319064    -0.06661238     1.87156961     0.00155804     0.00045147     0.00100863
H        -0.89205871    -0.00345912     1.89572316     0.00072945     0.00007988    -0.00126913
H        -0.98874758     0.14083354    -0.51773007    -0.00133636     0.00118099    -0.00042718
     6
  Step:     9            Position(A)                                  Velocity(au)
C        -0.03518171     0.00565758     0.00708335     0.00012578    -0.00014274    -0.00090543
N        -0.04872190    -0.06325127     1.30007435    -0.00015673    -0.00006059     0.00084294
H         0.92600241     0.06121040    -0.50417568    -0.00014636     0.00071108    -0.00016024
H         0.84163857    -0.06401654     1.87692729     0.00148684     0.00048741     0.00092532
H        -0.88816653    -0.00287337     1.88867629     0.00066343     0.00013274    -0.00126895
H        -0.99612984     0.14744617    -0.52008554    -0.00132477     0.00121154    -0.00042084
     6
  Step:    10            Position(A)                                  Velocity(au)
C        -0.03450778     0.00487088     0.00180453     0.00011634    -0.00014124    -0.00099467
N        -0.04955238    -0.06361804     1.30498410    -0.00014083    -0.00007139     0.00092386
H         0.92535651     0.06525315    -0.50510574    -0.00008510     0.00074742    -0.00017763
H         0.84960576    -0.06123124     1.88178545     0.00137591     0.00051615     0.00082316
H        -0.88473425    -0.00199361     1.88171362     0.00055822     0.00018502    -0.00122935
H        -1.00337347     0.15420935    -0.52237628    -0.00127828     0.00122640    -0.00040202
     6
  Step:    11            Position(A)                                  Velocity(au)
C        -0.03389247     0.00409240    -0.00393949     0.00010393    -0.00013863    -0.00106449
N        -0.05028260    -0.06404238     1.31031249    -0.00011977    -0.00008072     0.00098586
H         0.92505933     0.06949326    -0.50614411    -0.00002044     0.00077593    -0.00019765
H         0.85688627    -0.05829662     1.88604952     0.00123140     0.00053689     0.00070675
H        -0.88198036    -0.00082299     1.87505271     0.00041566     0.00023582    -0.00115130
H        -1.01029566     0.16103704    -0.52454069    -0.00120078     0.00122494    -0.00037333
     6
  Step:    12            Position(A)                                  Velocity(au)
C        -0.03335125     0.00332820    -0.01004099     0.00008914    -0.00013499    -0.00111396
N        -0.05088514    -0.06451626     1.31595473    -0.00009445    -0.00008848     0.00102822
H         0.92512909     0.07388763    -0.50730519     0.00004621     0.00079628    -0.00021976
H         0.86330869    -0.05525673     1.88965009     0.00106119     0.00054950     0.00058140
H        -0.88010880     0.00063063     1.86890208     0.00024062     0.00028442    -0.00103881
H        -1.01673564     0.16784045    -0.52653066    -0.00109763     0.00120787    -0.00033734
     6
  Step:    13            Position(A)                                  Velocity(au)
C        -0.03289638     0.00258394    -0.01638796     0.00007265    -0.00013051    -0.00114393
N        -0.05133812    -0.06503118     1.32180278    -0.00006611    -0.00009472     0.00105185
H         0.92557569     0.07839162    -0.50859990     0.00011325     0.00080909    -0.00024339
H         0.86874505    -0.05215594     1.89254669     0.00087429     0.00055464     0.00045275
H        -0.87929146     0.00235536     1.86344401     0.00004066     0.00033036    -0.00089886
H        -1.02256164     0.17453495    -0.52831049    -0.00097528     0.00117733    -0.00029642
     6
  Step:    14            Position(A)                                  Velocity(au)
C        -0.03253622     0.00186414    -0.02287377     0.00005523    -0.00012553    -0.00115708
N        -0.05162678    -0.06557888     1.32775463    -0.00003608    -0.00009963     0.00105949
H         0.92639959     0.08296417    -0.51003554     0.00017920     0.00081599    -0.00026805
H         0.87311664    -0.04903465     1.89472917     0.00067986     0.00055376     0.00032609
H        -0.87965268     0.00433669     1.85881851    -0.00017503     0.00037365    -0.00074040
H        -1.02767652     0.18104792    -0.52985594    -0.00084076     0.00113681    -0.00025293
     6
  Step:    15            Position(A)                                  Velocity(au)
C        -0.03227498     0.00117152    -0.02940730     0.00003753    -0.00012044    -0.00115751
N        -0.05174409    -0.06615216     1.33372405    -0.00000563    -0.00010350     0.00105514
H         0.92759200     0.08757300    -0.51161594     0.00024282     0.00081928    -0.00029333
H         0.87639479    -0.04592510     1.89621584     0.00048608     0.00054885     0.00020575
H        -0.88126087     0.00655967     1.85511307    -0.00039717     0.00041473    -0.00057291
H        -1.03202179     0.18732623    -0.53115645    -0.00070081     0.00109060    -0.00020921
     6
  Step:    16            Position(A)                                  Velocity(au)
C        -0.03211318     0.00050666    -0.03592031     0.00002009    -0.00011561    -0.00114971
N        -0.05169019    -0.06674550     1.33964734     0.00002422    -0.00010672     0.00104315
H         0.92913642     0.09219847    -0.51334176     0.00030328     0.00082146    -0.00031892
H         0.87859532    -0.04284846     1.89704826     0.00029916     0.00054203     0.00009473
H        -0.88412931     0.00901124     1.85236112    -0.00061758     0.00045433    -0.00040483
H        -1.03557546     0.19334029    -0.53221402    -0.00056081     0.00104283    -0.00016710
     6
  Step:    17            Position(A)                                  Velocity(au)
C        -0.03204845    -0.00013189    -0.04236926     0.00000325    -0.00011130    -0.00113746
N        -0.05147108    -0.06735536     1.34548472     0.00005266    -0.00010960     0.00102721
H         0.93101118     0.09683431    -0.51521150     0.00036008     0.00082453    -0.00034463
H         0.87976760    -0.03981421     1.89728382     0.00012319     0.00053505    -0.00000529
H        -0.88822360     0.01168183     1.85054892    -0.00082942     0.00049311    -0.00024274
H        -1.03834449     0.19908319    -0.53304032    -0.00042433     0.00099660    -0.00012779
     6
  Step:    18            Position(A)                                  Velocity(au)
C        -0.03207661    -0.00074697    -0.04873156    -0.00002048    -0.00017215    -0.00179643
N        -0.05109710    -0.06797989     1.35121678     0.00012649    -0.00017966     0.00161488
H         0.93319200     0.10148513    -0.51722328     0.00066017     0.00132677    -0.00059214
H         0.87998285    -0.03682215     1.89698872    -0.00006285     0.00084615    -0.00014942
H        -0.89347103     0.01456511     1.84962719    -0.00164206     0.00084983    -0.00014603
H        -1.04035471     0.20456501    -0.53365334    -0.00046905     0.00152518    -0.00014711
     6
  Step:    19            Position(A)                                  Velocity(au)
C        -0.03221870    -0.00170951    -0.05843003    -0.00002925    -0.00016832    -0.00163133
N        -0.05033077    -0.06896123     1.35997064     0.00014224    -0.00016720     0.00147865
H         0.93718795     0.10885549    -0.52092956     0.00074573     0.00127928    -0.00071141
H         0.87924481    -0.03220424     1.89596338    -0.00018677     0.00078711    -0.00020394
H        -0.90313802     0.01925780     1.84929687    -0.00175553     0.00080837     0.00001690
H        -1.04290193     0.21299077    -0.53467089    -0.00043155     0.00145440    -0.00021043
     6
  Step:    20            Position(A)                                  Velocity(au)
C        -0.03240789    -0.00265300    -0.06720460    -0.00003701    -0.00016516    -0.00146964
N        -0.04948634    -0.06987326     1.36796087     0.00015376    -0.00015505     0.00134472
H         0.94163652     0.11597159    -0.52527920     0.00081789     0.00123539    -0.00081803
H         0.87786786    -0.02790898     1.89467930    -0.00028782     0.00073166    -0.00024085
H        -0.91335044     0.02371904     1.84981859    -0.00183101     0.00076689     0.00015392
H        -1.04524153     0.22103448    -0.53603622    -0.00039481     0.00138872    -0.00026953
     6
  Step:    21            Position(A)                                  Velocity(au)
C        -0.03263795    -0.00358059    -0.07507920    -0.00002364    -0.00008808    -0.00071179
N        -0.04858887    -0.07071773     1.37520464     0.00008715    -0.00007764     0.00065840
H         0.94645358     0.12285088    -0.53019685     0.00047382     0.00064736    -0.00049372
H         0.87598415    -0.02391552     1.89323482    -0.00019797     0.00036865    -0.00014134
H        -0.92388102     0.02794567     1.85104062    -0.00101123     0.00039275     0.00014302
H        -1.04737462     0.22872322    -0.53772436    -0.00019399     0.00071970    -0.00017564
     6
  Step:    22            Position(A)                                  Velocity(au)
C        -0.03280671    -0.00406792    -0.07903738    -0.00003585    -0.00008561    -0.00069802
N        -0.04806032    -0.07116237     1.37885277     0.00009962    -0.00008063     0.00064112
H         0.94915275     0.12651518    -0.53298685     0.00048361     0.00065757    -0.00049856
H         0.87459979    -0.02183915     1.89234374    -0.00028711     0.00037149    -0.00017103
H        -0.92980434     0.03025557     1.85208427    -0.00108603     0.00042840     0.00022142
H        -1.04810019     0.23265858    -0.53861687    -0.00006761     0.00068311    -0.00014356
     6
  Step:    23            Position(A)                                  Velocity(au)
C        -0.03304035    -0.00454143    -0.08291368    -0.00004702    -0.00008373    -0.00068741
N        -0.04747076    -0.07162274     1.38240058     0.00010955    -0.00008383     0.00062705
H         0.95188153     0.13023144    -0.53579264     0.00048774     0.00067040    -0.00050281
H         0.87276164    -0.01974593     1.89131521    -0.00036150     0.00037736    -0.00019145
H        -0.93607055     0.03275403     1.85352579    -0.00114068     0.00046300     0.00028656
H        -1.04813344     0.23639040    -0.53933569     0.00005237     0.00065181    -0.00011480
     6
  Step:    24            Position(A)                                  Velocity(au)
C        -0.03333260    -0.00500437    -0.08672592    -0.00005699    -0.00008217    -0.00067799
N        -0.04683504    -0.07209996     1.38586617     0.00011655    -0.00008703     0.00061434
H         0.95460798     0.13401345    -0.53861065     0.00048485     0.00068386    -0.00050505
H         0.87055647    -0.01761849     1.89020241    -0.00041955     0.00038543    -0.00020186
H        -0.94256261     0.03543413     1.85528936    -0.00117149     0.00049532     0.00033799
H        -1.04751444     0.23994898    -0.53990083     0.00016565     0.00062392    -0.00008922
     6
  Step:    25            Position(A)                                  Velocity(au)
C        -0.03367647    -0.00545859    -0.09048098    -0.00006562    -0.00008079    -0.00066855
N        -0.04616986    -0.07259409     1.38925744     0.00012037    -0.00009010     0.00060188
H         0.95729310     0.13786428    -0.54142972     0.00047418     0.00069664    -0.00050444
H         0.86807894    -0.01544401     1.88906220    -0.00045980     0.00039524    -0.00020169
H        -0.94914601     0.03828251     1.85729818    -0.00117642     0.00052449     0.00037553
H        -1.04628461     0.24335422    -0.54033147     0.00027126     0.00059845    -0.00006698
     6
  Step:    26            Position(A)                                  Velocity(au)
C        -0.03406420    -0.00590507    -0.09417903    -0.00007278    -0.00007950    -0.00065839
N        -0.04549309    -0.07310446     1.39257609     0.00012090    -0.00009298     0.00058904
H         0.95989421     0.14177980    -0.54423422     0.00045546     0.00070789    -0.00050053
H         0.86543050    -0.01321222     1.88795390    -0.00048129     0.00040657    -0.00019070
H        -0.95567764     0.04128125     1.85947589    -0.00115495     0.00054993     0.00039945
H        -1.04449039     0.24662064    -0.54064751     0.00036799     0.00057498    -0.00004836
     6
  Step:    27            Position(A)                                  Velocity(au)
C        -0.03448734    -0.00634432    -0.09781648    -0.00007836    -0.00007825    -0.00064717
N        -0.04482290    -0.07363004     1.39582028     0.00011815    -0.00009562     0.00057548
H         0.96236767     0.14575133    -0.54700639     0.00042885     0.00071710    -0.00049320
H         0.86271663    -0.01091417     1.88693749    -0.00048364     0.00041931    -0.00016899
H        -0.96201403     0.04440962     1.86174872    -0.00110790     0.00057136     0.00041045
H        -1.04218464     0.24976042    -0.54087025     0.00045460     0.00055343    -0.00003368
     6
  Step:    28            Position(A)                                  Velocity(au)
C        -0.03493702    -0.00677664    -0.10138780    -0.00008230    -0.00007703    -0.00063477
N        -0.04417706    -0.07416961     1.39898634     0.00011228    -0.00009803     0.00056109
H         0.96467107     0.14976748    -0.54972797     0.00039478     0.00072400    -0.00048257
H         0.86004327    -0.00854153     1.88607158    -0.00046718     0.00043346    -0.00013701
H        -0.96801843     0.04764562     1.86404787    -0.00103716     0.00058874     0.00040963
H        -1.03942666     0.25278529    -0.54102264     0.00052998     0.00053394    -0.00002324
     6
  Step:    29            Position(A)                                  Velocity(au)
C        -0.03540408    -0.00720229    -0.10488676    -0.00008460    -0.00007585    -0.00062120
N        -0.04357227    -0.07472193     1.40206990     0.00010356    -0.00010021     0.00054587
H         0.96676489     0.15381551    -0.55238142     0.00035396     0.00072853    -0.00046889
H         0.85751304    -0.00608614     1.88541144    -0.00043291     0.00044902    -0.00009558
H        -0.97356623     0.05096723     1.86631133    -0.00094537     0.00060221     0.00039837
H        -1.03628152     0.25570757    -0.54112914     0.00059323     0.00051671    -0.00001731
     6
  Step:    30            Position(A)                                  Velocity(au)
C        -0.03587931    -0.00762154    -0.10830718    -0.00008525    -0.00007473    -0.00060656
N        -0.04302353    -0.07528587     1.40506667     0.00009233    -0.00010220     0.00052992
H         0.96861375     0.15788237    -0.55495080     0.00030724     0.00073074    -0.00045253
H         0.85522123    -0.00353999     1.88500695    -0.00038252     0.00046600    -0.00004584
H        -0.97854862     0.05435346     1.86848517    -0.00083568     0.00061206     0.00037822
H        -1.03281881     0.25854074    -0.54121542     0.00064369     0.00050201    -0.00001606
     6
  Step:    31            Position(A)                                  Velocity(au)
C        -0.03635368    -0.00803478    -0.11164341    -0.00008431    -0.00007370    -0.00059100
N        -0.04254375    -0.07586042     1.40797287     0.00007901    -0.00010404     0.00051339
H         0.97018732     0.16195544    -0.55742230     0.00025558     0.00073080    -0.00043393
H         0.85325200    -0.00089523     1.88490081    -0.00031833     0.00048437     0.00001078
H        -0.98287513     0.05778515     1.87052441    -0.00071155     0.00061872     0.00035085
H        -1.02911129     0.26129957    -0.54130801     0.00068095     0.00049009    -0.00001961
     6
  Step:    32            Position(A)                                  Velocity(au)
C        -0.03681850    -0.00844254    -0.11489059    -0.00008186    -0.00007278    -0.00057467
N        -0.04214336    -0.07644479     1.41078557     0.00006407    -0.00010575     0.00049645
H         0.97146080     0.16602310    -0.55978454     0.00020001     0.00072893    -0.00041354
H         0.85167516     0.00185561     1.88512703    -0.00024314     0.00050403     0.00007263
H        -0.98647496     0.06124567     1.87239340    -0.00057654     0.00062268     0.00031792
H        -1.02523338     0.26400013    -0.54143386     0.00070487     0.00048118    -0.00002800
     6
  Step:    33            Position(A)                                  Velocity(au)
C        -0.03726556    -0.00884549    -0.11804474    -0.00007800    -0.00007200    -0.00055775
N        -0.04183012    -0.07703840     1.41350282     0.00004798    -0.00010739     0.00047927
H         0.97241521     0.17007508    -0.56202870     0.00014155     0.00072541    -0.00039181
H         0.85054364     0.00471925     1.88570989    -0.00016011     0.00052485     0.00013793
H        -0.98929731     0.06472126     1.87406577    -0.00043419     0.00062451     0.00028109
H        -1.02125971     0.26665944    -0.54161988     0.00071555     0.00047540    -0.00004117
     6
  Step:    34            Position(A)                                  Velocity(au)
C        -0.03768731    -0.00924442    -0.12110280    -0.00007286    -0.00007137    -0.00054039
N        -0.04160900    -0.07764085     1.41612369     0.00003124    -0.00010897     0.00046205
H         0.97303742     0.17410271    -0.56414850     0.00008126     0.00072054    -0.00036919
H         0.84989184     0.00770136     1.88666326    -0.00007264     0.00054658     0.00020478
H        -0.99131095     0.06820142     1.87552412    -0.00028789     0.00062480     0.00024189
H        -1.01726360     0.26929512    -0.54189244     0.00071336     0.00047282    -0.00005900
     6
  Step:    35            Position(A)                                  Velocity(au)
C        -0.03807696    -0.00964024    -0.12406251    -0.00006658    -0.00007091    -0.00052271
N        -0.04148220    -0.07825194     1.41864820     0.00001435    -0.00011054     0.00044493
H         0.97332007     0.17809909    -0.56614001     0.00002012     0.00071464    -0.00034607
H         0.84973470     0.01080604     1.88799033     0.00001579     0.00056892     0.00027130
H        -0.99250331     0.07167908     1.87675948    -0.00014087     0.00062417     0.00020177
H        -1.01331571     0.27192482    -0.54227695     0.00069887     0.00047339    -0.00008128
     6
  Step:    36            Position(A)                                  Velocity(au)
C        -0.03842861    -0.01003390    -0.12692235    -0.00005933    -0.00007063    -0.00050481
N        -0.04144919    -0.07887160     1.42107727    -0.00000221    -0.00011212     0.00042803
H         0.97326143     0.18205921    -0.56800146    -0.00004087     0.00070805    -0.00032280
H         0.85006766     0.01403543     1.88968382     0.00010177     0.00059145     0.00033567
H        -0.99287929     0.07515066     1.87777057     0.00000390     0.00062327     0.00016205
H        -1.00948273     0.27456561    -0.54279739     0.00067287     0.00047694    -0.00010773
     6
  Step:    37            Position(A)                                  Velocity(au)
C        -0.03873730    -0.01042642    -0.12968128    -0.00005128    -0.00007054    -0.00048676
N        -0.04150683    -0.07949988     1.42341243    -0.00001801    -0.00011371     0.00041146
H         0.97286521     0.18598006    -0.56973296    -0.00010074     0.00070114    -0.00029969
H         0.85086746     0.01738920     1.89172654     0.00018207     0.00061369     0.00039620
H        -0.99245994     0.07861633     1.87856314     0.00014362     0.00062276     0.00012390
H        -1.00582629     0.27723335    -0.54347600     0.00063637     0.00048316    -0.00013800
     6
  Step:    38            Position(A)                                  Velocity(au)
C        -0.03899919    -0.01081879    -0.13233854    -0.00004265    -0.00007062    -0.00046858
N        -0.04164959    -0.08013691     1.42565563    -0.00003262    -0.00011534     0.00039525
H         0.97214050     0.18986090    -0.57133619    -0.00015854     0.00069435    -0.00027699
H         0.85209362     0.02086403     1.89409239     0.00025380     0.00063503     0.00045140
H        -0.99128126     0.08208016     1.87914920     0.00027571     0.00062338     0.00008838
H        -1.00240179     0.27994182    -0.54433295     0.00059056     0.00049160    -0.00017173
     6
  Step:    39            Position(A)                                  Velocity(au)
C        -0.03921169    -0.01121197    -0.13489356    -0.00003367    -0.00007087    -0.00045029
N        -0.04186971    -0.08078290     1.42780902    -0.00004567    -0.00011701     0.00037942
H         0.97110165     0.19370370    -0.57281402    -0.00021332     0.00068823    -0.00025484
H         0.85369058     0.02445302     1.89674771     0.00031445     0.00065474     0.00050005
H        -0.98939304     0.08555056     1.87954629     0.00039781     0.00062599     0.00005643
H        -0.99925720     0.28270174    -0.54538620     0.00053685     0.00050159    -0.00020851
     6
  Step:    40            Position(A)                                  Velocity(au)
C        -0.03937359    -0.01160686    -0.13734576    -0.00002463    -0.00007127    -0.00043188
N        -0.04215739    -0.08143809     1.42987476    -0.00005678    -0.00011873     0.00036395
H         0.96976842     0.19751398    -0.57417001    -0.00026404     0.00068359    -0.00023332
H         0.85559023     0.02814469     1.89965292     0.00036199     0.00067182     0.00054127
H        -0.98685767     0.08904117     1.87977667     0.00050772     0.00063168     0.00002878
H        -0.99643208     0.28551943    -0.54665160     0.00047683     0.00051213    -0.00024807
     6
  Step:    41            Position(A)                                  Velocity(au)
C        -0.03948543    -0.01200428    -0.13969442    -0.00001588    -0.00007182    -0.00041326
N        -0.04250093    -0.08210274     1.43185481    -0.00006562    -0.00012049     0.00034877
H         0.96816654     0.20130270    -0.57540772    -0.00030945     0.00068182    -0.00021232
H         0.85771462     0.03192116     1.90276459     0.00039488     0.00068471     0.00057461
H        -0.98374906     0.09257249     1.87986620     0.00060345     0.00064204     0.00000593
H        -0.99395664     0.28839476    -0.54814386     0.00041223     0.00052171    -0.00029045
     6
  Step:    42            Position(A)                                  Velocity(au)
C        -0.03955007    -0.01240501    -0.14193824    -0.00000802    -0.00007256    -0.00039404
N        -0.04288662    -0.08277711     1.43375059    -0.00007173    -0.00012228     0.00033357
H         0.96632963     0.20509082    -0.57652944    -0.00034740     0.00068601    -0.00019141
H         0.85997848     0.03575369     1.90603840     0.00041193     0.00069017     0.00060042
H        -0.98015166     0.09617601     1.87984261     0.00068308     0.00066013    -0.00001211
H        -0.99185112     0.29131709    -0.54987935     0.00034479     0.00052747    -0.00033693
     6
  Step:    43            Position(A)                                  Velocity(au)
C        -0.03957457    -0.01281032    -0.14407197    -0.00000258    -0.00007396    -0.00037100
N        -0.04329779    -0.08346115     1.43556058    -0.00007407    -0.00012377     0.00031609
H         0.96430714     0.20892377    -0.57753418    -0.00037030     0.00070692    -0.00017092
H         0.86229083     0.03958844     1.90943482     0.00041186     0.00067760     0.00062158
H        -0.97616056     0.09990609     1.87973166     0.00074382     0.00069409    -0.00002672
H        -0.99012623     0.29425462    -0.55188693     0.00027467     0.00052258    -0.00039560
     6
  Step:    44            Position(A)                                  Velocity(au)
C        -0.03957875    -0.01322637    -0.14605856    -0.00000100    -0.00008426    -0.00033670
N        -0.04370922    -0.08415165     1.43726107    -0.00007547    -0.00012851     0.00029403
H         0.96221714     0.21294181    -0.57842761    -0.00036360     0.00080152    -0.00019032
H         0.86455259     0.04327900     1.91294156     0.00041754     0.00066587     0.00067793
H        -0.97189088     0.10388446     1.87954585     0.00081861     0.00077291    -0.00003561
H        -0.98880064     0.29712076    -0.55427280     0.00018821     0.00054968    -0.00052574
     6