|===============================================================================
|
|  DFTB+ release 20.1
|
|  Copyright (C) 2006 - 2020  DFTB+ developers group
|
|===============================================================================
|
|  When publishing results obtained with DFTB+, please cite the following
|  reference:
|
|  * DFTB+, a software package for efficient approximate density functional
|    theory based atomistic simulations, J. Chem. Phys. 152, 124101 (2020).
|    [doi: 10.1063/1.5143190]
|
|  You should also cite additional publications crediting the parametrization
|  data you use. Please consult the documentation of the SK-files for the
|  references.
|
|===============================================================================

Reading input file 'dftb_in.hsd'
Parser version: 8

--------------------------------------------------------------------------------
Reading SK-files:
Done.


Processed input in HSD format written to 'dftb_pin.hsd'

Starting initialization...
--------------------------------------------------------------------------------
OpenMP threads:              1
Chosen random seed:          509435050
Mode:                        Static calculation
Self consistent charges:     Yes
SCC-tolerance:                 0.100000E-05
Max. scc iterations:                   1000
Shell resolved Hubbard:      No
Spin polarisation:           No
Nr. of up electrons:             6.000000
Nr. of down electrons:           6.000000
Periodic boundaries:         No
Electronic solver:           Relatively robust
Maximal SCC-cycles:                    1000
Initial charges:             Set automatically (system chrg:   0.100E+01)
Included shells:             C:  s, p
                             N:  s, p
                             H:  s
Spin coupling constants:     C   1(s)-1(s):  -0.455900E-01
                             C   1(s)-2(p):  -0.293000E-01
                             C   2(p)-1(s):  -0.293000E-01
                             C   2(p)-2(p):  -0.275500E-01
                             N   1(s)-1(s):  -0.468700E-01
                             N   1(s)-2(p):  -0.317000E-01
                             N   2(p)-1(s):  -0.317000E-01
                             N   2(p)-2(p):  -0.307200E-01
                             H   1(s)-1(s):  -0.792500E-01
Range separated hybrid:      Yes
  Screening parameter omega:   0.300000E+00
  Range separated algorithm:   MatrixBased
Extra options:
                             Mulliken analysis
                             Force calculation
Force type                   original
                             Eigenvector printing


REKS Calcuation:             Yes
SSR(2,2) Calcuation:         Yes
Energy Functional:           (PPS+OSS)/2
Number of Core Orbitals:                  5
Number of Active Orbitals:                2
Number of Basis:                         12
Number of States:                         2
State-Averaging Weight:          0.500000
                                 0.500000
State of Interest:                        1
Initial Guess:               Diagonalize H0 matrix
Newton-Raphson for FON opt:  Yes
NR max. Iterations:                      50
Level Shifting:              Yes
Shift Value:                     0.300000
W Scale Factor:              C  =    3.000000
                             N  =    3.000000
                             H  =    3.000000
Transition Dipole:           No
Gradient of Microstate:      No
CP-REKS Solver:              Preconditioned Conjugate-Gradient
CG max. Iterations:                     100
CG Tolerance:                  0.100000E-07
Memory for A and Hxc:        Direct Updating Without Saving
Non-Adiabatic Coupling:      Yes

--------------------------------------------------------------------------------

***  Geometry step: 0

  iSCC       reks energy        Diff energy         x_a       SCC error   
    1       -6.2588562973       0.0000000000     0.999626    1.18162208
    2       -6.2717903797      -0.0129340824     0.999843    0.09550830
    3       -6.2768797895      -0.0050894098     0.999915    0.04224166
    4       -6.2799644981      -0.0030847086     0.999946    0.02078392
    5       -6.2819203403      -0.0019558422     0.999961    0.01109949
    6       -6.2831261738      -0.0012058335     0.999969    0.01021777
    7       -6.2838407293      -0.0007145555     0.999973    0.00867921
    8       -6.2842501274      -0.0004093981     0.999975    0.00700389
    9       -6.2844791078      -0.0002289804     0.999976    0.00546338
   10       -6.2846052222      -0.0001261143     0.999977    0.00416560
   11       -6.2846740825      -0.0000688603     0.999977    0.00312737
   12       -6.2847115441      -0.0000374616     0.999977    0.00232334
   13       -6.2847319259      -0.0000203818     0.999977    0.00171370
   14       -6.2847430477      -0.0000111219     0.999977    0.00125793
   15       -6.2847491482      -0.0000061004     0.999977    0.00092043
   16       -6.2847525174      -0.0000033693     0.999977    0.00067215
   17       -6.2847543937      -0.0000018762     0.999977    0.00049031
   18       -6.2847554481      -0.0000010544     0.999977    0.00035751
   19       -6.2847560465      -0.0000005984     0.999977    0.00028147
   20       -6.2847563894      -0.0000003430     0.999977    0.00022809
   21       -6.2847565880      -0.0000001985     0.999977    0.00018432
   22       -6.2847567040      -0.0000001160     0.999977    0.00014860
   23       -6.2847567725      -0.0000000684     0.999977    0.00011955
   24       -6.2847568131      -0.0000000407     0.999977    0.00009600
   25       -6.2847568375      -0.0000000244     0.999977    0.00007696
   26       -6.2847568522      -0.0000000147     0.999977    0.00006161
   27       -6.2847568612      -0.0000000089     0.999977    0.00004926
   28       -6.2847568666      -0.0000000054     0.999977    0.00003934
   29       -6.2847568699      -0.0000000033     0.999977    0.00003138
   30       -6.2847568720      -0.0000000020     0.999977    0.00002501
   31       -6.2847568732      -0.0000000013     0.999977    0.00001992
   32       -6.2847568740      -0.0000000008     0.999977    0.00001585
   33       -6.2847568745      -0.0000000005     0.999977    0.00001261
   34       -6.2847568748      -0.0000000003     0.999977    0.00001002
   35       -6.2847568750      -0.0000000002     0.999977    0.00000796
   36       -6.2847568751      -0.0000000001     0.999977    0.00000632
   37       -6.2847568752      -0.0000000001     0.999977    0.00000502
   38       -6.2847568752      -0.0000000000     0.999977    0.00000398
   39       -6.2847568753      -0.0000000000     0.999977    0.00000316
   40       -6.2847568753      -0.0000000000     0.999977    0.00000250
   41       -6.2847568753      -0.0000000000     0.999977    0.00000199
   42       -6.2847568753      -0.0000000000     0.999977    0.00000157
   43       -6.2847568753      -0.0000000000     0.999977    0.00000125
   44       -6.2847568753      -0.0000000000     0.999977    0.00000099
  
--------------------------------------------------
 Final SA-REKS(2,2) energy:      -6.28475688
  
 State     Energy      FON(1)    FON(2)   Spin
  PPS   -6.41608166   1.999954  0.000046  0.00
  OSS   -6.15343210   1.000000  1.000000  0.00
 Trip   -6.23052683   1.000000  1.000000  1.00
--------------------------------------------------

 Lagrangian Wab:   0.00112554  0.00112548

--------------------------------------------------
 SSR: 2SI-2SA-REKS(2,2) Hamiltonian matrix
               PPS           OSS
   PPS    -6.41608166    0.00158409
   OSS     0.00158409   -6.15343210
--------------------------------------------------

----------------------------------------------------------------
 SSR: 2SI-2SA-REKS(2,2) states
                    E_n       C_{PPS}    C_{OSS}
 SSR state  1   -6.41609121  -0.999982   0.006031
 SSR state  2   -6.15342254  -0.006031  -0.999982
----------------------------------------------------------------

 unrelaxed SSR FONs for S0:  1.999918  0.000082

Total Energy:                       -6.4160912087 H         -174.5907 eV
Extrapolated to 0:                  -6.4160912087 H         -174.5907 eV

----------------------------------------------------------------------------------
 Solving CP-REKS equation for  1 state vector...
----------------------------------------------------------------------------------
  CG solver: Constructing Y initial guess
  CG solver: Iteration    1    eps =    0.000025520644
  CG solver: Iteration    2    eps =    0.000001592892
  CG solver: Iteration    3    eps =    0.000000217955
  CG solver: Iteration    4    eps =    0.000000003869
  Convergence reached in CG solver after    4 iterations
  CG solver: Calculating converged R, Z, Q2 matrix
----------------------------------------------------------------------------------

----------------------------------------------------------------------------------
 Solving CP-REKS equation for SI between  1 and  2 state vectors...
----------------------------------------------------------------------------------
  CG solver: Constructing Y initial guess
  CG solver: Iteration    1    eps =    0.000395965258
  CG solver: Iteration    2    eps =    0.000156470616
  CG solver: Iteration    3    eps =    0.000049735379
  CG solver: Iteration    4    eps =    0.000001011402
  CG solver: Iteration    5    eps =    0.000000096710
  CG solver: Iteration    6    eps =    0.000000003469
  Convergence reached in CG solver after    6 iterations
  CG solver: Calculating converged R, Z, Q2 matrix
----------------------------------------------------------------------------------

--------------------------------------------------
 Gradient Information
--------------------------------------------------
           1 st state (SSR)
    -0.01253237    -0.00712441     0.00539589
     0.02027721    -0.00617522    -0.01612298
     0.00583633    -0.00192398     0.00316562
    -0.00365084     0.00580180    -0.00181896
    -0.00878506    -0.00001968     0.00334931
    -0.00114527     0.00944148     0.00603111

           2 st state (SSR)
     0.00864925    -0.00475457     0.11499182
    -0.01083070     0.00405015    -0.14038004
    -0.00678985     0.00856341     0.02044984
     0.00235642    -0.00450887    -0.00983340
     0.00631741     0.00620366    -0.00545808
     0.00029747    -0.00955378     0.02022986
--------------------------------------------------
 Coupling Information
--------------------------------------------------
 between  1 and  2 states
--------------------------------------------------
 g vector - difference gradient
    -0.01059417    -0.00109710    -0.05480552
     0.01558399    -0.00519892     0.06213594
     0.00637812    -0.00526354    -0.00864229
    -0.00294047     0.00518760     0.00401909
    -0.00763244    -0.00309188     0.00439700
    -0.00079502     0.00946384    -0.00710422

 h vector - derivative coupling
    -0.00021511     0.00728740    -0.00029533
     0.00239628    -0.00711803     0.00023887
     0.00535264    -0.00161336     0.00003674
     0.00525448     0.00264377     0.00095978
    -0.00668698     0.00165910    -0.00058135
    -0.00610132    -0.00285889    -0.00035870

 G vector - GDV
    -0.01059081    -0.00118492    -0.05479797
     0.01555395    -0.00511268     0.06212853
     0.00631309    -0.00524370    -0.00864211
    -0.00300363     0.00515534     0.00400722
    -0.00755123    -0.00311167     0.00440369
    -0.00072137     0.00949763    -0.00709937

 H vector - DCV - non-adiabatic coupling
    -0.00130535     0.02769131    -0.00364090
     0.00983778    -0.02733566     0.00376256
     0.02066932    -0.00638342    -0.00025698
     0.01986774     0.01030253     0.00383824
    -0.02580646     0.00617390    -0.00201119
    -0.02326303    -0.01044866    -0.00169173
--------------------------------------------------


--------------------------------------------------------------------------------
DFTB+ running times                          cpu [s]             wall clock [s]
--------------------------------------------------------------------------------
SCC                                    +     0.02  ( 67.3%)      0.02  ( 60.5%)
Post-SCC processing                    +     0.01  ( 28.1%)      0.01  ( 26.3%)
--------------------------------------------------------------------------------
Missing                                +     0.00  (  4.5%)      0.00  ( 13.2%)
Total                                  =     0.03  (100.0%)      0.04  (100.0%)
--------------------------------------------------------------------------------
