     6
  Step:   120            Position(A)                                  Velocity(au)
C        -0.03579912    -0.01517046    -0.06153540     0.00006388    -0.00000455     0.00061158
N        -0.05941229    -0.11026582     1.37393526    -0.00008507     0.00008386    -0.00054829
H         0.71135472     0.73173329    -0.44595631    -0.00118965     0.00118248     0.00062693
H         0.80508923    -0.29141316     1.93837969    -0.00035726    -0.00162172    -0.00009723
H        -0.55393320     0.75210717     1.75197055     0.00154585     0.00098442    -0.00045370
H        -0.92323068    -0.14912786    -0.71179093     0.00042202    -0.00165635     0.00025564
