 Fermi distribution function

Calculation with static geometry


********************************************************************************
 iSCC Total electronic   Diff electronic      SCC error    
   10   -0.54063915E+01   -0.31796787E-12    0.52303106E-07
********************************************************************************

 Total charge:     1.00000000

 Atomic gross charges (e)
 Atom           Charge
    1       0.16216481
    2      -0.04805952
    3       0.17995439
    4       0.27118273
    5       0.27563274
    6       0.15912484

Nr. of electrons (up):     12.00000000
Atom populations (up)
 Atom       Population
    1       3.83783519
    2       5.04805952
    3       0.82004561
    4       0.72881727
    5       0.72436726
    6       0.84087516

l-shell populations (up)
 Atom Sh.   l       Population
    1   1   0       1.32112765
    1   2   1       2.51670754
    2   1   0       1.42959769
    2   2   1       3.61846183
    3   1   0       0.82004561
    4   1   0       0.72881727
    5   1   0       0.72436726
    6   1   0       0.84087516

Orbital populations (up)
 Atom Sh.   l   m       Population  Label
    1   1   0   0       1.32112765  s
    1   2   1  -1       0.60992406  p_y
    1   2   1   0       0.87135961  p_z
    1   2   1   1       1.03542387  p_x
    2   1   0   0       1.42959769  s
    2   2   1  -1       1.34122093  p_y
    2   2   1   0       1.11751295  p_z
    2   2   1   1       1.15972795  p_x
    3   1   0   0       0.82004561  s
    4   1   0   0       0.72881727  s
    5   1   0   0       0.72436726  s
    6   1   0   0       0.84087516  s

Fermi level:                        -0.4996688358 H          -13.5967 eV
Band energy:                        -8.9183784007 H         -242.6814 eV
TS:                                  0.0000000000 H            0.0000 eV
Band free energy (E-TS):            -8.9183784007 H         -242.6814 eV
Extrapolated E(0K):                 -8.9183784007 H         -242.6814 eV
Input / Output electrons (q):     12.0000000000     12.0000000000

Energy H0:                          -5.5396792924 H         -150.7423 eV
Energy SCC:                          0.1332878204 H            3.6269 eV
Total Electronic energy:            -5.4063914720 H         -147.1154 eV
Repulsive energy:                    0.1773489533 H            4.8259 eV
Total energy:                       -5.2290425187 H         -142.2895 eV
Extrapolated to 0:                  -5.2290425187 H         -142.2895 eV
Total Mermin free energy:           -5.2290425187 H         -142.2895 eV
Force related energy:               -5.2290425187 H         -142.2895 eV

SCC converged

Excitation Energy:                   0.1552709102 H            4.2251 eV

Total Forces
    1      0.007615256232     -0.002821256969      0.051870825369
    2      0.017181830356     -0.000363116759     -0.049035176107
    3     -0.010353563244     -0.003416560470      0.001438035307
    4     -0.018046229935      0.007841555454     -0.004261838516
    5      0.002202925004     -0.003983036145      0.002417433973
    6      0.001399781588      0.002742414890     -0.002429280026

Maximal derivative component:        0.518708E-01 au


