     6
  Step:     0            Position(A)                                  Velocity(au)
C        -0.03833835     0.01638033     0.03560769     0.00011100     0.00003450     0.00008285
N        -0.04208662    -0.03776158     1.28168926    -0.00014984     0.00000277    -0.00003051
H         0.93968303    -0.02670484    -0.53917052    -0.00069167    -0.00003894    -0.00006957
H         0.80801383    -0.22431482     1.84890214     0.00130791    -0.00035838     0.00081502
H        -0.92771016    -0.11954114     1.86392314     0.00071513     0.00022405    -0.00114341
H        -0.99123199     0.03034114    -0.51672123    -0.00057181    -0.00027631    -0.00016530
     6
  Step:     1            Position(A)                                  Velocity(au)
C        -0.03771709     0.01657698     0.03581214     0.00011579     0.00003745    -0.00000827
N        -0.04291794    -0.03775145     1.28176888    -0.00015239     0.00000076     0.00005981
H         0.93576485    -0.02689709    -0.53961335    -0.00073800    -0.00003147    -0.00009447
H         0.81511378    -0.22631532     1.85335582     0.00127250    -0.00036973     0.00080267
H        -0.92354080    -0.11831305     1.85750593     0.00079813     0.00022387    -0.00119399
H        -0.99443371     0.02882188    -0.51785743    -0.00059466    -0.00027952    -0.00024676
     6
  Step:     2            Position(A)                                  Velocity(au)
C        -0.03707179     0.01678997     0.03551724     0.00011975     0.00004045    -0.00009910
N        -0.04375356    -0.03775323     1.28234343    -0.00015140    -0.00000153     0.00014975
H         0.93161052    -0.02704902    -0.54020382    -0.00077742    -0.00002421    -0.00012388
H         0.82193281    -0.22835904     1.85768198     0.00120687    -0.00037450     0.00076960
H        -0.91897994    -0.11709241     1.85086296     0.00085630     0.00022116    -0.00122458
H        -0.99773651     0.02728366    -0.51942032    -0.00060882    -0.00028318    -0.00032126
     6
  Step:     3            Position(A)                                  Velocity(au)
C        -0.03640718     0.01701940     0.03472814     0.00012277     0.00004341    -0.00018826
N        -0.04457403    -0.03776815     1.28340695    -0.00014679    -0.00000398     0.00023780
H         0.92726085    -0.02716189    -0.54096842    -0.00080854    -0.00001719    -0.00015839
H         0.82831542    -0.23041193     1.86177431     0.00111431    -0.00037330     0.00071822
H        -0.91417395    -0.11589382     1.84411046     0.00088557     0.00021558    -0.00123237
H        -1.00109342     0.02572426    -0.52137164    -0.00061433    -0.00028710    -0.00038863
     6
  Step:     4            Position(A)                                  Velocity(au)
C        -0.03572857     0.01726497     0.03345739     0.00012471     0.00004628    -0.00027433
N        -0.04535967    -0.03779677     1.28494526    -0.00013855    -0.00000648     0.00032237
H         0.92276413    -0.02723711    -0.54193681    -0.00082990    -0.00001045    -0.00019849
H         0.83412471    -0.23244338     1.86554018     0.00099825    -0.00036671     0.00065106
H        -0.90929068    -0.11473366     1.83737932     0.00088221     0.00020682    -0.00121478
H        -1.00445804     0.02414244    -0.52367246    -0.00061127    -0.00029106    -0.00044868
     6
  Step:     5            Position(A)                                  Velocity(au)
C        -0.03504204     0.01752596     0.03172526     0.00012544     0.00004895    -0.00035578
N        -0.04609066    -0.03783905     1.28693575    -0.00012668    -0.00000891     0.00040185
H         0.91817653    -0.02727626    -0.54314115    -0.00084004    -0.00000402    -0.00024450
H         0.83924257    -0.23442603     1.86890099     0.00086226    -0.00035532     0.00057076
H        -0.90451702    -0.11362993     1.83081306     0.00084311     0.00019461    -0.00116982
H        -1.00778458     0.02253819    -0.52628298    -0.00059976    -0.00029481    -0.00050116
     6
  Step:     6            Position(A)                                  Velocity(au)
C        -0.03435441     0.01780122     0.02955994     0.00012481     0.00005135    -0.00043111
N        -0.04674735    -0.03789432     1.28934734    -0.00011126    -0.00001115     0.00047464
H         0.91356194    -0.02728114    -0.54461513    -0.00083759     0.00000205    -0.00029650
H         0.84357039    -0.23633580     1.87179258     0.00071012    -0.00033976     0.00048009
H        -0.90005478    -0.11260184     1.82456444     0.00076633     0.00017881    -0.00109638
H        -1.01102812     0.02091289    -0.52916239    -0.00058000    -0.00029808    -0.00054583
     6
  Step:     7            Position(A)                                  Velocity(au)
C        -0.03367331     0.01808913     0.02699759     0.00012269     0.00005340    -0.00049882
N        -0.04731077    -0.03796133     1.29214076    -0.00009252    -0.00001311     0.00053923
H         0.90899134    -0.02725379    -0.54639268    -0.00082140     0.00000770    -0.00035433
H         0.84702992    -0.23815194     1.87416583     0.00054583    -0.00032066     0.00038196
H        -0.89611326    -0.11166908     1.81878991     0.00065160     0.00015944    -0.00099458
H        -1.01414499     0.01926942    -0.53226874    -0.00055229    -0.00030057    -0.00058247
     6
  Step:     8            Position(A)                                  Velocity(au)
C        -0.03300708     0.01838766     0.02408199     0.00011896     0.00005501    -0.00055754
N        -0.04776338    -0.03803833     1.29526910    -0.00007083    -0.00001471     0.00059430
H         0.90454149    -0.02719653    -0.54850635    -0.00079069     0.00001290    -0.00041747
H         0.84956457    -0.23985725     1.87598723     0.00037368    -0.00029873     0.00027940
H        -0.89289903    -0.11085090     1.81364218     0.00050081     0.00013672    -0.00086610
H        -1.01709330     0.01761215    -0.53555894    -0.00051709    -0.00030201    -0.00061085
     6
  Step:     9            Position(A)                                  Velocity(au)
C        -0.03236459     0.01869435     0.02086397     0.00011357     0.00005612    -0.00060605
N        -0.04808997    -0.03812315     1.29867886    -0.00004675    -0.00001587     0.00063875
H         0.90029276    -0.02711191    -0.55098535    -0.00074519     0.00001759    -0.00048499
H         0.85114087    -0.24143835     1.87723960     0.00019824    -0.00027473     0.00017556
H        -0.89060366    -0.11016499     1.80926166     0.00031832     0.00011109    -0.00071431
H        -1.01983364     0.01594697    -0.53898888    -0.00047498    -0.00030214    -0.00063084
     6
  Step:    10            Position(A)                                  Velocity(au)
C        -0.03175499     0.01900638     0.01740040     0.00010652     0.00005667    -0.00064343
N        -0.04827882    -0.03821329     1.30231121    -0.00002106    -0.00001655     0.00067181
H         0.89632597    -0.02700265    -0.55385324    -0.00068532     0.00002175    -0.00055557
H         0.85175014    -0.24288611     1.87792275     0.00002435    -0.00024952     0.00007369
H        -0.88938963    -0.10962614     1.80576704     0.00011106     0.00008324    -0.00054429
H        -1.02232988     0.01428108    -0.54251380    -0.00042675    -0.00030077    -0.00064241
     6
  Step:    11            Position(A)                                  Velocity(au)
C        -0.03118733     0.01932067     0.01375274     0.00009789     0.00005662    -0.00066907
N        -0.04832271    -0.03830604     1.30610376     0.00000531    -0.00001672     0.00069309
H         0.89271858    -0.02687154    -0.55712556    -0.00061225     0.00002539    -0.00062750
H         0.85141003    -0.24419609     1.87805404    -0.00014300    -0.00022403    -0.00002295
H        -0.88937624    -0.10924503     1.80324617    -0.00011171     0.00005405    -0.00036258
H        -1.02455013     0.01262280    -0.54608888    -0.00037335    -0.00029775    -0.00064571
     6
  Step:    12            Position(A)                                  Velocity(au)
C        -0.03067010     0.01963392     0.00998517     0.00008785     0.00005597    -0.00068284
N        -0.04821991    -0.03839860     1.30999263     0.00003130    -0.00001638     0.00070268
H         0.88954049    -0.02672129    -0.56080772    -0.00052796     0.00002853    -0.00069880
H         0.85016534    -0.24536905     1.87766843    -0.00029886    -0.00019927    -0.00011121
H        -0.89062771    -0.10902712     1.80174865    -0.00033906     0.00002456    -0.00017677
H        -1.02646766     0.01098119    -0.54967009    -0.00031591    -0.00029302    -0.00064110
     6
  Step:    13            Position(A)                                  Velocity(au)
C        -0.03021081     0.01994280     0.00616215     0.00007665     0.00005472    -0.00068512
N        -0.04797472    -0.03848818     1.31391485     0.00005582    -0.00001556     0.00070116
H         0.88684962    -0.02655439    -0.56489353    -0.00043517     0.00003124    -0.00076742
H         0.84808779    -0.24641124     1.87681781    -0.00043865    -0.00017628    -0.00018824
H        -0.89314533    -0.10897198     1.80128120    -0.00055944    -0.00000412     0.00000523
H        -1.02806191     0.00936556    -0.55321547    -0.00025574    -0.00028666    -0.00062926
     6
  Step:    14            Position(A)                                  Velocity(au)
C        -0.02981545     0.02024411     0.00234565     0.00006462     0.00005295    -0.00067689
N        -0.04759749    -0.03857212     1.31781104     0.00007785    -0.00001429     0.00068970
H         0.88468806    -0.02637293    -0.56936494    -0.00033714     0.00003362    -0.00083156
H         0.84527408    -0.24733470     1.87556940    -0.00055850    -0.00015611    -0.00025170
H        -0.89686583    -0.10907306     1.80180700    -0.00076196    -0.00003096     0.00017600
H        -1.02931938     0.00778477    -0.55668675    -0.00019423    -0.00027890    -0.00061124
     6
  Step:    15            Position(A)                                  Velocity(au)
C        -0.02948812     0.02053495    -0.00140809     0.00005215     0.00005073    -0.00065976
N        -0.04710406    -0.03864797     1.32162837     0.00009659    -0.00001262     0.00067001
H         0.88307910    -0.02617836    -0.57419348    -0.00023741     0.00003580    -0.00088997
H         0.84184163    -0.24815717     1.87400282    -0.00065573    -0.00013976    -0.00029999
H        -0.90166696    -0.10931826     1.80324955    -0.00093771    -0.00005509     0.00032944
H        -1.03023414     0.00624640    -0.56005141    -0.00013275    -0.00027013    -0.00058846
     6
  Step:    16            Position(A)                                  Velocity(au)
C        -0.02923076     0.02081293    -0.00505178     0.00003961     0.00004820    -0.00063580
N        -0.04651453    -0.03871359     1.32532340     0.00011153    -0.00001061     0.00064419
H         0.88202611    -0.02597150    -0.57934354    -0.00013937     0.00003795    -0.00094221
H         0.83792190    -0.24890176     1.87220588    -0.00072908    -0.00012812    -0.00033234
H        -0.90737963    -0.10969075     1.80550080    -0.00108087    -0.00007593     0.00046152
H        -1.03080781     0.00475605    -0.56328468    -0.00007249    -0.00026088    -0.00056263
     6
  Step:    17            Position(A)                                  Velocity(au)
C        -0.02904321     0.02107637    -0.00854964     0.00002734     0.00004549    -0.00060730
N        -0.04585135    -0.03876710     1.32886415     0.00012249    -0.00000830     0.00061449
H         0.88151362    -0.02575206    -0.58477669    -0.00004585     0.00004028    -0.00098862
H         0.83365229    -0.24959628     1.87026983    -0.00077874    -0.00012192    -0.00034882
H        -0.91380765    -0.11017118     1.80843351    -0.00118910    -0.00009328     0.00057050
H        -1.03104831     0.00331609    -0.56637110    -0.00001426    -0.00025181    -0.00053558
     6
  Step:    18            Position(A)                                  Velocity(au)
C        -0.02892345     0.02132429    -0.01187843     0.00001558     0.00004272    -0.00057641
N        -0.04513760    -0.03880688     1.33223084     0.00012956    -0.00000573     0.00058296
H         0.88151067    -0.02551868    -0.59045653     0.00004110     0.00004300    -0.00103013
H         0.82916813    -0.25027228     1.86828478    -0.00080586    -0.00012174    -0.00035002
H        -0.92074623    -0.11073928     1.81191375    -0.00126283    -0.00010718     0.00065663
H        -1.03096812     0.00192547    -0.56930511     0.00004151    -0.00024350    -0.00050896
     6
  Step:    19            Position(A)                                  Velocity(au)
C        -0.02886817     0.02155642    -0.01502664     0.00000448     0.00003998    -0.00054484
N        -0.04439548    -0.03883150     1.33541474     0.00013298    -0.00000291     0.00055118
H         0.88197546    -0.02526887    -0.59635195     0.00012024     0.00004630    -0.00106777
H         0.82459711    -0.25096419     1.86633670    -0.00081200    -0.00012798    -0.00033675
H        -0.92799774    -0.11137551     1.81581187    -0.00130423    -0.00011788     0.00072147
H        -1.03058191     0.00057990    -0.57209011     0.00009479    -0.00023642    -0.00048403
     6
  Step:    20            Position(A)                                  Velocity(au)
C        -0.02887324     0.02177293    -0.01799198    -0.00000590     0.00003732    -0.00051365
N        -0.04364549    -0.03883954     1.33841556     0.00013300     0.00000017     0.00052007
H         0.88285984    -0.02499910    -0.60243783     0.00019086     0.00005037    -0.00110218
H         0.82005676    -0.25170828     1.86450613    -0.00079863    -0.00014091    -0.00030976
H        -0.93538089    -0.11206198     1.82000930    -0.00131600    -0.00012568     0.00076708
H        -1.02990453    -0.00072742    -0.57473640     0.00014576    -0.00023084    -0.00046159
     6
  Step:    21            Position(A)                                  Velocity(au)
C        -0.02893419     0.02197428    -0.02077791    -0.00001550     0.00003474    -0.00048333
N        -0.04290626    -0.03882959     1.34123794     0.00012989     0.00000353     0.00048998
H         0.88411250    -0.02470491    -0.60869297     0.00025253     0.00005532    -0.00113337
H         0.81565492    -0.25254189     1.86286831    -0.00076687    -0.00016066    -0.00026970
H        -0.94273279    -0.11278278     1.82440076    -0.00130056    -0.00013087     0.00079541
H        -1.02894983    -0.00200475    -0.57725843     0.00019465    -0.00022681    -0.00044192
     6
  Step:    22            Position(A)                                  Velocity(au)
C        -0.02904638     0.02216095    -0.02339039    -0.00002521     0.00003395    -0.00050204
N        -0.04219475    -0.03880011     1.34388826     0.00012344     0.00000679     0.00049813
H         0.88568035    -0.02438121    -0.61509660     0.00028638     0.00010401    -0.00111654
H         0.81149148    -0.25350273     1.86149380    -0.00073945    -0.00023974    -0.00024032
H        -0.94990703    -0.11352369     1.82889338    -0.00123949    -0.00009161     0.00080322
H        -1.02773045    -0.00326071    -0.57967229     0.00027765    -0.00027165    -0.00038626
     6
  Step:    23            Position(A)                                  Velocity(au)
C        -0.02921511     0.02235262    -0.02637224    -0.00003501     0.00003502    -0.00057014
N        -0.04153077    -0.03875387     1.34678874     0.00011372     0.00000974     0.00054486
H         0.88730367    -0.02354585    -0.62113485     0.00029198     0.00018712    -0.00104995
H         0.80741502    -0.25521340     1.86019035    -0.00071588    -0.00036696    -0.00022225
H        -0.95654480    -0.11380364     1.83335124    -0.00113283    -0.00001717     0.00078868
H        -1.02585593    -0.00503187    -0.58156268     0.00039373    -0.00035571    -0.00029421
     6
  Step:    24            Position(A)                                  Velocity(au)
C        -0.02943591     0.02255058    -0.02973308    -0.00004385     0.00003615    -0.00063740
N        -0.04092969    -0.03869173     1.34994970     0.00010117     0.00001270     0.00059107
H         0.88892860    -0.02229953    -0.62677711     0.00028856     0.00025602    -0.00097742
H         0.80352742    -0.25758509     1.85902134    -0.00067271    -0.00048264    -0.00019214
H        -0.96250954    -0.11371469     1.83766732    -0.00100258     0.00004458     0.00075676
H        -1.02335029    -0.00721787    -0.58294535     0.00050333    -0.00042523    -0.00020564
     6
  Step:    25            Position(A)                                  Velocity(au)
C        -0.02970253     0.02275447    -0.03345749    -0.00005143     0.00003712    -0.00070023
N        -0.04040616    -0.03861269     1.35335901     0.00008604     0.00001588     0.00063361
H         0.89051133    -0.02069995    -0.63199980     0.00027765     0.00031580    -0.00089998
H         0.79993727    -0.26057837     1.85805457    -0.00060965    -0.00059229    -0.00014992
H        -0.96768945    -0.11330810     1.84176332    -0.00085323     0.00009848     0.00071158
H        -1.02026097    -0.00975867    -0.58384855     0.00060244    -0.00048497    -0.00012266
     6
  Step:    26            Position(A)                                  Velocity(au)
C        -0.03000761     0.02296322    -0.03751676    -0.00005756     0.00003783    -0.00075644
N        -0.03997327    -0.03851523     1.35699291     0.00006872     0.00001933     0.00067066
H         0.89201495    -0.01878916    -0.63678125     0.00026050     0.00036841    -0.00081832
H         0.79675056    -0.26416898     1.85735483    -0.00052808    -0.00069744    -0.00009670
H        -0.97199398    -0.11262001     1.84557719    -0.00068922     0.00014640     0.00065604
H        -1.01665359    -0.01260879    -0.58430888     0.00068770    -0.00053680    -0.00004701
     6
  Step:    27            Position(A)                                  Velocity(au)
C        -0.03034277     0.02317531    -0.04187199    -0.00006205     0.00003822    -0.00080437
N        -0.03964174    -0.03839766     1.36081933     0.00004975     0.00002305     0.00070092
H         0.89340911    -0.01660182    -0.64110265     0.00023841     0.00041479    -0.00073337
H         0.79406297    -0.26833654     1.85697890    -0.00043076    -0.00079809    -0.00003444
H        -0.97535623    -0.11167959     1.84906097    -0.00051553     0.00018916     0.00059288
H        -1.01261113    -0.01572989    -0.58437145     0.00075598    -0.00058160     0.00001963
     6
  Step:    28            Position(A)                                  Velocity(au)
C        -0.03069878     0.02338893    -0.04647619    -0.00006480     0.00003825    -0.00084281
N        -0.03941915    -0.03825848     1.36480006     0.00002979     0.00002699     0.00072354
H         0.89467044    -0.01416909    -0.64494980     0.00021274     0.00045539    -0.00064638
H         0.79195260    -0.27305846     1.85697119    -0.00032170    -0.00089347     0.00003416
H        -0.97773617    -0.11051302     1.85218089    -0.00033756     0.00022711     0.00052488
H        -1.00823315    -0.01908687    -0.58409021     0.00080460    -0.00061990     0.00007565
     6
  Step:    29            Position(A)                                  Velocity(au)
C        -0.03106578     0.02360215    -0.05127626    -0.00006571     0.00003793    -0.00087100
N        -0.03930928    -0.03809651     1.36889283     0.00000960     0.00003106     0.00073813
H         0.89578291    -0.01152043    -0.64831512     0.00018492     0.00049051    -0.00055889
H         0.79047331    -0.27830610     1.85736010    -0.00020594    -0.00098234     0.00010592
H        -0.97912284    -0.10914543     1.85491768    -0.00016091     0.00026035     0.00045485
H        -1.00363322    -0.02264692    -0.58352727     0.00083154    -0.00065217     0.00011973
     6
  Step:    30            Position(A)                                  Velocity(au)
C        -0.03143358     0.02381309    -0.05621551    -0.00006481     0.00003729    -0.00088877
N        -0.03931177    -0.03791116     1.37305362    -0.00001005     0.00003516     0.00074475
H         0.89673813    -0.00868427    -0.65119915     0.00015638     0.00052044    -0.00047260
H         0.78964983    -0.28404283     1.85815561    -0.00008906    -0.00106344     0.00017742
H        -0.97953545    -0.10760178     1.85726691     0.00000894     0.00028898     0.00038559
H        -0.99893499    -0.02637934    -0.58275146     0.00083573    -0.00067895     0.00015091
     6
  Step:    31            Position(A)                                  Velocity(au)
C        -0.03179208     0.02402004    -0.06123665    -0.00006216     0.00003637    -0.00089651
N        -0.03942196    -0.03770243     1.37723919    -0.00002844     0.00003919     0.00074395
H         0.89753546    -0.00568787    -0.65361154     0.00012852     0.00054558    -0.00038926
H         0.78947522    -0.29022409     1.85934850     0.00002331    -0.00113571     0.00024537
H        -0.97902267    -0.10590680     1.85923899     0.00016695     0.00031312     0.00031977
H        -0.99426724    -0.03025596    -0.58183606     0.00081705    -0.00070098     0.00016875
     6
  Step:    32            Position(A)                                  Velocity(au)
C        -0.03213171     0.02422156    -0.06628488    -0.00005791     0.00003524    -0.00089517
N        -0.03963116    -0.03747095     1.38140950    -0.00004490     0.00004306     0.00073669
H         0.89818164    -0.00255644    -0.65557118     0.00010260     0.00056654    -0.00031047
H         0.78991167    -0.29679881     1.86091150     0.00012606    -0.00119855     0.00030688
H        -0.97766029    -0.10408494     1.86085843     0.00030886     0.00033300     0.00025978
H        -0.98975814    -0.03425258    -0.58085608     0.00077646    -0.00071924     0.00017338
     6
  Step:    33            Position(A)                                  Velocity(au)
C        -0.03244379     0.02441657    -0.07131079    -0.00005228     0.00003397    -0.00088610
N        -0.03992724    -0.03721784     1.38552982    -0.00005894     0.00004669     0.00072418
H         0.89869009     0.00068790    -0.65710548     0.00007969     0.00058407    -0.00023755
H         0.79089394    -0.30371240     1.86280208     0.00021500    -0.00125190     0.00035976
H        -0.97554677    -0.10215921     1.86216253     0.00043144     0.00034904     0.00020764
H        -0.98552910    -0.03835016    -0.57988490     0.00071588    -0.00073482     0.00016547
     6
  Step:    34            Position(A)                                  Velocity(au)
C        -0.03272101     0.02460442    -0.07627262    -0.00004553     0.00003264    -0.00087085
N        -0.04029546    -0.03694465     1.38957218    -0.00007020     0.00005004     0.00070774
H         0.89907982     0.00402694    -0.65824877     0.00006062     0.00059901    -0.00017146
H         0.79233510    -0.31090970     1.86496658     0.00028710    -0.00129617     0.00040257
H        -0.97279727    -0.10015068     1.86319882     0.00053252     0.00036172     0.00016485
H        -0.98168908    -0.04253514    -0.57899101     0.00063788    -0.00074886     0.00014615
     6
  Step:    35            Position(A)                                  Velocity(au)
C        -0.03295755     0.02478485    -0.08113719    -0.00003793     0.00003131    -0.00085093
N        -0.04071939    -0.03665320     1.39351573    -0.00007850     0.00005308     0.00068857
H         0.89937413     0.00744699    -0.65904024     0.00004601     0.00061222    -0.00011276
H         0.79413348    -0.31833799     1.86734453     0.00034050    -0.00133205     0.00043455
H        -0.96953791    -0.09807768     1.86402268     0.00061087     0.00037157     0.00013249
H        -0.97833143    -0.04680009    -0.57823583     0.00054536    -0.00076244     0.00011682
     6
  Step:    36            Position(A)                                  Velocity(au)
C        -0.03314920     0.02495793    -0.08587976    -0.00002974     0.00003003    -0.00082768
N        -0.04118170    -0.03634539     1.39734626    -0.00008374     0.00005580     0.00066770
H         0.89959927     0.01093899    -0.65952183     0.00003624     0.00062444    -0.00006164
H         0.79617944    -0.32594878     1.86987268     0.00037442    -0.00136035     0.00045553
H        -0.96590049    -0.09595557     1.86469468     0.00066596     0.00037912     0.00011118
H        -0.97553182    -0.05114317    -0.57767205     0.00044139    -0.00077642     0.00007910
     6
  Step:    37            Position(A)                                  Velocity(au)
C        -0.03329334     0.02512396    -0.09048299    -0.00002124     0.00002882    -0.00080216
N        -0.04166491    -0.03602318     1.40105504    -0.00008594     0.00005819     0.00064586
H         0.89978331     0.01449791    -0.65973627     0.00003152     0.00063628    -0.00001806
H         0.79836121    -0.33369844     1.87248812     0.00038888    -0.00138181     0.00046576
H        -0.96201823    -0.09379680     1.86527812     0.00069783     0.00038483     0.00010119
H        -0.97334741    -0.05556710    -0.57734270     0.00032908    -0.00079141     0.00003466
     6
  Step:    38            Position(A)                                  Velocity(au)
C        -0.03338897     0.02528332    -0.09493538    -0.00001269     0.00002770    -0.00077516
N        -0.04215184    -0.03568847     1.40463735    -0.00008518     0.00006027     0.00062356
H         0.89995508     0.01812199    -0.65972568     0.00003191     0.00064818     0.00001823
H         0.80056950    -0.34154798     1.87513061     0.00038456    -0.00139706     0.00046578
H        -0.95802272    -0.09161128     1.86583695     0.00070695     0.00038905     0.00010242
H        -0.97181680    -0.06007741    -0.57728077     0.00021156    -0.00080774    -0.00001474
     6
  Step:    39            Position(A)                                  Velocity(au)
C        -0.03343658     0.02543646    -0.09922972    -0.00000435     0.00002665    -0.00074723
N        -0.04262608    -0.03534309     1.40809110    -0.00008162     0.00006204     0.00060109
H         0.90014338     0.02181178    -0.65953062     0.00003734     0.00066041     0.00004755
H         0.80270052    -0.34946255     1.87774390     0.00036260    -0.00140665     0.00045634
H        -0.95404121    -0.08940680     1.86643385     0.00069417     0.00039212     0.00011454
H        -0.97096019    -0.06468144    -0.57750900     0.00009195    -0.00082551    -0.00006734
     6
  Step:    40            Position(A)                                  Velocity(au)
C        -0.03343807     0.02558381    -0.10336191     0.00000354     0.00002566    -0.00071877
N        -0.04307224    -0.03498885     1.41141583    -0.00007544     0.00006351     0.00057863
H         0.90037622     0.02556942    -0.65918946     0.00004764     0.00067316     0.00007033
H         0.80465852    -0.35741086     1.88027678     0.00032450    -0.00141108     0.00043833
H        -0.95019457    -0.08718938     1.86712867     0.00066077     0.00039428     0.00013692
H        -0.97077985    -0.06938676    -0.57804014    -0.00002667    -0.00084463    -0.00012142
     6
  Step:    41            Position(A)                                  Velocity(au)
C        -0.03339672     0.02572566    -0.10733003     0.00001075     0.00002472    -0.00069010
N        -0.04347628    -0.03462741     1.41461199    -0.00006691     0.00006469     0.00055627
H         0.90068022     0.02939800    -0.65873803     0.00006249     0.00068651     0.00008703
H         0.80635755    -0.36536488     1.88268377     0.00027209    -0.00141085     0.00041279
H        -0.94659463    -0.08496347     1.86797686     0.00060852     0.00039575     0.00016864
H        -0.97126073    -0.07420015    -0.57887735    -0.00014131    -0.00086487    -0.00017533
     6
  Step:    42            Position(A)                                  Velocity(au)
C        -0.03331702     0.02586219    -0.11113375     0.00001708     0.00002379    -0.00066143
N        -0.04382583    -0.03426035     1.41768050    -0.00005634     0.00006560     0.00053407
H         0.90107996     0.03330089    -0.65820934     0.00008150     0.00070053     0.00009815
H         0.80772281    -0.37329981     1.88492560     0.00020737    -0.00140652     0.00038080
H        -0.94334142    -0.08273243     1.86902786     0.00053970     0.00039679     0.00020853
H        -0.97237125    -0.07912695    -0.58001468    -0.00024915    -0.00088592    -0.00022753
     6
  Step:    43            Position(A)                                  Velocity(au)
C        -0.03320449     0.02599340    -0.11477400     0.00002236     0.00002284    -0.00063297
N        -0.04411038    -0.03388909     1.42062266    -0.00004407     0.00006628     0.00051209
H         0.90159745     0.03728210    -0.65763340     0.00010417     0.00071530     0.00010423
H         0.80869135    -0.38119448     1.88696942     0.00013245    -0.00139874     0.00034350
H        -0.94052059    -0.08049778     1.87032374     0.00045706     0.00039769     0.00025518
H        -0.97406475    -0.08417066    -0.58143808    -0.00034765    -0.00090742    -0.00027668
     6
  Step:    44            Position(A)                                  Velocity(au)
C        -0.03306553     0.02611908    -0.11825274     0.00002645     0.00002184    -0.00060487
N        -0.04432153    -0.03351492     1.42344003    -0.00003049     0.00006674     0.00049038
H         0.90225154     0.04134584    -0.65703705     0.00012989     0.00073082     0.00010584
H         0.80921248    -0.38903150     1.88878892     0.00004951    -0.00138818     0.00030203
H        -0.93820082    -0.07825962     1.87189791     0.00036378     0.00039868     0.00030698
H        -0.97628132    -0.08933275    -0.58312646    -0.00043464    -0.00092901    -0.00032160
     6