     6
  Step:   300            Position(A)                                  Velocity(au)
C        -0.02465432     0.01987664     0.01613705     0.00006704     0.00002842     0.00008311
N        -0.06541767    -0.05602679     1.29850369    -0.00016693    -0.00001292    -0.00005634
H         0.01295836    -0.89769997    -0.56063045     0.00028758     0.00026717    -0.00004006
H        -0.14824094     0.72702523     1.94926732     0.00119238    -0.00015127     0.00047707
H         0.18569794    -0.92996024     1.76991605     0.00036890     0.00020064    -0.00005376
H        -0.06050587     0.97256886    -0.50325216    -0.00032797    -0.00047572    -0.00059069
