|===============================================================================
|
|  DFTB+ release 20.1
|
|  Copyright (C) 2006 - 2020  DFTB+ developers group
|
|===============================================================================
|
|  When publishing results obtained with DFTB+, please cite the following
|  reference:
|
|  * DFTB+, a software package for efficient approximate density functional
|    theory based atomistic simulations, J. Chem. Phys. 152, 124101 (2020).
|    [doi: 10.1063/1.5143190]
|
|  You should also cite additional publications crediting the parametrization
|  data you use. Please consult the documentation of the SK-files for the
|  references.
|
|===============================================================================

Reading input file 'dftb_in.hsd'
Parser version: 8

--------------------------------------------------------------------------------
Reading SK-files:
Done.


Processed input in HSD format written to 'dftb_pin.hsd'

Starting initialization...
--------------------------------------------------------------------------------
WARNING!
-> Excited state forces are not implemented yet for fractional occupations, kT=  0.3158E-02K
OpenMP threads:              1
Chosen random seed:          508853864
Mode:                        Static calculation
Self consistent charges:     Yes
SCC-tolerance:                 0.100000E-05
Max. scc iterations:                    100
Shell resolved Hubbard:      No
Spin polarisation:           No
Nr. of up electrons:             6.000000
Nr. of down electrons:           6.000000
Periodic boundaries:         No
Electronic solver:           Relatively robust
Mixer:                       Broyden mixer
Mixing parameter:                  0.200000
Maximal SCC-cycles:                     100
Nr. of chrg. vec. in memory:              0
Electronic temperature:        0.100000E-07 H      0.272114E-06 eV
Initial charges:             Set automatically (system chrg:   0.100E+01)
Included shells:             C:  s, p
                             N:  s, p
                             H:  s
Extra options:
                             Mulliken analysis
                             Force calculation
Force type                   original
                             Eigenvector printing

--------------------------------------------------------------------------------

***  Geometry step: 0

 iSCC Total electronic   Diff electronic      SCC error    
    1   -0.52900784E+01    0.00000000E+00    0.10220468E+01
    2   -0.53052353E+01   -0.15156922E-01    0.67047522E+00
    3   -0.53132213E+01   -0.79859777E-02    0.21383528E+00
    4   -0.52094379E+01    0.10378338E+00    0.10984140E+01
    5   -0.53154824E+01   -0.10604447E+00    0.34325054E-01
    6   -0.53155699E+01   -0.87547890E-04    0.16133886E-01
    7   -0.53155710E+01   -0.10339913E-05    0.13654581E-01
    8   -0.53155799E+01   -0.89764260E-05    0.57579340E-02
    9   -0.53155811E+01   -0.11951217E-05    0.39735245E-02
   10   -0.53155822E+01   -0.10230759E-05    0.99085158E-03
   11   -0.53155822E+01   -0.52693822E-07    0.48231546E-03
   12   -0.53155822E+01   -0.16384647E-07    0.48579186E-05
   13   -0.53155822E+01   -0.16626700E-11    0.47394245E-07
>> Charges saved for restart in charges.bin

Total Energy:                       -5.0706580749 H         -137.9796 eV
Extrapolated to 0:                  -5.1624947939 H         -140.4786 eV
Total Mermin free energy:           -5.0706580749 H         -137.9796 eV
Force related energy:               -5.1624947939 H         -140.4786 eV

--------------------------------------------------------------------------------
DFTB+ running times                          cpu [s]             wall clock [s]
--------------------------------------------------------------------------------
SCC                                    +     0.02  ( 68.8%)      0.06  ( 77.0%)
Post-SCC processing                    +     0.01  ( 22.5%)      0.01  ( 14.9%)
--------------------------------------------------------------------------------
Missing                                +     0.00  (  8.8%)      0.01  (  8.1%)
Total                                  =     0.02  (100.0%)      0.07  (100.0%)
--------------------------------------------------------------------------------
