 Fermi distribution function

Calculation with static geometry


********************************************************************************
 iSCC Total electronic   Diff electronic      SCC error    
   10   -0.53312276E+01   -0.26221718E-08    0.97588382E-06
********************************************************************************

 Total charge:     1.00000000

 Atomic gross charges (e)
 Atom           Charge
    1       0.25470240
    2      -0.13857943
    3       0.17707745
    4       0.26732241
    5       0.26364320
    6       0.17583397

Nr. of electrons (up):     12.00000000
Atom populations (up)
 Atom       Population
    1       3.74529760
    2       5.13857943
    3       0.82292255
    4       0.73267759
    5       0.73635680
    6       0.82416603

l-shell populations (up)
 Atom Sh.   l       Population
    1   1   0       1.36756928
    1   2   1       2.37772833
    2   1   0       1.49202000
    2   2   1       3.64655943
    3   1   0       0.82292255
    4   1   0       0.73267759
    5   1   0       0.73635680
    6   1   0       0.82416603

Orbital populations (up)
 Atom Sh.   l   m       Population  Label
    1   1   0   0       1.36756928  s
    1   2   1  -1       0.48691099  p_y
    1   2   1   0       0.87354037  p_z
    1   2   1   1       1.01727697  p_x
    2   1   0   0       1.49202000  s
    2   2   1  -1       1.36556172  p_y
    2   2   1   0       1.12203806  p_z
    2   2   1   1       1.15895966  p_x
    3   1   0   0       0.82292255  s
    4   1   0   0       0.73267759  s
    5   1   0   0       0.73635680  s
    6   1   0   0       0.82416603  s

Fermi level:                        -0.5241171206 H          -14.2620 eV
Band energy:                        -8.8161624671 H         -239.9000 eV
TS:                                  0.0000000000 H            0.0000 eV
Band free energy (E-TS):            -8.8161624671 H         -239.9000 eV
Extrapolated E(0K):                 -8.8161624671 H         -239.9000 eV
Input / Output electrons (q):     12.0000000000     12.0000000000

Energy H0:                          -5.4677020760 H         -148.7837 eV
Energy SCC:                          0.1364744769 H            3.7137 eV
Total Electronic energy:            -5.3312275991 H         -145.0701 eV
Repulsive energy:                    0.1577079323 H            4.2915 eV
Total energy:                       -5.1735196668 H         -140.7786 eV
Extrapolated to 0:                  -5.1735196668 H         -140.7786 eV
Total Mermin free energy:           -5.1735196668 H         -140.7786 eV
Force related energy:               -5.1735196668 H         -140.7786 eV

SCC converged

Excitation Energy:                   0.1508055143 H            4.1036 eV

Total Forces
    1      0.044241448801     -0.016623512382      0.063940746840
    2     -0.017225148915      0.010979102017     -0.055608513170
    3     -0.002179980850     -0.008613252127     -0.016367548175
    4     -0.003382049412      0.006668528850     -0.006707583892
    5     -0.003943220499     -0.012356528740      0.016850097078
    6     -0.017511049125      0.019945662382     -0.002107198681

Maximal derivative component:        0.639407E-01 au


