|===============================================================================
|
|  DFTB+ release 20.1
|
|  Copyright (C) 2006 - 2020  DFTB+ developers group
|
|===============================================================================
|
|  When publishing results obtained with DFTB+, please cite the following
|  reference:
|
|  * DFTB+, a software package for efficient approximate density functional
|    theory based atomistic simulations, J. Chem. Phys. 152, 124101 (2020).
|    [doi: 10.1063/1.5143190]
|
|  You should also cite additional publications crediting the parametrization
|  data you use. Please consult the documentation of the SK-files for the
|  references.
|
|===============================================================================

Reading input file 'dftb_in.hsd'
Parser version: 8

--------------------------------------------------------------------------------
Reading SK-files:
Done.


Processed input in HSD format written to 'dftb_pin.hsd'

Starting initialization...
--------------------------------------------------------------------------------
WARNING!
-> Excited state forces are not implemented yet for fractional occupations, kT=  0.3158E-02K
OpenMP threads:              1
Chosen random seed:          435833227
Mode:                        Static calculation
Self consistent charges:     Yes
SCC-tolerance:                 0.100000E-05
Max. scc iterations:                    100
Shell resolved Hubbard:      No
Spin polarisation:           No
Nr. of up electrons:             6.000000
Nr. of down electrons:           6.000000
Periodic boundaries:         No
Electronic solver:           Relatively robust
Mixer:                       Broyden mixer
Mixing parameter:                  0.200000
Maximal SCC-cycles:                     100
Nr. of chrg. vec. in memory:              0
Electronic temperature:        0.100000E-07 H      0.272114E-06 eV
Initial charges:             Set automatically (system chrg:   0.100E+01)
Included shells:             C:  s, p
                             N:  s, p
                             H:  s
Extra options:
                             Mulliken analysis
                             Force calculation
Force type                   original
                             Eigenvector printing

--------------------------------------------------------------------------------

***  Geometry step: 0

 iSCC Total electronic   Diff electronic      SCC error    
    1   -0.54014530E+01    0.00000000E+00    0.69949028E+00
    2   -0.54059161E+01   -0.44630919E-02    0.47258607E+00
    3   -0.54087726E+01   -0.28564850E-02    0.87499504E-01
    4   -0.54090798E+01   -0.30719442E-03    0.33924406E-01
    5   -0.54091186E+01   -0.38773698E-04    0.60264917E-02
    6   -0.54091191E+01   -0.52637159E-06    0.11454682E-02
    7   -0.54091191E+01   -0.25478484E-07    0.68836489E-04
    8   -0.54091191E+01   -0.16303137E-09    0.27777090E-04
    9   -0.54091191E+01   -0.33247183E-10    0.28500275E-05
   10   -0.54091191E+01   -0.58975047E-12    0.22913436E-06
>> Charges saved for restart in charges.bin

Total Energy:                       -5.0850388096 H         -138.3709 eV
Extrapolated to 0:                  -5.2226328517 H         -142.1151 eV
Total Mermin free energy:           -5.0850388096 H         -138.3709 eV
Force related energy:               -5.2226328517 H         -142.1151 eV

--------------------------------------------------------------------------------
DFTB+ running times                          cpu [s]             wall clock [s]
--------------------------------------------------------------------------------
SCC                                    +     0.01  ( 59.7%)      0.03  ( 69.4%)
Post-SCC processing                    +     0.00  ( 32.3%)      0.01  ( 24.5%)
--------------------------------------------------------------------------------
Missing                                +     0.00  (  8.0%)      0.00  (  6.1%)
Total                                  =     0.01  (100.0%)      0.05  (100.0%)
--------------------------------------------------------------------------------
