     6
  Step:   120            Position(A)                                  Velocity(au)
C        -0.02401767    -0.10331986    -0.03387067     0.00008691    -0.00007486     0.00001175
N        -0.03509982     0.00551797     1.34444735     0.00000237     0.00005739    -0.00011716
H         0.73446651     0.64281777    -0.49684733    -0.00094946     0.00079248     0.00073480
H         0.75049521    -0.47436958     1.83937194    -0.00058444    -0.00099136     0.00041635
H        -0.96106167     0.04239191     1.85480814     0.00059330     0.00067868    -0.00011017
H        -0.96287531     0.27386600    -0.58459215    -0.00012799    -0.00038527     0.00044718
