     6
  Step:     0            Position(A)                                  Velocity(au)
C        -0.03726940     0.00127343     0.00169582    -0.00011575    -0.00009853    -0.00012622
N        -0.03453990    -0.04637305     1.30734642    -0.00001747     0.00007361     0.00015382
H         0.93381840     0.06956596    -0.55431897     0.00114734     0.00041183    -0.00066726
H         0.78363839    -0.14082469     1.87461876     0.00044985    -0.00034457     0.00017994
H        -1.00544925    -0.04837337     1.87857570    -0.00009632    -0.00025089    -0.00006956
H        -1.00086282     0.07909592    -0.49438761     0.00012122     0.00033480    -0.00007658
     6
  Step:     1            Position(A)                                  Velocity(au)
C        -0.03788097     0.00073866     0.00068119    -0.00010696    -0.00009708    -0.00024423
N        -0.03472228    -0.04598229     1.30848099    -0.00004868     0.00006935     0.00026046
H         0.93992976     0.07184956    -0.55789156     0.00107832     0.00042250    -0.00063411
H         0.78656991    -0.14271660     1.87586251     0.00061552    -0.00034702     0.00027063
H        -1.00523876    -0.04971321     1.87777230     0.00017227    -0.00023907    -0.00022294
H        -1.00029402     0.08098624    -0.49493115     0.00008499     0.00035669    -0.00012285
     6
  Step:     2            Position(A)                                  Velocity(au)
C        -0.03843925     0.00021162    -0.00097533    -0.00009639    -0.00009572    -0.00036045
N        -0.03507235    -0.04561455     1.31019518    -0.00007853     0.00006521     0.00036539
H         0.94561220     0.07418694    -0.56125433     0.00099191     0.00043149    -0.00059144
H         0.79037047    -0.14462008     1.87757866     0.00076597    -0.00034869     0.00035160
H        -1.00356509    -0.05098810     1.87613730     0.00043665    -0.00022729    -0.00037236
H        -0.99993331     0.08299711    -0.49573126     0.00004536     0.00037883    -0.00017028
     6
  Step:     3            Position(A)                                  Velocity(au)
C        -0.03893517    -0.00030813    -0.00326080    -0.00008423    -0.00009437    -0.00047347
N        -0.03558107    -0.04526910     1.31247707    -0.00010638     0.00006117     0.00046739
H         0.95077767     0.07656849    -0.56435976     0.00089005     0.00043839    -0.00054051
H         0.79494688    -0.14653004     1.87970769     0.00089731    -0.00034902     0.00042051
H        -1.00046344    -0.05219893     1.87369999     0.00069180    -0.00021562    -0.00051465
H        -0.99979790     0.08512923    -0.49679344     0.00000283     0.00040073    -0.00021843
     6
  Step:     4            Position(A)                                  Velocity(au)
C        -0.03936062    -0.00082068    -0.00615475    -0.00007065    -0.00009295    -0.00058162
N        -0.03623608    -0.04494544     1.31530809    -0.00013157     0.00005717     0.00056494
H         0.95534861     0.07898257    -0.56716713     0.00077470     0.00044276    -0.00048257
H         0.80018635    -0.14843808     1.88217868     0.00100588    -0.00034732     0.00047535
H        -0.99599728    -0.05334677     1.87050743     0.00093165    -0.00020405    -0.00064603
H        -0.99990230     0.08738079    -0.49812076    -0.00004199     0.00042185    -0.00026673
     6
  Step:     5            Position(A)                                  Velocity(au)
C        -0.03970856    -0.00132569    -0.00962778    -0.00005590    -0.00009140    -0.00068298
N        -0.03702134    -0.04464331     1.31866146    -0.00015334     0.00005316     0.00065624
H         0.95925818     0.08141537    -0.56964245     0.00064804     0.00044418    -0.00041894
H         0.80595815    -0.15033211     1.88491127     0.00108843    -0.00034289     0.00051453
H        -0.99026476    -0.05443263     1.86662802     0.00114887    -0.00019257    -0.00076207
H        -1.00025759     0.08974717    -0.49971331    -0.00008834     0.00044158    -0.00031448
     6
  Step:     6            Position(A)                                  Velocity(au)
C        -0.03997324    -0.00182239    -0.01364031    -0.00004025    -0.00008960    -0.00077542
N        -0.03791675    -0.04436276     1.32250062    -0.00017092     0.00004911     0.00073924
H         0.96245125     0.08385087    -0.57175882     0.00051262     0.00044223    -0.00035110
H         0.81211576    -0.15219623     1.88781806     0.00114228    -0.00033507     0.00053700
H        -0.98340543    -0.05545733     1.86215503     0.00133515    -0.00018115    -0.00085787
H        -1.00087054     0.09222059    -0.50156750    -0.00013524     0.00045927    -0.00036086
     6
  Step:     7            Position(A)                                  Velocity(au)
C        -0.04015050    -0.00230950    -0.01814162    -0.00002407    -0.00008749    -0.00085679
N        -0.03889797    -0.04410412     1.32677810    -0.00018353     0.00004497     0.00081182
H         0.96488657     0.08627097    -0.57349737     0.00037148     0.00043660    -0.00028074
H         0.81850004    -0.15401107     1.89080732     0.00116562    -0.00032332     0.00054233
H        -0.97560524    -0.05642159     1.85720887     0.00148171    -0.00016982    -0.00092842
H        -1.00174251     0.09478977    -0.50367543    -0.00018152     0.00047424    -0.00040497
     6
  Step:     8            Position(A)                                  Velocity(au)
C        -0.04023815    -0.00278531    -0.02306973    -0.00000778    -0.00008501    -0.00092511
N        -0.03993661    -0.04386787     1.33143515    -0.00019050     0.00004073     0.00087198
H         0.96653959     0.08865591    -0.57484847     0.00022820     0.00042710    -0.00020980
H         0.82494400    -0.15575452     1.89378665     0.00115782    -0.00030732     0.00053090
H        -0.96709842    -0.05732629     1.85193733     0.00157984    -0.00015867    -0.00096891
H        -1.00286831     0.09743978    -0.50602436    -0.00022585     0.00048585    -0.00044583
     6
  Step:     9            Position(A)                                  Velocity(au)
C        -0.04023634    -0.00324773    -0.02835231     0.00000816    -0.00008210    -0.00097881
N        -0.04100059    -0.04365460     1.33640238    -0.00019132     0.00003640     0.00091807
H         0.96740525     0.09098498    -0.57581299     0.00008675     0.00041374    -0.00014040
H         0.83127919    -0.15740302     1.89666695     0.00111969    -0.00028704     0.00050390
H        -0.95816815    -0.05817287     1.84651475     0.00162179    -0.00014787    -0.00097535
H        -1.00423526     0.10015221    -0.50859620    -0.00026677     0.00049359    -0.00048247
     6
  Step:    10            Position(A)                                  Velocity(au)
C        -0.04014783    -0.00369446    -0.03390892     0.00002324    -0.00007878    -0.00101701
N        -0.04205523    -0.04346477     1.34160178    -0.00018576     0.00003203     0.00094913
H         0.96750022     0.09323765    -0.57640320    -0.00004873     0.00039682    -0.00007468
H         0.83734330    -0.15893314     1.89936673     0.00105364    -0.00026277     0.00046334
H        -0.94913893    -0.05896376     1.84113645     0.00160246    -0.00013766    -0.00094544
H        -1.00582249     0.10290574    -0.51136721    -0.00030285     0.00049716    -0.00051394
     6
  Step:    11            Position(A)                                  Velocity(au)
C        -0.03997803    -0.00412321    -0.03965476     0.00003703    -0.00007510    -0.00103984
N        -0.04306508    -0.04329861     1.34695049    -0.00017402     0.00002769     0.00096516
H         0.96686373     0.09539507    -0.57664299    -0.00017429     0.00037694    -0.00001470
H         0.84298871    -0.16032328     1.90181630     0.00096367    -0.00023513     0.00041199
H        -0.94035932    -0.05970276     1.83600763     0.00152050    -0.00012835    -0.00087921
H        -1.00760095     0.10567742    -0.51430789    -0.00033283     0.00049661    -0.00053950
     6
  Step:    12            Position(A)                                  Velocity(au)
C        -0.03973481    -0.00453200    -0.04550622     0.00008308    -0.00012026    -0.00177198
N        -0.04399611    -0.04315595     1.35236619    -0.00026473     0.00003963     0.00163464
H         0.96555634     0.09744167    -0.57656710    -0.00048446     0.00059986     0.00006399
H         0.84809111    -0.16155553     1.90396161     0.00144503    -0.00034643     0.00059665
H        -0.93218083    -0.06039527     1.83133059     0.00232981    -0.00020323    -0.00131656
H        -1.00953451     0.10844439    -0.51738426    -0.00060148     0.00083203    -0.00094460
     6
  Step:    13            Position(A)                                  Velocity(au)
C        -0.03924604    -0.00520715    -0.05508073     0.00008842    -0.00011812    -0.00160573
N        -0.04540511    -0.04293554     1.36123869    -0.00022944     0.00003822     0.00149390
H         0.96283965     0.10079849    -0.57638654    -0.00046684     0.00058570    -0.00000329
H         0.85579820    -0.16345891     1.90713115     0.00126860    -0.00032439     0.00051901
H        -0.91977066    -0.06150772     1.82438760     0.00201159    -0.00019077    -0.00111239
H        -1.01317901     0.11308550    -0.52299616    -0.00067848     0.00080585    -0.00102901
     6
  Step:    14            Position(A)                                  Velocity(au)
C        -0.03873180    -0.00587204    -0.06372211     0.00009123    -0.00011558    -0.00143150
N        -0.04659895    -0.04272232     1.36931339    -0.00018774     0.00003677     0.00134262
H         0.96026038     0.10408607    -0.57660442    -0.00043325     0.00057045    -0.00007513
H         0.86248250    -0.16523550     1.90984936     0.00107696    -0.00029941     0.00043491
H        -0.90936073    -0.06255945     1.81871126     0.00161579    -0.00018021    -0.00086620
H        -1.01723140     0.11758617    -0.52905771    -0.00073772     0.00077546    -0.00109325
     6
  Step:    15            Position(A)                                  Velocity(au)
C        -0.03820648    -0.00652417    -0.07139217     0.00009246    -0.00011377    -0.00126737
N        -0.04754431    -0.04251654     1.37653738    -0.00014314     0.00003566     0.00119791
H         0.95790291     0.10729853    -0.57724268    -0.00039077     0.00056009    -0.00015033
H         0.86806982    -0.16687061     1.91208674     0.00088676    -0.00027542     0.00035180
H        -0.90135928    -0.06356112     1.81451761     0.00117609    -0.00017330    -0.00059789
H        -1.02158505     0.12192164    -0.53545333    -0.00078473     0.00074872    -0.00114797
     6
  Step:    16            Position(A)                                  Velocity(au)
C        -0.03767912    -0.00716727    -0.07815077     0.00009278    -0.00011332    -0.00112118
N        -0.04822855    -0.04231631     1.38295116    -0.00009763     0.00003511     0.00106765
H         0.95581164     0.11046249    -0.57831591    -0.00034383     0.00055798    -0.00022915
H         0.87257794    -0.16837109     1.91385455     0.00070547    -0.00025451     0.00027313
H        -0.89597128    -0.06453241     1.81190446     0.00071349    -0.00017072    -0.00031927
H        -1.02616534     0.12611014    -0.54212695    -0.00082391     0.00072975    -0.00120113
     6
  Step:    17            Position(A)                                  Velocity(au)
C        -0.03715494    -0.00780857    -0.08409964     0.00009237    -0.00011430    -0.00099233
N        -0.04865088    -0.04211864     1.38863818    -0.00005213     0.00003511     0.00095199
H         0.95400595     0.11362265    -0.57983992    -0.00029421     0.00056451    -0.00031197
H         0.87606563    -0.16975518     1.91518242     0.00053383    -0.00023705     0.00019944
H        -0.89327252    -0.06549606     1.81089901     0.00024036    -0.00017209    -0.00003679
H        -1.03092323     0.13019262    -0.54906703    -0.00085613     0.00071864    -0.00125525
     6
  Step:    18            Position(A)                                  Velocity(au)
C        -0.03663795    -0.00845563    -0.08933650     0.00009111    -0.00011640    -0.00087676
N        -0.04881619    -0.04192051     1.39368223    -0.00000739     0.00003558     0.00084775
H         0.95249522     0.11682576    -0.58183247    -0.00024247     0.00057832    -0.00039833
H         0.87859538    -0.17104320     1.91610263     0.00037044    -0.00022265     0.00013040
H        -0.89326192    -0.06647229     1.81148975    -0.00023132    -0.00017643     0.00024349
H        -1.03581586     0.13421079    -0.55627644    -0.00087957     0.00071325    -0.00130870
     6
  Step:    19            Position(A)                                  Velocity(au)
C        -0.03613271    -0.00911444    -0.09393626     0.00008883    -0.00011924    -0.00077048
N        -0.04873384    -0.04171943     1.39814937     0.00003553     0.00003639     0.00075176
H         0.95128557     0.12011099    -0.58430886    -0.00018919     0.00059756    -0.00048697
H         0.88022172    -0.17225312     1.91664539     0.00021462    -0.00021080     0.00006599
H        -0.89586779    -0.06747549     1.81363078    -0.00068616    -0.00018253     0.00051378
H        -1.04079137     0.13819482    -0.56374976    -0.00089153     0.00071103    -0.00135841
     6
  Step:    20            Position(A)                                  Velocity(au)
C        -0.03564470    -0.00978894    -0.09795150     0.00008540    -0.00012251    -0.00067071
N        -0.04841889    -0.04151365     1.40208790     0.00007536     0.00003741     0.00066190
H         0.95037980     0.12350733    -0.58727751    -0.00013540     0.00062056    -0.00057620
H         0.88099514    -0.17340022     1.91684053     0.00006700    -0.00020123     0.00000672
H        -0.90093413    -0.06851325     1.81723456    -0.00110655    -0.00018924     0.00076521
H        -1.04578440     0.14216105    -0.57146531    -0.00088978     0.00070984    -0.00140152
     6
  Step:    21            Position(A)                                  Velocity(au)
C        -0.03517997    -0.01048123    -0.10141926     0.00008078    -0.00012593    -0.00057580
N        -0.04789311    -0.04130206     1.40553411     0.00011076     0.00003856     0.00057704
H         0.94977498     0.12703446    -0.59073745    -0.00008252     0.00064591    -0.00066413
H         0.88096923    -0.17449817     1.91672032    -0.00007084    -0.00019384    -0.00004659
H        -0.90821343    -0.06958676     1.82216815    -0.00147546    -0.00019551     0.00098922
H        -1.05071848     0.14611445    -0.57938635    -0.00087288     0.00070817    -0.00143592
     6
  Step:    22            Position(A)                                  Velocity(au)
C        -0.03474461    -0.01119206    -0.10436736     0.00007504    -0.00012931    -0.00048488
N        -0.04718478    -0.04108403     1.40851754     0.00014060     0.00003976     0.00049662
H         0.94946032     0.13070433    -0.59467751    -0.00003223     0.00067247    -0.00074888
H         0.88020582    -0.17556009     1.91632140    -0.00019683    -0.00018869    -0.00009292
H        -0.91737434    -0.07069170     1.82825686    -0.00177877    -0.00020050     0.00117871
H        -1.05551037     0.15005184    -0.58746504    -0.00084025     0.00070499    -0.00146025
     6
  Step:    23            Position(A)                                  Velocity(au)
C        -0.03434433    -0.01192111    -0.10681852     0.00006832    -0.00013251    -0.00039754
N        -0.04632748    -0.04085927     1.41106410     0.00016406     0.00004099     0.00042041
H         0.94941605     0.13452255    -0.59907635     0.00001373     0.00069929    -0.00082869
H         0.87877752    -0.17659928     1.91568561    -0.00030879    -0.00018589    -0.00013129
H        -0.92802038    -0.07181940     1.83529336    -0.00200680    -0.00020358     0.00132880
H        -1.06007480     0.15396463    -0.59564652    -0.00079206     0.00069965    -0.00147378
     6
  Step:    24            Position(A)                                  Velocity(au)
C        -0.03398405    -0.01266730    -0.10879312     0.00006077    -0.00013543    -0.00031366
N        -0.04535830    -0.04062774     1.41319784     0.00018068     0.00004219     0.00034827
H         0.94961321     0.13848939    -0.60390321     0.00005373     0.00072557    -0.00090202
H         0.87676812    -0.17762956     1.91485980    -0.00040473    -0.00018556    -0.00016082
H        -0.93971573    -0.07295814     1.84305019    -0.00215488    -0.00020434     0.00143703
H        -1.06432825     0.15784095    -0.60387234    -0.00072904     0.00069183    -0.00147630
     6
  Step:    25            Position(A)                                  Velocity(au)
C        -0.03366778    -0.01342899    -0.11031072     0.00005259    -0.00013801    -0.00023328
N        -0.04431582    -0.04038950     1.41494166     0.00019039     0.00004338     0.00028014
H         0.95001426     0.14260078    -0.60911907     0.00008630     0.00075069    -0.00096758
H         0.87427136    -0.17866528     1.91389512    -0.00048306    -0.00018783    -0.00018087
H        -0.95201202    -0.07409441     1.85129266    -0.00222325    -0.00020259     0.00150332
H        -1.06819166     0.16166724    -0.61208306    -0.00065237     0.00068144    -0.00146805
     6
  Step:    26            Position(A)                                  Velocity(au)
C        -0.03339837    -0.01420423    -0.11139097     0.00004401    -0.00014022    -0.00015649
N        -0.04323810    -0.04014463     1.41631757     0.00019344     0.00004456     0.00021590
H         0.95057427     0.14684915    -0.61467830     0.00011027     0.00077416    -0.00102444
H         0.87138864    -0.17972130     1.91284563    -0.00054273    -0.00019278    -0.00019108
H        -0.96447425    -0.07521419     1.85979139    -0.00221649    -0.00019836     0.00152974
H        -1.07159316     0.16542958    -0.62022083    -0.00056361     0.00066859    -0.00144968
     6
  Step:    27            Position(A)                                  Velocity(au)
C        -0.03317757    -0.01499089    -0.11205392     0.00003522    -0.00014204    -0.00008338
N        -0.04216098    -0.03989315     1.41734664     0.00019038     0.00004574     0.00015538
H         0.95124261     0.15122440    -0.62053058     0.00012480     0.00079569    -0.00107203
H         0.86822569    -0.18081273     1.91176668    -0.00058334    -0.00020045    -0.00019140
H        -0.97670211    -0.07630404     1.86833283    -0.00214221    -0.00019185     0.00151986
H        -1.07446983     0.16911486    -0.62823144    -0.00046451     0.00065355    -0.00142209
     6
  Step:    28            Position(A)                                  Velocity(au)
C        -0.03300596    -0.01578687    -0.11232001     0.00002642    -0.00014352    -0.00001399
N        -0.04111687    -0.03963498     1.41804885     0.00018189     0.00004695     0.00009839
H         0.95196477     0.15571479    -0.62662292     0.00012937     0.00081511    -0.00111012
H         0.86488902    -0.18195471     1.91071303    -0.00060513    -0.00021082    -0.00018212
H        -0.98834286    -0.07735178     1.87672579    -0.00200971    -0.00018333     0.00147814
H        -1.07676875     0.17271148    -0.63606589    -0.00035692     0.00063668    -0.00138641
     6
  Step:    29            Position(A)                                  Velocity(au)
C        -0.03288312    -0.01659020    -0.11220979     0.00001778    -0.00014467     0.00005173
N        -0.04013409    -0.03936990     1.41844302     0.00016874     0.00004822     0.00004466
H         0.95268429     0.16030778    -0.63290149     0.00012380     0.00083236    -0.00113874
H         0.86148227    -0.18316201     1.90973713    -0.00060896    -0.00022380    -0.00016383
H        -0.99909784    -0.07834698     1.88480491    -0.00182895    -0.00017313     0.00140940
H        -1.07844728     0.17620988    -0.64368129    -0.00024264     0.00061838    -0.00134380
     6
  Step:    30            Position(A)                                  Velocity(au)
C        -0.03280777    -0.01739912    -0.11174357     0.00000944    -0.00014556     0.00011386
N        -0.03923646    -0.03909758     1.41854656     0.00015175     0.00004957    -0.00000607
H         0.95334442     0.16499065    -0.63931312     0.00010817     0.00084748    -0.00115815
H         0.85810272    -0.18444875     1.90888731    -0.00059624    -0.00023926    -0.00013737
H        -1.00872469    -0.07928114     1.89243220    -0.00160995    -0.00016161     0.00131855
H        -1.07947270     0.17960275    -0.65104127    -0.00012330     0.00059905    -0.00129541
     6
  Step:    31            Position(A)                                  Velocity(au)
C        -0.03277789    -0.01821213    -0.11094107     0.00000151    -0.00014622     0.00017258
N        -0.03844316    -0.03881756     1.41837537     0.00013173     0.00005101    -0.00005410
H         0.95388962     0.16975099    -0.64580645     0.00008279     0.00086053    -0.00116872
H         0.85483850    -0.18582799     1.90820643    -0.00056881    -0.00025697    -0.00010383
H        -1.01703707    -0.08014777     1.89949711    -0.00136205    -0.00014911     0.00121017
H        -1.07982118     0.18288493    -0.65811564    -0.00000038     0.00057904    -0.00124225
     6
  Step:    32            Position(A)                                  Velocity(au)
C        -0.03279098    -0.01902797    -0.10982104    -0.00000595    -0.00014669     0.00022808
N        -0.03776904    -0.03852935     1.41794386     0.00010938     0.00005255    -0.00009970
H         0.95426671     0.17457688    -0.65233256     0.00004815     0.00087159    -0.00117087
H         0.85176618    -0.18731136     1.90773059    -0.00052889    -0.00027664    -0.00006451
H        -1.02389780    -0.08094217     1.90591343    -0.00109325    -0.00013589     0.00108824
H        -1.07947690     0.18605320    -0.66487985     0.00012483     0.00055864    -0.00118522
     6
  Step:    33            Position(A)                                  Velocity(au)
C        -0.03284413    -0.01984562    -0.10840119    -0.00001287    -0.00014700     0.00028056
N        -0.03722505    -0.03823241     1.41726515     0.00008540     0.00005418    -0.00014309
H         0.95442582     0.17945703    -0.65884526     0.00000487     0.00088073    -0.00116504
H         0.84894878    -0.18890863     1.90748807    -0.00047898    -0.00029790    -0.00002085
H        -1.02921149    -0.08166109     1.91161569    -0.00081048    -0.00012221     0.00095616
H        -1.07843102     0.18910598    -0.67131418     0.00025118     0.00053810    -0.00112502
     6
  Step:    34            Position(A)                                  Velocity(au)
C        -0.03293419    -0.02066422    -0.10669807    -0.00001920    -0.00014717     0.00033020
N        -0.03681844    -0.03792626     1.41635113     0.00006039     0.00005589    -0.00018446
H         0.95432086     0.18438054    -0.66530093    -0.00004638     0.00088795    -0.00115158
H         0.84643446    -0.19062733     1.90749846    -0.00042180    -0.00032029     0.00002552
H        -1.03291951    -0.08230257     1.91655676    -0.00051980    -0.00010826     0.00081693
H        -1.07668089     0.19204292    -0.67740282     0.00037763     0.00051756    -0.00106224
     6
  Step:    35            Position(A)                                  Velocity(au)
C        -0.03305781    -0.02148304    -0.10472729    -0.00002494    -0.00014720     0.00037714
N        -0.03655312    -0.03761055     1.41521282     0.00003494     0.00005766    -0.00022394
H         0.95390982     0.18933675    -0.67165818    -0.00010481     0.00089324    -0.00113081
H         0.84425566    -0.19247230     1.90777201    -0.00036017    -0.00034330     0.00007291
H        -1.03499503    -0.08286568     1.92070521    -0.00022650    -0.00009421     0.00067313
H        -1.07422942     0.19486460    -0.68313306     0.00050317     0.00049715    -0.00099730
     6
  Step:    36            Position(A)                                  Velocity(au)
C        -0.03321154    -0.02230139    -0.10250364    -0.00003004    -0.00014711     0.00042146
N        -0.03642989    -0.03728504     1.41386057     0.00000957     0.00005944    -0.00026159
H         0.95315522     0.19431496    -0.67787756    -0.00016957     0.00089653    -0.00110300
H         0.84242877    -0.19444544     1.90830929    -0.00029694    -0.00036635     0.00011954
H        -1.03543863    -0.08335034     1.92404315     0.00006474    -0.00008018     0.00052702
H        -1.07108476     0.19757213    -0.68849451     0.00062684     0.00047692    -0.00093053
     6
  Step:    37            Position(A)                                  Velocity(au)
C        -0.03339184    -0.02311855    -0.10004152    -0.00003451    -0.00014686     0.00046319
N        -0.03644674    -0.03694970     1.41230447    -0.00001521     0.00006120    -0.00029742
H         0.95202456     0.19930420    -0.68392124    -0.00023972     0.00089769    -0.00106838
H         0.84095433    -0.19654532     1.90910101    -0.00023490    -0.00038880     0.00016364
H        -1.03427521    -0.08375716     1.92656455     0.00034964    -0.00006631     0.00038067
H        -1.06726034     0.20016697    -0.69347860     0.00074759     0.00045690    -0.00086222
     6
  Step:    38            Position(A)                                  Velocity(au)
C        -0.03359516    -0.02393376    -0.09735518    -0.00003833    -0.00014644     0.00050227
N        -0.03659894    -0.03660475     1.41055465    -0.00003891     0.00006290    -0.00033137
H         0.95049073     0.20429298    -0.68975280    -0.00031420     0.00089659    -0.00102714
H         0.83981775    -0.19876708     1.91012819    -0.00017670    -0.00041001     0.00020349
H        -1.03155225    -0.08408738     1.92827437     0.00062406    -0.00005270     0.00023607
H        -1.06277507     0.20265073    -0.69807829     0.00086435     0.00043711    -0.00079262
     6
  Step:    39            Position(A)                                  Velocity(au)
C        -0.03381787    -0.02474616    -0.09445922    -0.00004149    -0.00014584     0.00053857
N        -0.03687922    -0.03625064     1.40862157    -0.00006108     0.00006448    -0.00036332
H         0.94853242     0.20926910    -0.69533711    -0.00039191     0.00089307    -0.00097952
H         0.83899049    -0.20110230     1.91136260    -0.00012469    -0.00042933     0.00023746
H        -1.02733924    -0.08434285     1.92918831     0.00088387    -0.00003946     0.00009525
H        -1.05765376     0.20502506    -0.70228796     0.00097592     0.00041753    -0.00072200
     6
  Step:    40            Position(A)                                  Velocity(au)
C        -0.03405632    -0.02555475    -0.09136885    -0.00004398    -0.00014501     0.00057194
N        -0.03727784    -0.03588809     1.40651627    -0.00008126     0.00006589    -0.00039314
H         0.94613456     0.21421962    -0.70064032    -0.00047162     0.00088699    -0.00092579
H         0.83843176    -0.20353911     1.91276758    -0.00008093    -0.00044612     0.00026412
H        -1.02172792    -0.08452603     1.92933312     0.00112484    -0.00002674    -0.00003966
H        -1.05192757     0.20729162    -0.70610346     0.00108105     0.00039818    -0.00065068
     6
  Step:    41            Position(A)                                  Velocity(au)
C        -0.03430685    -0.02635839    -0.08810031    -0.00004580    -0.00014394     0.00060214
N        -0.03778270    -0.03551807     1.40425057    -0.00009904     0.00006710    -0.00042066
H         0.94328884     0.21913082    -0.70563020    -0.00055204     0.00087822    -0.00086630
H         0.83809067    -0.20606236     1.91429918    -0.00004702    -0.00045984     0.00028230
H        -1.01483300    -0.08464013     1.92874731     0.00134267    -0.00001466    -0.00016643
H        -1.04563441     0.20945208    -0.70952238     0.00117846     0.00037908    -0.00057904
     6
  Step:    42            Position(A)                                  Velocity(au)
C        -0.03456579    -0.02715583    -0.08467103    -0.00004695    -0.00014261     0.00062895
N        -0.03837949    -0.03514176     1.40183712    -0.00011402     0.00006806    -0.00044572
H         0.93999401     0.22398840    -0.71027652    -0.00063183     0.00086670    -0.00080152
H         0.83790878    -0.20865406     1.91590767    -0.00002406    -0.00047001     0.00029110
H        -1.00679289    -0.08468915     1.92748191     0.00153300    -0.00000340    -0.00028266
H        -1.03881909     0.21150826    -0.71254440     0.00126687     0.00036027    -0.00050755
     6
  Step:    43            Position(A)                                  Velocity(au)
C        -0.03482945    -0.02794574    -0.08109971    -0.00004744    -0.00014102     0.00065214
N        -0.03905184    -0.03476052     1.39928937    -0.00012587     0.00006876    -0.00046820
H         0.93625614     0.22877779    -0.71455164    -0.00070966     0.00085245    -0.00073203
H         0.83782285    -0.21129393     1.91753933    -0.00001265    -0.00047632     0.00029002
H        -0.99776965    -0.08467801     1.92560115     0.00169168     0.00000688    -0.00038594
H        -1.03153328     0.21346219    -0.71517172     0.00134509     0.00034184    -0.00043673
     6
  Step:    44            Position(A)                                  Velocity(au)
C        -0.03509424    -0.02872674    -0.07740628    -0.00004728    -0.00013917     0.00067155
N        -0.03978167    -0.03437579     1.39662146    -0.00013432     0.00006919    -0.00048800
H         0.93208849     0.23348456    -0.71843117    -0.00078427     0.00083559    -0.00065855
H         0.83776786    -0.21396016     1.91913845    -0.00001282    -0.00047858     0.00027893
H        -0.98794789    -0.08461256     1.92318258     0.00181500     0.00001600    -0.00047397
H        -1.02383503     0.21531635    -0.71740953     0.00141210     0.00032390    -0.00036722
     6