    14
  Step:     0            Position(A)                                  Velocity(au)
C        -5.98694054    -0.77790350    -0.04381187     0.00011032    -0.00029212     0.00000620
C        -4.67743867    -0.73655700     0.08856541    -0.00028200    -0.00004525    -0.00020345
H        -6.64412375     0.04267958    -0.39405948     0.00091004    -0.00055074     0.00073881
H        -6.48103975    -1.72087118     0.03584268     0.00026356     0.00022034     0.00019025
H        -4.06539470    -1.62531336     0.38437361    -0.00010444     0.00049829     0.00084415
C        -3.93418036     0.45951496    -0.11628520    -0.00011762     0.00040074     0.00001313
C        -2.56151445     0.55691062     0.18097735     0.00006300     0.00001502     0.00000546
H        -4.38536602     1.37675439    -0.42746286     0.00027426     0.00102917     0.00027930
H        -2.01353679    -0.33392636     0.45532111     0.00023749    -0.00038225     0.00058987
C        -1.85974551     1.73545588     0.01923660    -0.00029684    -0.00014713    -0.00007737
H        -2.38369959     2.66026860    -0.32039683     0.00093906     0.00003617    -0.00013300
N        -0.51725043     1.72722416     0.21055160     0.00020169    -0.00005237    -0.00000299
H        -0.01151388     2.62298895     0.14169059     0.00049995     0.00088853     0.00019532
H        -0.15954406     0.87100852     0.67918145     0.00041115    -0.00019265     0.00038747
    14
  Step:     1            Position(A)                                  Velocity(au)
C        -5.98625932    -0.78112606    -0.04387220     0.00001490    -0.00029746    -0.00001655
C        -4.67996651    -0.73698238     0.08640790    -0.00017754    -0.00003069    -0.00019062
H        -6.63338995     0.03648255    -0.38548002     0.00102768    -0.00055769     0.00081627
H        -6.47888088    -1.71927179     0.03823757     0.00012175     0.00005445     0.00024949
H        -4.06738564    -1.61927359     0.39342995    -0.00025534     0.00060040     0.00080776
C        -3.93575706     0.46381091    -0.11615477    -0.00017113     0.00038435     0.00001074
C        -2.56054351     0.55707038     0.18106187     0.00011376     0.00001204     0.00001049
H        -4.38330185     1.38857092    -0.42484056     0.00010853     0.00111446     0.00020469
H        -2.01073686    -0.33845485     0.46196804     0.00026136    -0.00042496     0.00061828
C        -1.86306345     1.73391652     0.01836092    -0.00030526    -0.00013425    -0.00008217
H        -2.37259043     2.65994462    -0.32152402     0.00107615    -0.00008556    -0.00007799
N        -0.51497732     1.72667452     0.21055507     0.00021415    -0.00004633     0.00000362
H        -0.00597355     2.63166873     0.14411479     0.00049043     0.00066185     0.00025030
H        -0.15478734     0.87027801     0.68283479     0.00045276     0.00006762     0.00027554
    14
  Step:     2            Position(A)                                  Velocity(au)
C        -5.98661466    -0.78441110    -0.04417398    -0.00007758    -0.00030447    -0.00003753
C        -4.68132268    -0.73722848     0.08439526    -0.00006997    -0.00001241    -0.00017728
H        -6.62164123     0.03047897    -0.37620211     0.00109077    -0.00051056     0.00086428
H        -6.47837618    -1.71968002     0.04130080    -0.00003469    -0.00013861     0.00031153
H        -4.07098085    -1.61217855     0.40204496    -0.00039295     0.00068649     0.00076548
C        -3.93792412     0.46792335    -0.11605023    -0.00022531     0.00036771     0.00000833
C        -2.55902571     0.55717401     0.18120679     0.00016267     0.00000499     0.00001641
H        -4.38299167     1.40113543    -0.42298482    -0.00004363     0.00116102     0.00014096
H        -2.00781912    -0.34322322     0.46884709     0.00025965    -0.00042661     0.00063224
C        -1.86642361     1.73251880     0.01743887    -0.00030427    -0.00012185    -0.00008566
H        -2.36015683     2.65839682    -0.32210295     0.00117808    -0.00018187    -0.00003497
N        -0.51256554     1.72621057     0.21063080     0.00022629    -0.00003683     0.00000996
H        -0.00078486     2.63746827     0.14716647     0.00044217     0.00037468     0.00030843
H        -0.14963900     0.87248788     0.68520938     0.00048635     0.00033420     0.00015897
    14
  Step:     3            Position(A)                                  Velocity(au)
C        -5.98795650    -0.78778699    -0.04469333    -0.00016407    -0.00031493    -0.00005600
C        -4.68149718    -0.73725378     0.08252963     0.00003634     0.00000970    -0.00016406
H        -6.60952718     0.02531297    -0.36657228     0.00109160    -0.00040185     0.00087955
H        -6.47963982    -1.72230414     0.04505297    -0.00019671    -0.00034127     0.00037429
H        -4.07598209    -1.60425527     0.41017636    -0.00050789     0.00074744     0.00072149
C        -3.94068605     0.47185519    -0.11597257    -0.00027948     0.00035167     0.00000583
C        -2.55698481     0.55717952     0.18142094     0.00020894    -0.00000558     0.00002301
H        -4.38425635     1.41397051    -0.42175680    -0.00017777     0.00116135     0.00009090
H        -2.00505661    -0.34778771     0.47579944     0.00023456    -0.00038981     0.00063214
C        -1.86971992     1.73125075     0.01648701    -0.00029338    -0.00011105    -0.00008747
H        -2.34681775     2.65596578    -0.32228900     0.00123940    -0.00024219    -0.00000803
N        -0.51002688     1.72586875     0.21077294     0.00023658    -0.00002423     0.00001551
H         0.00369970     2.63986557     0.15086230     0.00036873     0.00005365     0.00036650
H        -0.14414757     0.87758926     0.68631257     0.00051907     0.00058591     0.00004830
    14
  Step:     4            Position(A)                                  Velocity(au)
C        -5.99020397    -0.79130088    -0.04539905    -0.00024214    -0.00033028    -0.00007141
C        -4.68052760    -0.73701628     0.08080618     0.00013720     0.00003561    -0.00015158
H        -6.59776040     0.02168767    -0.35696037     0.00102742    -0.00022960     0.00086155
H        -6.48267966    -1.72714584     0.04948915    -0.00035454    -0.00053460     0.00043529
H        -4.08209193    -1.59582693     0.41782898    -0.00059161     0.00077505     0.00068011
C        -3.94403838     0.47561691    -0.11592271    -0.00033272     0.00033678     0.00000331
C        -2.55445471     0.55705186     0.18171009     0.00025156    -0.00001899     0.00002996
H        -4.38688072     1.42654218    -0.42099620    -0.00029171     0.00111257     0.00005569
H        -2.00268771    -0.35175097     0.48267629     0.00018995    -0.00032004     0.00061935
C        -1.87284182     1.73008926     0.01552535    -0.00027231    -0.00010270    -0.00008735
H        -2.33304256     2.65309843    -0.32227855     0.00125673    -0.00025840    -0.00000031
N        -0.50738996     1.72568043     0.21097003     0.00024351    -0.00000909     0.00001976
H         0.00728178     2.63864187     0.15518438     0.00028440    -0.00027316     0.00042147
H        -0.13828330     0.88530579     0.68626613     0.00055792     0.00080283    -0.00004634
    14
  Step:     5            Position(A)                                  Velocity(au)
C        -5.99325368    -0.79501256    -0.04625562    -0.00031021    -0.00035119    -0.00008357
C        -4.67849569    -0.73647476     0.07921351     0.00022888     0.00006518    -0.00014040
H        -6.58705049     0.02029004    -0.34772434     0.00090230    -0.00000000     0.00081333
H        -6.48739600    -1.73399945     0.05457571    -0.00049895    -0.00070091     0.00049188
H        -4.08892460    -1.58729966     0.42505498    -0.00063698     0.00076285     0.00064542
C        -3.94796493     0.47922283    -0.11590024    -0.00038388     0.00032320     0.00000093
C        -2.55148141     0.55676408     0.18207632     0.00028939    -0.00003447     0.00003691
H        -4.39063802     1.43831019    -0.42053837    -0.00038532     0.00101613     0.00003507
H        -2.00090100    -0.35478911     0.48934894     0.00013082    -0.00022484     0.00059605
C        -1.87567718     1.72900393     0.01457610    -0.00024105    -0.00009724    -0.00008517
H        -2.31932444     2.65031286    -0.32229570     0.00122932    -0.00022628    -0.00001347
N        -0.50469973     1.72566994     0.21120528     0.00024563     0.00000786     0.00002228
H         0.00992151     2.63388970     0.16008287     0.00020365    -0.00057736     0.00047061
H        -0.13194202     0.89515280     0.68529873     0.00060921     0.00096750    -0.00011595
    14
  Step:     6            Position(A)                                  Velocity(au)
C        -5.99699045    -0.79898375    -0.04722725    -0.00036773    -0.00037723    -0.00009263
C        -4.67552036    -0.73559045     0.07773459     0.00030843     0.00009806    -0.00013096
H        -6.57802082     0.02168767    -0.33916728     0.00072785     0.00027103     0.00074173
H        -6.49359520    -1.74247967     0.06025001    -0.00062250    -0.00082607     0.00054156
H        -4.09602704    -1.57913809     0.43194874    -0.00063930     0.00070723     0.00062073
C        -3.95243640     0.48268752    -0.11590242    -0.00043174     0.00031083    -0.00000107
C        -2.54812365     0.55629786     0.18251763     0.00032130    -0.00005120     0.00004350
H        -4.39531026     1.44877194    -0.42022898    -0.00046012     0.00087708     0.00002756
H        -1.99982583    -0.35666988     0.49571599     0.00006278    -0.00011312     0.00056496
C        -1.87811531     1.72796199     0.01366207    -0.00019992    -0.00009461    -0.00008098
H        -2.30614880     2.64814815    -0.32257327     0.00115951    -0.00014686    -0.00004721
N        -0.50201633     1.72585227     0.21145752     0.00024167     0.00002561     0.00002274
H         0.01173695     2.62601105     0.16547989     0.00014064    -0.00083126     0.00051158
H        -0.12495573     0.90647170     0.68372956     0.00067788     0.00106645    -0.00015349
    14
  Step:     7            Position(A)                                  Velocity(au)
C        -6.00129843    -0.80326518    -0.04828211    -0.00041505    -0.00040685    -0.00009912
C        -4.67174829    -0.73432953     0.07634850     0.00037378     0.00013366    -0.00012351
H        -6.57112749     0.02621926    -0.33149752     0.00052206     0.00055839     0.00065666
H        -6.50101445    -1.75207136     0.06642337    -0.00072022    -0.00090099     0.00058221
H        -4.10291062    -1.57182763     0.43863469    -0.00059716     0.00060849     0.00060792
C        -3.95741017     0.48602280    -0.11592356    -0.00047515     0.00029931    -0.00000239
C        -2.54445245     0.55564387     0.18302793     0.00034622    -0.00006838     0.00004935
H        -4.40070400     1.45749790    -0.41993549    -0.00051884     0.00070323     0.00003081
H        -1.99952758    -0.35726380     0.50170850    -0.00000826     0.00000550     0.00052921
C        -1.88005085     1.72693413     0.01280456    -0.00014959    -0.00009422    -0.00007501
H        -2.29395803     2.64710011    -0.32332851     0.00105280    -0.00002739    -0.00009885
N        -0.49941267     1.72623013     0.21170271     0.00023066     0.00004291     0.00002098
H         0.01299826     2.61570431     0.17127466     0.00010854    -0.00100931     0.00054260
H        -0.11711218     0.91848342     0.68194081     0.00076654     0.00109219    -0.00015513
    14
  Step:     8            Position(A)                                  Velocity(au)
C        -6.00607040    -0.80788438    -0.04939567    -0.00045322    -0.00043757    -0.00010377
C        -4.66734322    -0.73266639     0.07503259     0.00042389     0.00017104    -0.00011807
H        -6.56659966     0.03390349    -0.32480161     0.00030647     0.00083105     0.00056941
H        -6.50935150    -1.76219045     0.07298698    -0.00078985    -0.00092212     0.00061234
H        -4.10909102    -1.56582620     0.44524812    -0.00051304     0.00047180     0.00060676
C        -3.96283124     0.48923551    -0.11595479    -0.00051304     0.00028813    -0.00000277
C        -2.54054949     0.55480195     0.18359716     0.00036329    -0.00008514     0.00005411
H        -4.40666083     1.46415645    -0.41955501    -0.00056495     0.00050425     0.00004190
H        -2.00000657    -0.35654965     0.50729347    -0.00007644     0.00012106     0.00049217
C        -1.88138794     1.72590067     0.01202100    -0.00009112    -0.00009497    -0.00006773
H        -2.28311669     2.64754886    -0.32473575     0.00091757     0.00011862    -0.00016335
N        -0.49697027     1.72679091     0.21191653     0.00021209     0.00005826     0.00001714
H         0.01411154     2.60393050     0.17735025     0.00011828    -0.00109049     0.00056257
H        -0.10818629     0.93036535     0.68033572     0.00087442     0.00104504    -0.00012139
    14
  Step:     9            Position(A)                                  Velocity(au)
C        -6.01121345    -0.81283792    -0.05055228    -0.00048361    -0.00046652    -0.00010737
C        -4.66247480    -0.73058774     0.07376541     0.00045869     0.00020888    -0.00011441
H        -6.56442287     0.04440008    -0.31904048     0.00010192     0.00105753     0.00049055
H        -6.51829400    -1.77224441     0.07981951    -0.00083155    -0.00089095     0.00063117
H        -4.11413432    -1.56150600     0.45190875    -0.00039357     0.00030765     0.00061449
C        -3.96863386     0.49232621    -0.11598417    -0.00054450     0.00027669    -0.00000193
C        -2.53650483     0.55378125     0.18421159     0.00037186    -0.00010064     0.00005746
H        -4.41306338     1.46852932    -0.41901892    -0.00060235     0.00029089     0.00005759
H        -2.00119992    -0.35461528     0.51247573    -0.00013621     0.00022380     0.00045732
C        -1.88204419     1.72485658     0.01132292    -0.00002586    -0.00009537    -0.00005972
H        -2.27388433     2.64969525    -0.32690217     0.00076405     0.00027300    -0.00023387
N        -0.49477290     1.72750465     0.21207763     0.00018615     0.00007013     0.00001164
H         0.01558583     2.59184778     0.18358189     0.00017652    -0.00106196     0.00057121
H        -0.09798259     0.94134573     0.67928524     0.00099664     0.00093413    -0.00005781
    14
  Step:    10            Position(A)                                  Velocity(au)
C        -6.01665027    -0.81809037    -0.05174456    -0.00050753    -0.00049099    -0.00011057
C        -4.65730842    -0.72809677     0.07252961     0.00047892     0.00024553    -0.00011203
H        -6.56437003     0.05703896    -0.31406983    -0.00007518     0.00121174     0.00042803
H        -6.52754320    -1.78168163     0.08679507    -0.00084737    -0.00081293     0.00063861
H        -4.11770121    -1.55909585     0.45869133    -0.00024890     0.00013110     0.00062587
C        -3.97474333     0.49528859    -0.11599695    -0.00056882     0.00026435     0.00000038
C        -2.53241425     0.55260032     0.18485423     0.00037155    -0.00011402     0.00005914
H        -4.41983843     1.47052020    -0.41829520    -0.00063512     0.00007448     0.00007448
H        -2.00298637    -0.35165352     0.51729824    -0.00018260     0.00030460     0.00042804
C        -1.88195357     1.72381422     0.01071454     0.00004462    -0.00009387    -0.00005167
H        -2.26640154     2.65352131    -0.32985219     0.00060307     0.00041550    -0.00030270
N        -0.49289793     1.72832520     0.21217111     0.00015390     0.00007729     0.00000521
H         0.01797326     2.58069807     0.18984650     0.00028329    -0.00092319     0.00056907
H        -0.08638297     0.95080123     0.67907109     0.00112405     0.00077678     0.00002517
    14
  Step:    11            Position(A)                                  Velocity(au)
C        -6.02231665    -0.82357933    -0.05297128    -0.00052600    -0.00050890    -0.00011382
C        -4.65199745    -0.72521623     0.07131446     0.00048591     0.00027915    -0.00011026
H        -6.56606761     0.07090927    -0.30967647    -0.00021495     0.00127704     0.00038621
H        -6.53683191    -1.79002871     0.09379040    -0.00084079    -0.00069633     0.00063524
H        -4.11957941    -1.55863783     0.46560086    -0.00009123    -0.00003996     0.00063383
C        -3.98107780     0.49810931    -0.11597592    -0.00058540     0.00025050     0.00000434
C        -2.52837646     0.55128682     0.18550530     0.00036223    -0.00012448     0.00005890
H        -4.42695788     1.47015865    -0.41738963    -0.00066736    -0.00013354     0.00008918
H        -2.00519473    -0.34795164     0.52183983    -0.00021164     0.00035564     0.00040737
C        -1.88106800     1.72280294     0.01019253     0.00011863    -0.00008909    -0.00004424
H        -2.26069104     2.65878520    -0.33352437     0.00044473     0.00052706    -0.00036243
N        -0.49140609     1.72919561     0.21219151     0.00011734     0.00007920    -0.00000121
H         0.02178328     2.57165128     0.19603128     0.00043000    -0.00068890     0.00055736
H        -0.07339175     0.95833928     0.67983592     0.00124410     0.00059618     0.00011356
    14
  Step:    12            Position(A)                                  Velocity(au)
C        -6.02815752    -0.82922364    -0.05423468    -0.00053965    -0.00051898    -0.00011733
C        -4.64667819    -0.72198978     0.07011742     0.00048130     0.00030789    -0.00010834
H        -6.56907257     0.08497655    -0.30562072    -0.00031427     0.00124761     0.00036590
H        -6.54593702    -1.79691529     0.10069220    -0.00081615    -0.00055124     0.00062218
H        -4.11969701    -1.55997016     0.47255751     0.00006694    -0.00018756     0.00063066
C        -3.98755014     0.50076873    -0.11590198    -0.00059386     0.00023461     0.00001011
C        -2.52448968     0.54987702     0.18614288     0.00034411    -0.00013131     0.00005661
H        -4.43443812     1.46759879    -0.41634432    -0.00070301    -0.00032206     0.00009846
H        -2.00761632    -0.34387313     0.52621023    -0.00022069     0.00037126     0.00039773
C        -1.87935842     1.72186519     0.00974681     0.00019446    -0.00008010    -0.00003795
H        -2.25667233     2.66505186    -0.33778113     0.00029738     0.00059270    -0.00040703
N        -0.49033082     1.73005780     0.21214457     0.00007933     0.00007628    -0.00000660
H         0.02738038     2.56562701     0.20203982     0.00059904    -0.00038919     0.00053761
H        -0.05916595     0.96384372     0.68155533     0.00134255     0.00041738     0.00019212
    14
  Step:    13            Position(A)                                  Velocity(au)
C        -6.03412251    -0.83493294    -0.05553800    -0.00054877    -0.00052071    -0.00012110
C        -4.64146811    -0.71848060     0.06894437     0.00046678     0.00033011    -0.00010555
H        -6.57294292     0.09820304    -0.30167167    -0.00037541     0.00112732     0.00036525
H        -6.55468681    -1.80208819     0.10740183    -0.00077834    -0.00038861     0.00060097
H        -4.11811493    -1.56274098     0.47939783     0.00021461    -0.00029622     0.00060945
C        -3.99406957     0.50324188    -0.11575471    -0.00059392     0.00021628     0.00001778
C        -2.52084836     0.54841426     0.18674378     0.00031769    -0.00013394     0.00005220
H        -4.44233752     1.46311288    -0.41523566    -0.00074566    -0.00048088     0.00009937
H        -2.01002283    -0.33982951     0.53054098    -0.00020898     0.00034874     0.00040050
C        -1.87681388     1.72105055     0.00936233     0.00027049    -0.00006658    -0.00003317
H        -2.25418527     2.67175157    -0.34242898     0.00016709     0.00060338    -0.00043254
N        -0.48967057     1.73086430     0.21204709     0.00004320     0.00006995    -0.00001003
H         0.03488836     2.56313694     0.20779242     0.00076580    -0.00006527     0.00051114
H        -0.04402098     0.96747036     0.68403884     0.00140588     0.00026298     0.00024705
    14
  Step:    14            Position(A)                                  Velocity(au)
C        -6.04016283    -0.84061515    -0.05688392    -0.00055338    -0.00051420    -0.00012505
C        -4.63646643    -0.71476810     0.06780836     0.00044390     0.00034454    -0.00010133
H        -6.57728540     0.10963882    -0.29763017    -0.00040411     0.00092709     0.00038073
H        -6.56296463    -1.80541695     0.11383964    -0.00073240    -0.00021965     0.00057350
H        -4.11500209    -1.56645059     0.48589044     0.00034351    -0.00035521     0.00056519
C        -4.00054338     0.50550030    -0.11551311    -0.00058551     0.00019531     0.00002735
C        -2.51753956     0.54694682     0.18728479     0.00028381    -0.00013207     0.00004572
H        -4.45075088     1.45707857    -0.41417048    -0.00079824    -0.00060140     0.00008945
H        -2.01218808    -0.33624370     0.53497199    -0.00017781     0.00028901     0.00041570
C        -1.87344083     1.72040854     0.00902125     0.00034520    -0.00004885    -0.00003005
H        -2.25301693     2.67825205    -0.34724376     0.00005754     0.00055660    -0.00043730
N        -0.48938567     1.73158808     0.21192523     0.00001231     0.00006231    -0.00001077
H         0.04413376     2.56419906     0.21322206     0.00090327     0.00023844     0.00047881
H        -0.02840966     0.96959682     0.68696005     0.00142353     0.00014948     0.00026826
    14
  Step:    15            Position(A)                                  Velocity(au)
C        -6.04622886    -0.84618212    -0.05827363    -0.00055337    -0.00049996    -0.00012903
C        -4.63175694    -0.71094318     0.06672752     0.00041391     0.00035037    -0.00009534
H        -6.58178354     0.11848484    -0.29334242    -0.00040778     0.00066207     0.00040803
H        -6.57070956    -1.80689355     0.11994827    -0.00068339    -0.00005535     0.00054191
H        -4.11060003    -1.57051192     0.49176239     0.00044866    -0.00035948     0.00049544
C        -4.00687876     0.50751473    -0.11515644    -0.00056869     0.00017179     0.00003875
C        -2.51463944     0.54552503     0.18774404     0.00024361    -0.00012566     0.00003738
H        -4.45980052     1.44995612    -0.41327878    -0.00086261    -0.00067760     0.00006707
H        -2.01391277    -0.33350690     0.53963531    -0.00013083     0.00019708     0.00044176
C        -1.86926202     1.71998190     0.00870497     0.00041712    -0.00002775    -0.00002859
H        -2.25292650     2.68392821    -0.35199568    -0.00002962     0.00045553    -0.00042171
N        -0.48940128     1.73222736     0.21181141    -0.00001052     0.00005558    -0.00000843
H         0.05464909     2.56835337     0.21826738     0.00098751     0.00048330     0.00044086
H        -0.01287842     0.97074053     0.68990763     0.00138947     0.00008557     0.00025063
    14
  Step:    16            Position(A)                                  Velocity(au)
C        -6.05226896    -0.85155271    -0.05970663    -0.00054852    -0.00047871    -0.00013288
C        -4.62741128    -0.70710308     0.06572254     0.00037779     0.00034724    -0.00008745
H        -6.58620643     0.12412293    -0.28870380    -0.00039433     0.00034949     0.00044264
H        -6.57791507    -1.80662776     0.12569492    -0.00063609     0.00009395     0.00050849
H        -4.10518670    -1.57431492     0.49672908     0.00052813    -0.00030949     0.00040038
C        -4.01298461     0.50925847    -0.11466533    -0.00054374     0.00014612     0.00005181
C        -2.51221020     0.54419783     0.18810257     0.00019848    -0.00011499     0.00002751
H        -4.46962223     1.44225482    -0.41270314    -0.00093916    -0.00070699     0.00003172
H        -2.01505031    -0.33193213     0.54463628    -0.00007387     0.00008199     0.00047541
C        -1.86431555     1.71980141     0.00839586     0.00048490    -0.00000455    -0.00002864
H        -2.25366483     2.68821757    -0.35646943    -0.00009432     0.00030780    -0.00038782
N        -0.48961584     1.73280404     0.21174073    -0.00002338     0.00005166    -0.00000293
H         0.06573738     2.57477222     0.22286681     0.00100236     0.00064329     0.00039717
H         0.00198765     0.97146877     0.69244297     0.00130273     0.00007204     0.00019410
    14
  Step:    17            Position(A)                                  Velocity(au)
C        -6.05822879    -0.85665487    -0.06118069    -0.00053855    -0.00045136    -0.00013646
C        -4.62349214    -0.70334672     0.06481434     0.00033621     0.00033516    -0.00007773
H        -6.59041017     0.12613070    -0.28365893    -0.00037154     0.00000741     0.00048016
H        -6.58462529    -1.80483826     0.13107244    -0.00059485     0.00021891     0.00047557
H        -4.09904616    -1.57728257     0.50052136     0.00058244    -0.00021034     0.00028244
C        -4.01877406     0.51071139    -0.11402303    -0.00051115     0.00011910     0.00006621
C        -2.51029740     0.54300938     0.18834583     0.00015001    -0.00010062     0.00001656
H        -4.48034637     1.43448944    -0.41258490    -0.00102633    -0.00069132    -0.00001577
H        -2.01552883    -0.33171330     0.55003580    -0.00001437    -0.00004416     0.00051200
C        -1.85865386     1.71988227     0.00807843     0.00054729     0.00001924    -0.00002997
H        -2.25498999     2.69066199    -0.36047999    -0.00013775     0.00012416    -0.00033888
N        -0.48991272     1.73335756     0.21174736    -0.00002543     0.00005179     0.00000552
H         0.07657755     2.58242655     0.22695634     0.00094161     0.00070771     0.00034759
H         0.01562133     0.97231643     0.69415391     0.00116721     0.00010303     0.00010303
    14
  Step:    18            Position(A)                                  Velocity(au)
C        -6.06405074    -0.86142713    -0.06269193    -0.00052317    -0.00041896    -0.00013960
C        -4.62005612    -0.69977071     0.06402211     0.00028966     0.00031452    -0.00006640
H        -6.59433449     0.12428508    -0.27819930    -0.00034690    -0.00034595     0.00051645
H        -6.59092851    -1.80183858     0.13609889    -0.00056322     0.00031183     0.00044534
H        -4.09244469    -1.57891652     0.50290790     0.00061392    -0.00007064     0.00014577
C        -4.02416709     0.51186402    -0.11321678    -0.00047170     0.00009187     0.00008154
C        -2.50892845     0.54199657     0.18846482     0.00009987    -0.00008327     0.00000506
H        -4.49207518     1.42713090    -0.41304817    -0.00112041    -0.00063695    -0.00007303
H        -2.01536479    -0.33289822     0.55583728     0.00003947    -0.00016766     0.00054603
C        -1.85234251     1.72022234     0.00774011     0.00060314     0.00004203    -0.00003231
H        -2.25667837     2.69093372    -0.36388299    -0.00016191    -0.00008292    -0.00027885
N        -0.49017217     1.73393710     0.21186150    -0.00001685     0.00005653     0.00001645
H         0.08633701     2.59025473     0.23047111     0.00080868     0.00067994     0.00029223
H         0.02752260     0.97372273     0.69469704     0.00099076     0.00016793    -0.00001500
    14
  Step:    19            Position(A)                                  Velocity(au)
C        -6.06967409    -0.86582041    -0.06423469    -0.00050211    -0.00038275    -0.00014213
C        -4.61715538    -0.69646598     0.06336177     0.00023849     0.00028596    -0.00005380
H        -6.59799920     0.11856246    -0.27236056    -0.00032765    -0.00069228     0.00054757
H        -6.59694688    -1.79801646     0.14081507    -0.00054365     0.00036716     0.00041965
H        -4.08561546    -1.57882787     0.50371038     0.00062600     0.00009882    -0.00000438
C        -4.02909332     0.51272132    -0.11223913    -0.00042638     0.00006586     0.00009726
C        -2.50811249     0.54118769     0.18845651     0.00004969    -0.00006371    -0.00000645
H        -4.50485758     1.42055495    -0.41418263    -0.00121550    -0.00055449    -0.00013623
H        -2.01466528    -0.33538127     0.56198123     0.00007983    -0.00027515     0.00057190
C        -1.84545909     1.72080169     0.00737155     0.00065142     0.00006222    -0.00003535
H        -2.25853207     2.68884789    -0.36658046    -0.00016944    -0.00030017    -0.00021214
N        -0.49028130     1.73459431     0.21210719     0.00000140     0.00006588     0.00002923
H         0.09426902     2.59730162     0.23334947     0.00061448     0.00057390     0.00023158
H         0.03729610     0.97599021     0.69382570     0.00078416     0.00025316    -0.00015043
    14
  Step:    20            Position(A)                                  Velocity(au)
C        -6.07503526    -0.86980045    -0.06580128    -0.00047514    -0.00034423    -0.00014384
C        -4.61483874    -0.69351481     0.06284502     0.00018301     0.00025041    -0.00004037
H        -6.60150249     0.10914019    -0.26622024    -0.00032101    -0.00101306     0.00056976
H        -6.60282182    -1.79380622     0.14527965    -0.00053702     0.00038224     0.00039981
H        -4.07874971    -1.57675460     0.50281198     0.00062278     0.00028595    -0.00016219
C        -4.03349498     0.51330482    -0.11108898    -0.00037647     0.00004257     0.00011277
C        -2.50784141     0.54060271     0.18832371     0.00000094    -0.00004265    -0.00001748
H        -4.51866651     1.41500027    -0.41602855    -0.00130394    -0.00045756    -0.00020041
H        -2.01361839    -0.33891776     0.56834877     0.00010019    -0.00035540     0.00058474
C        -1.83809143     1.72158347     0.00696668     0.00069129     0.00007833    -0.00003881
H        -2.26038524     2.68436695    -0.36852394    -0.00016351    -0.00051417    -0.00014332
N        -0.49014159     1.73537824     0.21250088     0.00002778     0.00007944     0.00004313