     6
  Step:     0            Position(A)                                  Velocity(au)
C        -0.03833835     0.01638033     0.03560769     0.00011100     0.00003450     0.00008285
N        -0.04208662    -0.03776158     1.28168926    -0.00014984     0.00000277    -0.00003051
H         0.93968303    -0.02670484    -0.53917052    -0.00069167    -0.00003894    -0.00006957
H         0.80801383    -0.22431482     1.84890214     0.00130791    -0.00035838     0.00081502
H        -0.92771016    -0.11954114     1.86392314     0.00071513     0.00022405    -0.00114341
H        -0.99123199     0.03034114    -0.51672123    -0.00057181    -0.00027631    -0.00016530
     6
  Step:     1            Position(A)                                  Velocity(au)
C        -0.03771709     0.01657698     0.03581214     0.00011579     0.00003745    -0.00000827
N        -0.04291794    -0.03775145     1.28176888    -0.00015239     0.00000076     0.00005980
H         0.93576485    -0.02689709    -0.53961335    -0.00073799    -0.00003146    -0.00009446
H         0.81511378    -0.22631532     1.85335582     0.00127248    -0.00036972     0.00080266
H        -0.92354080    -0.11831305     1.85750593     0.00079812     0.00022386    -0.00119397
H        -0.99443371     0.02882188    -0.51785743    -0.00059465    -0.00027952    -0.00024675
     6
  Step:     2            Position(A)                                  Velocity(au)
C        -0.03707180     0.01678997     0.03551724     0.00011975     0.00004045    -0.00009910
N        -0.04375355    -0.03775323     1.28234343    -0.00015140    -0.00000153     0.00014975
H         0.93161058    -0.02704901    -0.54020381    -0.00077743    -0.00002421    -0.00012388
H         0.82193270    -0.22835900     1.85768191     0.00120689    -0.00037451     0.00076961
H        -0.91898001    -0.11709243     1.85086307     0.00085631     0.00022116    -0.00122461
H        -0.99773645     0.02728369    -0.51942030    -0.00060883    -0.00028318    -0.00032127
     6
  Step:     3            Position(A)                                  Velocity(au)
C        -0.03640718     0.01701940     0.03472812     0.00012280     0.00004343    -0.00018832
N        -0.04457403    -0.03776815     1.28340697    -0.00014684    -0.00000398     0.00023787
H         0.92726084    -0.02716189    -0.54096842    -0.00080878    -0.00001720    -0.00015844
H         0.82831541    -0.23041194     1.86177430     0.00111464    -0.00037341     0.00071843
H        -0.91417394    -0.11589382     1.84411046     0.00088584     0.00021565    -0.00123274
H        -1.00109342     0.02572426    -0.52137165    -0.00061451    -0.00028719    -0.00038875
     6
  Step:     4            Position(A)                                  Velocity(au)
C        -0.03572837     0.01726504     0.03345706     0.00012485     0.00004633    -0.00027460
N        -0.04535991    -0.03779678     1.28494566    -0.00013871    -0.00000648     0.00032270
H         0.92276280    -0.02723714    -0.54193707    -0.00083080    -0.00001046    -0.00019870
H         0.83412653    -0.23244400     1.86554136     0.00099938    -0.00036711     0.00065179
H        -0.90928921    -0.11473330     1.83737729     0.00088317     0.00020705    -0.00121612
H        -1.00445905     0.02414197    -0.52367311    -0.00061194    -0.00029138    -0.00044915
     6
  Step:     5            Position(A)                                  Velocity(au)
C        -0.03504109     0.01752631     0.03172343     0.00012578     0.00004908    -0.00035664
N        -0.04609174    -0.03783910     1.28693795    -0.00012704    -0.00000893     0.00040283
H         0.91817026    -0.02727636    -0.54314255    -0.00084230    -0.00000404    -0.00024511
H         0.83925055    -0.23442886     1.86890617     0.00086478    -0.00035631     0.00057241
H        -0.90451030    -0.11362833     1.83080373     0.00084543     0.00019515    -0.00117305
H        -1.00778926     0.02253598    -0.52628622    -0.00060140    -0.00029561    -0.00050244
     6
  Step:     6            Position(A)                                  Velocity(au)
C        -0.03435160     0.01780227     0.02955346     0.00012550     0.00005163    -0.00043317
N        -0.04675038    -0.03789448     1.28935489    -0.00011192    -0.00001120     0.00047695
H         0.91354330    -0.02728135    -0.54461991    -0.00084219     0.00000203    -0.00029797
H         0.84359208    -0.23634397     1.87180677     0.00071459    -0.00034169     0.00048307
H        -0.90003555    -0.11259727     1.82453758     0.00077070     0.00017985    -0.00110262
H        -1.01104177     0.02090630    -0.52917265    -0.00058326    -0.00029972    -0.00054864
     6
  Step:     7            Position(A)                                  Velocity(au)
C        -0.03366675     0.01809169     0.02697989     0.00012391     0.00005391    -0.00050304
N        -0.04731738    -0.03796177     1.29216089    -0.00009356    -0.00001322     0.00054388
H         0.90894765    -0.02725409    -0.54640555    -0.00082953     0.00000772    -0.00035740
H         0.84707590    -0.23817061     1.87419618     0.00055259    -0.00032397     0.00038655
H        -0.89607055    -0.11165886     1.81872922     0.00065856     0.00016115    -0.00100499
H        -1.01417640     0.01925384    -0.53229430    -0.00055793    -0.00030353    -0.00058779
     6
  Step:     8            Position(A)                                  Velocity(au)
C        -0.03299387     0.01839299     0.02404133     0.00012092     0.00005587    -0.00056522
N        -0.04777559    -0.03803936     1.29531449    -0.00007227    -0.00001491     0.00060263
H         0.90445365    -0.02719675    -0.54853621    -0.00080365     0.00001299    -0.00042329
H         0.84964712    -0.23989393     1.87604241     0.00038259    -0.00030388     0.00028563
H        -0.89281930    -0.11083140     1.81352524     0.00051036     0.00013925    -0.00088160
H        -1.01715536     0.01758038    -0.53561345    -0.00052590    -0.00030688    -0.00061996
     6
  Step:     9            Position(A)                                  Velocity(au)
C        -0.03234075     0.01870434     0.02078155     0.00011647     0.00005745    -0.00061884
N        -0.04810987    -0.03812526     1.29876950    -0.00004850    -0.00001620     0.00065245
H         0.90013467    -0.02711165    -0.55104748    -0.00076424     0.00001782    -0.00049522
H         0.85127150    -0.24150306     1.87732842     0.00020852    -0.00028218     0.00018310
H        -0.89047384    -0.11013184     1.80906144     0.00032952     0.00011448    -0.00073522
H        -1.01994357     0.01588855    -0.53909287    -0.00048772    -0.00030962    -0.00064524
     6
  Step:    10            Position(A)                                  Velocity(au)
C        -0.03171541     0.01902365     0.01724858     0.00011056     0.00005863    -0.00066321
N        -0.04830794    -0.03821718     1.30247620    -0.00002288    -0.00001705     0.00069280
H         0.89606488    -0.02700116    -0.55397208    -0.00071146     0.00002221    -0.00057244
H         0.85193596    -0.24299129     1.87805221     0.00003437    -0.00025965     0.00008176
H        -0.88920232    -0.10957478     1.80545498     0.00012166     0.00008740    -0.00057007
H        -1.02250891     0.01418175    -0.54269598    -0.00044399    -0.00031163    -0.00066378
     6
  Step:    11            Position(A)                                  Velocity(au)
C        -0.03112587     0.01934863     0.01349366     0.00010320     0.00005936    -0.00069786
N        -0.04836131    -0.03831265     1.30638254     0.00000381    -0.00001744     0.00072338
H         0.89231657    -0.02686760    -0.55733792    -0.00064598     0.00002618    -0.00065382
H         0.85164924    -0.24435634     1.87822689    -0.00013572    -0.00023715    -0.00001558
H        -0.88913696    -0.10917141     1.80279703    -0.00010550     0.00005872    -0.00039158
H        -1.02482255     0.01246410    -0.54638700    -0.00039538    -0.00031278    -0.00067575
     6
  Step:    12            Position(A)                                  Velocity(au)
C        -0.03057995     0.01967683     0.00957013     0.00009447     0.00005963    -0.00072253
N        -0.04826606    -0.03840907     1.31043553     0.00003066    -0.00001735     0.00074417
H         0.88895726    -0.02671315    -0.56116604    -0.00056903     0.00002976    -0.00073790
H         0.85044262    -0.24560062     1.87788075    -0.00029758    -0.00021555    -0.00010617
H        -0.89036318    -0.10892867     1.80114650    -0.00034254     0.00002930    -0.00020613
H        -1.02685921     0.01074031    -0.55013116    -0.00034259    -0.00031297    -0.00068137
     6
  Step:    13            Position(A)                                  Velocity(au)
C        -0.03008491     0.02000567     0.00553226     0.00008452     0.00005941    -0.00073722
N        -0.04802351    -0.03850380     1.31458240     0.00005668    -0.00001677     0.00075534
H         0.88604658    -0.02653967    -0.56546862    -0.00048240     0.00003303    -0.00082285
H         0.84837031    -0.24673144     1.87705702    -0.00044698    -0.00019577    -0.00018731
H        -0.89291133    -0.10884858     1.80052576    -0.00057891     0.00000007    -0.00002063
H        -1.02859744     0.00901557    -0.55389487    -0.00028640    -0.00031214    -0.00068093
     6
  Step:    14            Position(A)                                  Velocity(au)
C        -0.02964721     0.02033250     0.00143402     0.00007352     0.00005871    -0.00074214
N        -0.04764056    -0.03859420     1.31877164     0.00008085    -0.00001573     0.00075727
H         0.88363337    -0.02634862    -0.57024723    -0.00038839     0.00003607    -0.00090663
H         0.84550958    -0.24776124     1.87581355    -0.00057984    -0.00017876    -0.00025646
H        -0.89675222    -0.10892785     1.80091877    -0.00080377    -0.00002799     0.00015797
H        -1.03001999     0.00729541    -0.55764613    -0.00022766    -0.00031027    -0.00067481
     6
  Step:    15            Position(A)                                  Velocity(au)
C        -0.02927213     0.02065468    -0.00267221     0.00006173     0.00005753    -0.00073779
N        -0.04712965    -0.03867770     1.32295413     0.00010222    -0.00001423     0.00075057
H         0.88175286    -0.02614089    -0.57549150    -0.00028973     0.00003899    -0.00098705
H         0.84196004    -0.24870762     1.87422185    -0.00069236    -0.00016542    -0.00031134
H        -0.90179717    -0.10915800     1.80227215    -0.00100678    -0.00005396     0.00032325
H        -1.03111420     0.00558546    -0.56135499    -0.00016726    -0.00030735    -0.00066348
     6
  Step:    16            Position(A)                                  Velocity(au)
C        -0.02896355     0.02096962    -0.00673696     0.00004943     0.00005590    -0.00072493
N        -0.04650843    -0.03875180     1.32708413     0.00011996    -0.00001229     0.00073603
H         0.88042462    -0.02591685    -0.58117876    -0.00018943     0.00004190    -0.00106200
H         0.83784174    -0.24959327     1.87236543    -0.00078128    -0.00015665    -0.00035010
H        -0.90790223    -0.10952546     1.80449875    -0.00117917    -0.00007706     0.00046981
H        -1.03187238     0.00389153    -0.56499409    -0.00010614    -0.00030345    -0.00064755
     6
  Step:    17            Position(A)                                  Velocity(au)
C        -0.02872375     0.02127487    -0.01071513     0.00003691     0.00005386    -0.00070456
N        -0.04579869    -0.03881408     1.33112020     0.00013346    -0.00000994     0.00071461
H         0.87965112    -0.02567599    -0.58727414    -0.00009060     0.00004497    -0.00112955
H         0.83329189    -0.25044562     1.87033757    -0.00084414    -0.00015323    -0.00037137
H        -0.91487978    -0.11001296     1.80748466    -0.00131448    -0.00009672     0.00059373
H        -1.03229176     0.00221871    -0.56853939    -0.00004518    -0.00029875    -0.00062777
     6
  Step:    18            Position(A)                                  Velocity(au)
C        -0.02855332     0.02156822    -0.01456721     0.00002449     0.00005147    -0.00067791
N        -0.04502523    -0.03886222     1.33502613     0.00014234    -0.00000718     0.00068745
H         0.87941770    -0.02541703    -0.59373226     0.00000383     0.00004835    -0.00118825
H         0.82846015    -0.25129624     1.86823808    -0.00087948    -0.00015583    -0.00037445
H        -0.92251101    -0.11060038     1.81109728    -0.00140890    -0.00011259     0.00069269
H        -1.03237454     0.00057126    -0.57197094     0.00001475    -0.00029347    -0.00060502
     6
  Step:    19            Position(A)                                  Velocity(au)
C        -0.02845114     0.02184776    -0.01826050     0.00001245     0.00004879    -0.00064635
N        -0.04421444    -0.03889399     1.33877177     0.00014650    -0.00000404     0.00065576
H         0.87969376    -0.02513783    -0.60049987     0.00009128     0.00005219    -0.00123722
H         0.82350293    -0.25218005     1.86616977    -0.00088695    -0.00016497    -0.00035930
H        -0.93056139    -0.11126610     1.81519456    -0.00146142    -0.00012454     0.00076611
H        -1.03212755    -0.00104776    -0.57527354     0.00007296    -0.00028789    -0.00058029
     6
  Step:    20            Position(A)                                  Velocity(au)
C        -0.02841458     0.02211195    -0.02176977    -0.00000001     0.00004741    -0.00065601
N        -0.04339276    -0.03890729     1.34233352     0.00014586    -0.00000068     0.00065508
H         0.88043492    -0.02483551    -0.60751908     0.00015342     0.00010752    -0.00123408
H         0.81857653    -0.25313455     1.86423427    -0.00088884    -0.00024289    -0.00034783
H        -0.93879615    -0.11198820     1.81963428    -0.00145584    -0.00008251     0.00081355
H        -1.03156154    -0.00263683    -0.57843736     0.00016452    -0.00033760    -0.00051786
     6
  Step:    21            Position(A)                                  Velocity(au)
C        -0.02845129     0.02237649    -0.02557660    -0.00001306     0.00004769    -0.00071163
N        -0.04258777    -0.03890157     1.34607752     0.00014074     0.00000238     0.00068979
H         0.88140476    -0.02393876    -0.61426279     0.00018839     0.00019660    -0.00117689
H         0.81359020    -0.25488887     1.86229066    -0.00088668    -0.00036871    -0.00034190
H        -0.94679753    -0.11218632     1.82426763    -0.00139211    -0.00000431     0.00083027
H        -1.03029274    -0.00481277    -0.58104890     0.00029024    -0.00042497    -0.00041727
     6
  Step:    22            Position(A)                                  Velocity(au)
C        -0.02856027     0.02264415    -0.02971060    -0.00002548     0.00004816    -0.00076769
N        -0.04182232    -0.03888073     1.35003067     0.00013167     0.00000518     0.00072512
H         0.88253708    -0.02264174    -0.62065158     0.00021320     0.00026138    -0.00110970
H         0.80868237    -0.25724882     1.86041910    -0.00085861    -0.00047219    -0.00032038
H        -0.95433024    -0.11203627     1.82889905    -0.00129217     0.00005226     0.00081914
H        -1.02832284    -0.00737897    -0.58309356     0.00041143    -0.00048738    -0.00031768
     6
  Step:    23            Position(A)                                  Velocity(au)
C        -0.02873567     0.02291412    -0.03414611    -0.00003672     0.00004845    -0.00081855
N        -0.04111798    -0.03884371     1.35417177     0.00011901     0.00000826     0.00075615
H         0.88378465    -0.02102103    -0.62665004     0.00023030     0.00031497    -0.00103780
H         0.80400577    -0.26015981     1.85871434    -0.00080406    -0.00056880    -0.00028234
H        -0.96122163    -0.11160296     1.83341141    -0.00116512     0.00009940     0.00079001
H        -1.02570007    -0.01025321    -0.58459504     0.00052254    -0.00053769    -0.00022370
     6
  Step:    24            Position(A)                                  Velocity(au)
C        -0.02897018     0.02318506    -0.03884898    -0.00004659     0.00004851    -0.00086333
N        -0.04049363    -0.03878850     1.35847241     0.00010329     0.00001174     0.00078218
H         0.88510817    -0.01912543    -0.63223774     0.00024101     0.00036119    -0.00096343
H         0.79970577    -0.26359895     1.85726699    -0.00072498    -0.00066283    -0.00022898
H        -0.96733778    -0.11092661     1.83771876    -0.00101745     0.00014040     0.00074779
H        -1.02248914    -0.01338179    -0.58559093     0.00062118    -0.00057996    -0.00013736
     6
  Step:    25            Position(A)                                  Velocity(au)
C        -0.02925573     0.02345560    -0.04378346    -0.00005497     0.00004834    -0.00090197
N        -0.03996494    -0.03871263     1.36290324     0.00008508     0.00001568     0.00080323
H         0.88647505    -0.01698904    -0.63740476     0.00024649     0.00040225    -0.00088815
H         0.79591287    -0.26755891     1.85615829    -0.00062440    -0.00075647    -0.00016219
H        -0.97257939    -0.11003568     1.84175900    -0.00085495     0.00017696     0.00069639
H        -1.01876583    -0.01672725    -0.58612834     0.00070558    -0.00061661    -0.00006012
     6
  Step:    26            Position(A)                                  Velocity(au)
C        -0.02958368     0.02372447    -0.04891455    -0.00006179     0.00004796    -0.00093459
N        -0.03954413    -0.03861351     1.36743610     0.00006500     0.00002008     0.00081951
H         0.88785889    -0.01463646    -0.64214910     0.00024777     0.00043957    -0.00081310
H         0.79273776    -0.27204091     1.85545696    -0.00050614    -0.00085082    -0.00008442
H        -0.97687868    -0.10895181     1.84549017    -0.00068278     0.00021007     0.00063902
H        -1.01461512    -0.02026287    -0.58626180     0.00077420    -0.00064930     0.00000688
     6
  Step:    27            Position(A)                                  Velocity(au)
C        -0.02994500     0.02399054    -0.05420866    -0.00006697     0.00004739    -0.00096137
N        -0.03923987    -0.03848864     1.37204478     0.00004367     0.00002491     0.00083131
H         0.88923884    -0.01208567    -0.64647473     0.00024576     0.00047413    -0.00073911
H         0.79026700    -0.27704966     1.85521658    -0.00037473    -0.00094607     0.00000150
H        -0.98019565    -0.10769236     1.84888713    -0.00050551     0.00024034     0.00057837
H        -1.01012982    -0.02397010    -0.58605160     0.00082560    -0.00067926     0.00006271
     6
  Step:    28            Position(A)                                  Velocity(au)
C        -0.03033033     0.02425284    -0.05963348    -0.00007044     0.00004666    -0.00098238
N        -0.03905721    -0.03833575     1.37670498     0.00002175     0.00003011     0.00083887
H         0.89059899    -0.00935010    -0.65038989     0.00024126     0.00050654    -0.00066677
H         0.78855968    -0.28258933     1.85547366    -0.00023528    -0.00104173     0.00009238
H        -0.98251496    -0.10627207     1.85193884    -0.00032730     0.00026813     0.00051673
H        -1.00541000    -0.02783643    -0.58556264     0.00085844    -0.00070735     0.00010661
     6
  Step:    29            Position(A)                                  Velocity(au)
C        -0.03073003     0.02451057    -0.06515746    -0.00007214     0.00004579    -0.00099764
N        -0.03899748    -0.03815306     1.38139405    -0.00000010     0.00003558     0.00084235
H         0.89192775    -0.00644025    -0.65390591     0.00023500     0.00053718    -0.00059653
H         0.78764481    -0.28865992     1.85624615    -0.00009334    -0.00113667     0.00018480
H        -0.98384348    -0.10470402     1.85464614    -0.00015205     0.00029359     0.00045606
H        -1.00056245    -0.03185363    -0.58486342     0.00087144    -0.00073418     0.00013796
     6
  Step:    30            Position(A)                                  Velocity(au)
C        -0.03113417     0.02476306    -0.07074919    -0.00007204     0.00004480    -0.00100708
N        -0.03905830    -0.03793932     1.38609048    -0.00002119     0.00004121     0.00084191
H         0.89321737    -0.00336485    -0.65703641     0.00022760     0.00056625    -0.00052877
H         0.78751971    -0.29525415     1.85753268     0.00004531    -0.00122929     0.00027524
H        -0.98420911    -0.10300086     1.85702033     0.00001647     0.00031675     0.00039817
H        -0.99570042    -0.03601671    -0.58402553     0.00086351    -0.00076020     0.00015626
     6
  Step:    31            Position(A)                                  Velocity(au)
C        -0.03153268     0.02500973    -0.07637722    -0.00007013     0.00004372    -0.00101067
N        -0.03923351    -0.03769398     1.39077371    -0.00004084     0.00004685     0.00083769
H         0.89446344    -0.00013176    -0.65979694     0.00021965     0.00059380    -0.00046388
H         0.78814962    -0.30235528     1.85931253     0.00017495    -0.00131768     0.00036027
H        -0.98365998    -0.10117515     1.85908214     0.00017461     0.00033755     0.00034468
H        -0.99094217    -0.04032297    -0.58312257     0.00083402    -0.00078569     0.00016130
     6
  Step:    32            Position(A)                                  Velocity(au)
C        -0.03191555     0.02525018    -0.08201000    -0.00006644     0.00004257    -0.00100844
N        -0.03951335    -0.03741731     1.39542395    -0.00005843     0.00005237     0.00082984
H         0.89566470     0.00325124    -0.66220493     0.00021169     0.00061983    -0.00040223
H         0.78946894    -0.30993560     1.86154674     0.00029023    -0.00139983     0.00043676
H        -0.98226360    -0.09923987     1.86086074     0.00031887     0.00035591     0.00029709
H        -0.98640787    -0.04477084    -0.58222835     0.00078295    -0.00081083     0.00015321
     6
  Step:    33            Position(A)                                  Velocity(au)
C        -0.03227315     0.02548411    -0.08761624    -0.00006107     0.00004137    -0.00100053
N        -0.03988474    -0.03711035     1.40002227    -0.00007340     0.00005762     0.00081858
H         0.89682270     0.00677625    -0.66427972     0.00020421     0.00064432    -0.00034420
H         0.79138419    -0.31795630     1.86418016     0.00038655    -0.00147383     0.00050205
H        -0.98010625    -0.09720852     1.86239323     0.00044593     0.00037175     0.00025679
H        -0.98221625    -0.04935966    -0.58141510     0.00071099    -0.00083577     0.00013246
     6
  Step:    34            Position(A)                                  Velocity(au)
C        -0.03259649     0.02571138    -0.09316556    -0.00005418     0.00004014    -0.00098722
N        -0.04033169    -0.03677492     1.40455082    -0.00008526     0.00006247     0.00080416
H         0.89794160     0.01043514    -0.66604260     0.00019768     0.00066724    -0.00029017
H         0.79377884    -0.32636828     1.86714446     0.00046033    -0.00153804     0.00055414
H        -0.97729165    -0.09509503     1.86372388     0.00055285     0.00038501     0.00022501
H        -0.97848061    -0.05408941    -0.58075150     0.00061963    -0.00086062     0.00009994
     6
  Step:    35            Position(A)                                  Velocity(au)
C        -0.03287760     0.02593191    -0.09862919    -0.00004600     0.00003892    -0.00096894
N        -0.04083588    -0.03641349     1.40899305    -0.00009369     0.00006682     0.00078689
H         0.89902787     0.01421967    -0.66751670     0.00019248     0.00068865    -0.00024048
H         0.79651940    -0.33511388     1.87036191     0.00050917    -0.00159124     0.00059175
H        -0.97393889    -0.09291355     1.86490330     0.00063721     0.00039571     0.00020275
H        -0.97530394    -0.05896027    -0.58030020     0.00051126    -0.00088547     0.00005699
     6
  Step:    36            Position(A)                                  Velocity(au)
C        -0.03310996     0.02614577    -0.10398078    -0.00003681     0.00003771    -0.00094625
N        -0.04137744    -0.03602903     1.41333404    -0.00009848     0.00007061     0.00076714
H         0.90009002     0.01812178    -0.66872682     0.00018896     0.00070863    -0.00019541
H         0.79946221    -0.34412962     1.87374948     0.00053197    -0.00163275     0.00061434
H        -0.97017917    -0.09067815     1.86598700     0.00069722     0.00040393     0.00019078
H        -0.97277400    -0.06397290    -0.58011536     0.00038903    -0.00091041     0.00000532
     6
  Step:    37            Position(A)                                  Velocity(au)
C        -0.03328875     0.02635309    -0.10919716    -0.00002695     0.00003654    -0.00091980
N        -0.04193571    -0.03562489     1.41756074    -0.00009957     0.00007379     0.00074530
H         0.90113821     0.02213389    -0.66969909     0.00018739     0.00072732    -0.00015515
H         0.80246057    -0.35334898     1.87722303     0.00052881    -0.00166238     0.00062210
H        -0.96615212    -0.08840237     1.86703400     0.00073186     0.00040978     0.00018954
H        -0.97095917    -0.06912799    -0.58024073     0.00025672    -0.00093548    -0.00005305
     6
  Step:    38            Position(A)                                  Velocity(au)
C        -0.03341110     0.02655407    -0.11425878    -0.00001677     0.00003540    -0.00089033
N        -0.04249003    -0.03520454     1.42166213    -0.00009703     0.00007634     0.00072177
H         0.90218391     0.02624897    -0.67046045     0.00018795     0.00074493    -0.00011978
H         0.80537117    -0.36270533     1.88070094     0.00050084    -0.00168047     0.00061581
H        -0.96200126    -0.08609918     1.86810491     0.00074090     0.00041351     0.00019915
H        -0.96990532    -0.07442606    -0.58070812     0.00011854    -0.00096067    -0.00011595
     6
  Step:    39            Position(A)                                  Velocity(au)
C        -0.03347623     0.02674885    -0.11915008    -0.00000665     0.00003429    -0.00085856
N        -0.04302042    -0.03477150     1.42562935    -0.00009106     0.00007829     0.00069695
H         0.90323933     0.03046140    -0.67103815     0.00019076     0.00076173    -0.00008931
H         0.80805944    -0.37213482     1.88410710     0.00045005    -0.00168776     0.00059668
H        -0.95786962    -0.08377973     1.86926025     0.00072494     0.00041545     0.00021940
H        -0.96963401    -0.07986723    -0.58153688    -0.00002115    -0.00098591    -0.00018114
     6
  Step:    40            Position(A)                                  Velocity(au)
C        -0.03348541     0.02693748    -0.12385951     0.00000307     0.00003318    -0.00082519
N        -0.04350830    -0.03432909     1.42945564    -0.00008195     0.00007967     0.00067119
H         0.90431705     0.03476691    -0.67145915     0.00019582     0.00077799    -0.00006361
H         0.81040381    -0.38157853     1.88737321     0.00037903    -0.00168534     0.00056625
H        -0.95389476    -0.08145349     1.87055831     0.00068539     0.00041592     0.00024971
H        -0.97014181    -0.08545091    -0.58273368    -0.00015800    -0.00101109    -0.00024643
     6
  Step:    41            Position(A)                                  Velocity(au)
C        -0.03344193     0.02711992    -0.12837930     0.00001203     0.00003205    -0.00079087
N        -0.04393695    -0.03388039     1.43313618    -0.00007007     0.00008055     0.00064484
H         0.90542942     0.03916263    -0.67174960     0.00020305     0.00079395    -0.00004249
H         0.81229868    -0.39098419     1.89044025     0.00029076    -0.00167448     0.00052625
H        -0.95020405    -0.07912799     1.87205304     0.00062446     0.00041528     0.00028912
H        -0.97140114    -0.09117553    -0.58429308    -0.00028793    -0.00103600    -0.00030980
     6
  Step:    42            Position(A)                                  Velocity(au)
C        -0.03335081     0.02729595    -0.13270515     0.00001997     0.00003087    -0.00075612
N        -0.04429203    -0.03342816     1.43666800    -0.00005587     0.00008098     0.00061816
H         0.90658815     0.04364708    -0.67193434     0.00021230     0.00080987    -0.00002566
H         0.81365589    -0.40030715     1.89325919     0.00018835    -0.00165655     0.00047843
H        -0.94691037    -0.07680867     1.87379209     0.00054504     0.00041391     0.00033638
H        -0.97336226    -0.09703829    -0.58619867    -0.00040729    -0.00106039    -0.00036942
     6
  Step:    43            Position(A)                                  Velocity(au)
C        -0.03321858     0.02746519    -0.13683564     0.00002664     0.00002961    -0.00072140
N        -0.04456178    -0.03297475     1.44004965    -0.00003982     0.00008103     0.00059140
H         0.90780377     0.04822008    -0.67203653     0.00022332     0.00082593    -0.00001278
H         0.81440520    -0.40951084     1.89579096     0.00007496    -0.00163298     0.00042452
H        -0.94410835    -0.07449885     1.87581503     0.00045063     0.00041218     0.00038990
H        -0.97595623    -0.10303483    -0.58842465    -0.00051299    -0.00108398    -0.00042381
     6
  Step:    44            Position(A)                                  Velocity(au)
C        -0.03305294     0.02762706    -0.14077165     0.00003187     0.00002823    -0.00068703
N        -0.04473728    -0.03252212     1.44328096    -0.00002243     0.00008077     0.00056474
H         0.90908522     0.05288248    -0.67207728     0.00023576     0.00084229    -0.00000348
H         0.81449406    -0.41856679     1.89800614    -0.00004636    -0.00160514     0.00036618
H        -0.94187156    -0.07219977     1.87815189     0.00034513     0.00041043     0.00044790
H        -0.97909837    -0.10915916    -0.59093760    -0.00060256    -0.00110644    -0.00047176
     6