     6
  Step:   120            Position(A)                                  Velocity(au)
C        -0.01900869     0.05788955     0.02307361     0.00013526    -0.00004653    -0.00012163
N        -0.04561753    -0.05406507     1.30507352    -0.00003496     0.00000559     0.00005072
H         0.58482252    -0.70119350    -0.58285901    -0.00089006    -0.00109521     0.00036599
H         0.72039526     0.33353619     1.90969047    -0.00073751     0.00141876    -0.00019481
H        -0.79193169    -0.58466147     1.81779364     0.00055889    -0.00141655    -0.00007163
H        -0.86579340     0.34402676    -0.66327891    -0.00005719     0.00156978     0.00064509
