|===============================================================================
|
|  DFTB+ release 20.1
|
|  Copyright (C) 2006 - 2020  DFTB+ developers group
|
|===============================================================================
|
|  When publishing results obtained with DFTB+, please cite the following
|  reference:
|
|  * DFTB+, a software package for efficient approximate density functional
|    theory based atomistic simulations, J. Chem. Phys. 152, 124101 (2020).
|    [doi: 10.1063/1.5143190]
|
|  You should also cite additional publications crediting the parametrization
|  data you use. Please consult the documentation of the SK-files for the
|  references.
|
|===============================================================================

Reading input file 'dftb_in.hsd'
Parser version: 8

--------------------------------------------------------------------------------
Reading SK-files:
Done.


Processed input in HSD format written to 'dftb_pin.hsd'

Starting initialization...
--------------------------------------------------------------------------------
OpenMP threads:              1
Chosen random seed:          452478719
Mode:                        Static calculation
Self consistent charges:     Yes
SCC-tolerance:                 0.100000E-05
Max. scc iterations:                   1000
Shell resolved Hubbard:      No
Spin polarisation:           No
Nr. of up electrons:             6.000000
Nr. of down electrons:           6.000000
Periodic boundaries:         No
Electronic solver:           Relatively robust
Maximal SCC-cycles:                    1000
Initial charges:             Set automatically (system chrg:   0.100E+01)
Included shells:             C:  s, p
                             N:  s, p
                             H:  s
Spin coupling constants:     C   1(s)-1(s):  -0.455900E-01
                             C   1(s)-2(p):  -0.293000E-01
                             C   2(p)-1(s):  -0.293000E-01
                             C   2(p)-2(p):  -0.275500E-01
                             N   1(s)-1(s):  -0.468700E-01
                             N   1(s)-2(p):  -0.317000E-01
                             N   2(p)-1(s):  -0.317000E-01
                             N   2(p)-2(p):  -0.307200E-01
                             H   1(s)-1(s):  -0.792500E-01
Range separated hybrid:      Yes
  Screening parameter omega:   0.300000E+00
  Range separated algorithm:   MatrixBased
Extra options:
                             Mulliken analysis
                             Force calculation
Force type                   original
                             Eigenvector printing


REKS Calcuation:             Yes
SSR(2,2) Calcuation:         Yes
Energy Functional:           (PPS+OSS)/2
Number of Core Orbitals:                  5
Number of Active Orbitals:                2
Number of Basis:                         12
Number of States:                         2
State-Averaging Weight:          0.500000
                                 0.500000
State of Interest:                        1
Initial Guess:               Diagonalize H0 matrix
Newton-Raphson for FON opt:  Yes
NR max. Iterations:                      50
Level Shifting:              Yes
Shift Value:                     0.300000
W Scale Factor:              C  =    3.200000
                             N  =    3.200000
                             H  =    3.200000
Transition Dipole:           No
Gradient of Microstate:      No
CP-REKS Solver:              Preconditioned Conjugate-Gradient
CG max. Iterations:                     100
CG Tolerance:                  0.100000E-07
Memory for A and Hxc:        Direct Updating Without Saving
Non-Adiabatic Coupling:      Yes

--------------------------------------------------------------------------------

***  Geometry step: 0

  iSCC       reks energy        Diff energy         x_a       SCC error   
    1       -6.0650649938       0.0000000000     0.785993    1.11993818
    2       -6.0735211182      -0.0084561245     0.801257    0.07000144
    3       -6.0791116018      -0.0055904836     0.822814    0.06579133
    4       -6.0852932215      -0.0061816197     0.855439    0.07075320
    5       -6.0929135278      -0.0076203063     0.908961    0.08218915
    6       -6.1025223777      -0.0096088499     0.991863    0.09934918
    7       -6.1096781532      -0.0071557755     0.999963    0.05469333
    8       -6.1116126703      -0.0019345171     0.999980    0.02387146
    9       -6.1124873637      -0.0008746934     0.999991    0.01964128
   10       -6.1129019411      -0.0004145774     0.999991    0.01217269
   11       -6.1131045988      -0.0002026577     0.999994    0.01055858
   12       -6.1132085919      -0.0001039931     0.999993    0.00530964
   13       -6.1132636569      -0.0000550650     0.999995    0.00630714
   14       -6.1132933534      -0.0000296965     0.999993    0.00384132
   15       -6.1133088582      -0.0000155048     0.999996    0.00656547
   16       -6.1133139667      -0.0000051086     0.999992    0.00650744
   17       -6.1133126765       0.0000012902     0.999997    0.00933173
   18       -6.1132991684       0.0000135082     0.999991    0.01097937
   19       -6.1132809141       0.0000182543     0.999997    0.01440889
   20       -6.1132307839       0.0000501302     0.999987    0.01810579
   21       -6.1131835718       0.0000472120     0.999998    0.02291475
   22       -6.1130344402       0.0001491317     0.999978    0.02949608
   23       -6.1129488737       0.0000855665     0.999999    0.03625544
   24       -6.1125359945       0.0004128792     0.999948    0.04675959
   25       -6.1124949111       0.0000410834     1.000000    0.05496230
   26       -6.1115203350       0.0009745760     0.999850    0.06905567
   27       -6.1119252081      -0.0004048731     1.000000    0.07565690
   28       -6.1102637430       0.0016614651     0.999624    0.08861133
   29       -6.1116081607      -0.0013444178     1.000000    0.09007830
   30       -6.1096979065       0.0019102542     0.999473    0.09565393
   31       -6.1115822863      -0.0018843798     1.000000    0.09401177
   32       -6.1097897878       0.0017924984     0.999504    0.09401926
   33       -6.1116245811      -0.0018347933     1.000000    0.09263047
   34       -6.1099505537       0.0016740274     0.999551    0.09167976
   35       -6.1116564654      -0.0017059117     1.000000    0.09102662
   36       -6.1100394768       0.0016169886     0.999575    0.09040806
   37       -6.1116715345      -0.0016320577     1.000000    0.09018187
   38       -6.1100744825       0.0015970520     0.999585    0.08991284
   39       -6.1116765306      -0.0016020482     1.000000    0.08986208
   40       -6.1100837077       0.0015928229     0.999587    0.08978244
   41       -6.1116773312      -0.0015936234     1.000000    0.08978268
   42       -6.1100839843       0.0015933468     0.999587    0.08977581
   43       -6.1116769789      -0.0015929946     1.000000    0.08978197
   44       -6.1100825217       0.0015944572     0.999587    0.08979230
   45       -6.1116765743      -0.0015940526     1.000000    0.08979440
   46       -6.1100814320       0.0015951422     0.999587    0.08980359
   47       -6.1116763405      -0.0015949085     1.000000    0.08980245
   48       -6.1100809069       0.0015954335     0.999587    0.08980766
   49       -6.1116762363      -0.0015953294     1.000000    0.08980545
   50       -6.1100807071       0.0015955292     0.999587    0.08980798
   51       -6.1116761939      -0.0015954867     1.000000    0.08980592
   52       -6.1100806360       0.0015955578     0.999587    0.08980719
   53       -6.1116761736      -0.0015955376     1.000000    0.08980562
   54       -6.1100806014       0.0015955722     0.999587    0.08980639
   55       -6.1116761599      -0.0015955586     1.000000    0.08980529
   56       -6.1100805740       0.0015955859     0.999587    0.08980585
   57       -6.1116761488      -0.0015955747     1.000000    0.08980509
   58       -6.1100805494       0.0015955994     0.999587    0.08980553
   59       -6.1116761396      -0.0015955902     1.000000    0.08980500
   60       -6.1100805286       0.0015956111     0.999587    0.08980534
   61       -6.1116761324      -0.0015956039     1.000000    0.08980496
   62       -6.1100805121       0.0015956203     0.999587    0.08980522
   63       -6.1116761270      -0.0015956149     1.000000    0.08980495
   64       -6.1100804999       0.0015956271     0.999587    0.08980514
   65       -6.1116761231      -0.0015956232     1.000000    0.08980494
   66       -6.1100804910       0.0015956321     0.999587    0.08980508
   67       -6.1116761202      -0.0015956292     1.000000    0.08980494
   68       -6.1100804846       0.0015956356     0.999587    0.08980504
   69       -6.1116761182      -0.0015956336     1.000000    0.08980493
   70       -6.1100804800       0.0015956382     0.999587    0.08980500
   71       -6.1116761167      -0.0015956367     1.000000    0.08980493
   72       -6.1100804766       0.0015956401     0.999587    0.08980498
   73       -6.1116761156      -0.0015956390     1.000000    0.08980493
   74       -6.1100804742       0.0015956414     0.999587    0.08980496
   75       -6.1116761148      -0.0015956406     1.000000    0.08980492
   76       -6.1100804725       0.0015956424     0.999587    0.08980495
   77       -6.1116761143      -0.0015956418     1.000000    0.08980492
   78       -6.1100804712       0.0015956431     0.999587    0.08980494
   79       -6.1116761139      -0.0015956427     1.000000    0.08980492
   80       -6.1100804703       0.0015956436     0.999587    0.08980494
   81       -6.1116761136      -0.0015956433     1.000000    0.08980492
   82       -6.1100804696       0.0015956439     0.999587    0.08980493
   83       -6.1116761133      -0.0015956437     1.000000    0.08980492
   84       -6.1100804691       0.0015956442     0.999587    0.08980493
   85       -6.1116761132      -0.0015956441     1.000000    0.08980492
   86       -6.1100804688       0.0015956444     0.999587    0.08980493
   87       -6.1116761131      -0.0015956443     1.000000    0.08980492
   88       -6.1100804685       0.0015956445     0.999587    0.08980492
   89       -6.1116761130      -0.0015956445     1.000000    0.08980492
   90       -6.1100804683       0.0015956446     0.999587    0.08980492
   91       -6.1116761129      -0.0015956446     1.000000    0.08980492
   92       -6.1100804682       0.0015956447     0.999587    0.08980492
   93       -6.1116761129      -0.0015956447     1.000000    0.08980492
   94       -6.1100804681       0.0015956448     0.999587    0.08980492
   95       -6.1116761129      -0.0015956447     1.000000    0.08980492
   96       -6.1100804680       0.0015956448     0.999587    0.08980492
   97       -6.1116761128      -0.0015956448     1.000000    0.08980492
   98       -6.1100804680       0.0015956448     0.999587    0.08980492
   99       -6.1116761128      -0.0015956448     1.000000    0.08980492
  100       -6.1100804680       0.0015956449     0.999587    0.08980492
  101       -6.1116761128      -0.0015956449     1.000000    0.08980492
  102       -6.1100804679       0.0015956449     0.999587    0.08980492
  103       -6.1116761128      -0.0015956449     1.000000    0.08980492
  104       -6.1100804679       0.0015956449     0.999587    0.08980492
  105       -6.1116761128      -0.0015956449     1.000000    0.08980492
  106       -6.1100804679       0.0015956449     0.999587    0.08980492
  107       -6.1116761128      -0.0015956449     1.000000    0.08980492
  108       -6.1100804679       0.0015956449     0.999587    0.08980492
  109       -6.1116761128      -0.0015956449     1.000000    0.08980492
  110       -6.1100804679       0.0015956449     0.999587    0.08980492
  111       -6.1116761128      -0.0015956449     1.000000    0.08980492
  112       -6.1100804679       0.0015956449     0.999587    0.08980492
  113       -6.1116761128      -0.0015956449     1.000000    0.08980492
  114       -6.1100804679       0.0015956449     0.999587    0.08980492
  115       -6.1116761128      -0.0015956449     1.000000    0.08980492
  116       -6.1100804679       0.0015956449     0.999587    0.08980492
  117       -6.1116761128      -0.0015956449     1.000000    0.08980492
  118       -6.1100804679       0.0015956449     0.999587    0.08980492
  119       -6.1116761128      -0.0015956449     1.000000    0.08980492
  120       -6.1100804679       0.0015956449     0.999587    0.08980492
  121       -6.1116761128      -0.0015956449     1.000000    0.08980492
  122       -6.1100804679       0.0015956449     0.999587    0.08980492
  123       -6.1116761128      -0.0015956449     1.000000    0.08980492
  124       -6.1100804679       0.0015956449     0.999587    0.08980492
  125       -6.1116761128      -0.0015956449     1.000000    0.08980492
  126       -6.1100804679       0.0015956449     0.999587    0.08980492
  127       -6.1116761128      -0.0015956449     1.000000    0.08980492
  128       -6.1100804679       0.0015956449     0.999587    0.08980492
  129       -6.1116761128      -0.0015956449     1.000000    0.08980492
  130       -6.1100804679       0.0015956449     0.999587    0.08980492
  131       -6.1116761128      -0.0015956449     1.000000    0.08980492
  132       -6.1100804679       0.0015956449     0.999587    0.08980492
  133       -6.1116761128      -0.0015956449     1.000000    0.08980492
  134       -6.1100804679       0.0015956449     0.999587    0.08980492
  135       -6.1116761128      -0.0015956449     1.000000    0.08980492
  136       -6.1100804679       0.0015956449     0.999587    0.08980492
  137       -6.1116761128      -0.0015956449     1.000000    0.08980492
  138       -6.1100804679       0.0015956449     0.999587    0.08980492
  139       -6.1116761128      -0.0015956449     1.000000    0.08980492
  140       -6.1100804679       0.0015956449     0.999587    0.08980492
  141       -6.1116761128      -0.0015956449     1.000000    0.08980492
  142       -6.1100804679       0.0015956449     0.999587    0.08980492
  143       -6.1116761128      -0.0015956449     1.000000    0.08980492
  144       -6.1100804679       0.0015956449     0.999587    0.08980492
  145       -6.1116761128      -0.0015956449     1.000000    0.08980492
  146       -6.1100804679       0.0015956449     0.999587    0.08980492
  147       -6.1116761128      -0.0015956449     1.000000    0.08980492
  148       -6.1100804679       0.0015956449     0.999587    0.08980492
  149       -6.1116761128      -0.0015956449     1.000000    0.08980492
  150       -6.1100804679       0.0015956449     0.999587    0.08980492
  151       -6.1116761128      -0.0015956449     1.000000    0.08980492
  152       -6.1100804679       0.0015956449     0.999587    0.08980492
  153       -6.1116761128      -0.0015956449     1.000000    0.08980492
  154       -6.1100804679       0.0015956449     0.999587    0.08980492
  155       -6.1116761128      -0.0015956449     1.000000    0.08980492
  156       -6.1100804679       0.0015956449     0.999587    0.08980492
  157       -6.1116761128      -0.0015956449     1.000000    0.08980492
  158       -6.1100804679       0.0015956449     0.999587    0.08980492
  159       -6.1116761128      -0.0015956449     1.000000    0.08980492
  160       -6.1100804679       0.0015956449     0.999587    0.08980492
  161       -6.1116761128      -0.0015956449     1.000000    0.08980492
  162       -6.1100804679       0.0015956449     0.999587    0.08980492
  163       -6.1116761128      -0.0015956449     1.000000    0.08980492
  164       -6.1100804679       0.0015956449     0.999587    0.08980492
  165       -6.1116761128      -0.0015956449     1.000000    0.08980492
  166       -6.1100804679       0.0015956449     0.999587    0.08980492
  167       -6.1116761128      -0.0015956449     1.000000    0.08980492
  168       -6.1100804679       0.0015956449     0.999587    0.08980492
  169       -6.1116761128      -0.0015956449     1.000000    0.08980492
  170       -6.1100804679       0.0015956449     0.999587    0.08980492
  171       -6.1116761128      -0.0015956449     1.000000    0.08980492
  172       -6.1100804679       0.0015956449     0.999587    0.08980492
  173       -6.1116761128      -0.0015956449     1.000000    0.08980492
  174       -6.1100804679       0.0015956449     0.999587    0.08980492
  175       -6.1116761128      -0.0015956449     1.000000    0.08980492
  176       -6.1100804679       0.0015956449     0.999587    0.08980492
  177       -6.1116761128      -0.0015956449     1.000000    0.08980492
  178       -6.1100804679       0.0015956449     0.999587    0.08980492
  179       -6.1116761128      -0.0015956449     1.000000    0.08980492
  180       -6.1100804679       0.0015956449     0.999587    0.08980492
  181       -6.1116761128      -0.0015956449     1.000000    0.08980492
  182       -6.1100804679       0.0015956449     0.999587    0.08980492
  183       -6.1116761128      -0.0015956449     1.000000    0.08980492
  184       -6.1100804679       0.0015956449     0.999587    0.08980492
  185       -6.1116761128      -0.0015956449     1.000000    0.08980492
  186       -6.1100804679       0.0015956449     0.999587    0.08980492
  187       -6.1116761128      -0.0015956449     1.000000    0.08980492
  188       -6.1100804679       0.0015956449     0.999587    0.08980492
  189       -6.1116761128      -0.0015956449     1.000000    0.08980492
  190       -6.1100804679       0.0015956449     0.999587    0.08980492
  191       -6.1116761128      -0.0015956449     1.000000    0.08980492
  192       -6.1100804679       0.0015956449     0.999587    0.08980492
  193       -6.1116761128      -0.0015956449     1.000000    0.08980492
  194       -6.1100804679       0.0015956449     0.999587    0.08980492
  195       -6.1116761128      -0.0015956449     1.000000    0.08980492
  196       -6.1100804679       0.0015956449     0.999587    0.08980492
  197       -6.1116761128      -0.0015956449     1.000000    0.08980492
  198       -6.1100804679       0.0015956449     0.999587    0.08980492
  199       -6.1116761128      -0.0015956449     1.000000    0.08980492
  200       -6.1100804679       0.0015956449     0.999587    0.08980492
  201       -6.1116761128      -0.0015956449     1.000000    0.08980492
  202       -6.1100804679       0.0015956449     0.999587    0.08980492
  203       -6.1116761128      -0.0015956449     1.000000    0.08980492
  204       -6.1100804679       0.0015956449     0.999587    0.08980492
  205       -6.1116761128      -0.0015956449     1.000000    0.08980492
  206       -6.1100804679       0.0015956449     0.999587    0.08980492
  207       -6.1116761128      -0.0015956449     1.000000    0.08980492
  208       -6.1100804679       0.0015956449     0.999587    0.08980492
  209       -6.1116761128      -0.0015956449     1.000000    0.08980492
  210       -6.1100804679       0.0015956449     0.999587    0.08980492
  211       -6.1116761128      -0.0015956449     1.000000    0.08980492
  212       -6.1100804679       0.0015956449     0.999587    0.08980492
  213       -6.1116761128      -0.0015956449     1.000000    0.08980492
  214       -6.1100804679       0.0015956449     0.999587    0.08980492
  215       -6.1116761128      -0.0015956449     1.000000    0.08980492
  216       -6.1100804679       0.0015956449     0.999587    0.08980492
  217       -6.1116761128      -0.0015956449     1.000000    0.08980492
  218       -6.1100804679       0.0015956449     0.999587    0.08980492
  219       -6.1116761128      -0.0015956449     1.000000    0.08980492
  220       -6.1100804679       0.0015956449     0.999587    0.08980492
  221       -6.1116761128      -0.0015956449     1.000000    0.08980492
  222       -6.1100804679       0.0015956449     0.999587    0.08980492
  223       -6.1116761128      -0.0015956449     1.000000    0.08980492
  224       -6.1100804679       0.0015956449     0.999587    0.08980492
  225       -6.1116761128      -0.0015956449     1.000000    0.08980492
  226       -6.1100804679       0.0015956449     0.999587    0.08980492
  227       -6.1116761128      -0.0015956449     1.000000    0.08980492
  228       -6.1100804679       0.0015956449     0.999587    0.08980492
  229       -6.1116761128      -0.0015956449     1.000000    0.08980492
  230       -6.1100804679       0.0015956449     0.999587    0.08980492
  231       -6.1116761128      -0.0015956449     1.000000    0.08980492
  232       -6.1100804679       0.0015956449     0.999587    0.08980492
  233       -6.1116761128      -0.0015956449     1.000000    0.08980492
  234       -6.1100804679       0.0015956449     0.999587    0.08980492
  235       -6.1116761128      -0.0015956449     1.000000    0.08980492
  236       -6.1100804679       0.0015956449     0.999587    0.08980492
  237       -6.1116761128      -0.0015956449     1.000000    0.08980492
  238       -6.1100804679       0.0015956449     0.999587    0.08980492
  239       -6.1116761128      -0.0015956449     1.000000    0.08980492
  240       -6.1100804679       0.0015956449     0.999587    0.08980492
  241       -6.1116761128      -0.0015956449     1.000000    0.08980492
  242       -6.1100804679       0.0015956449     0.999587    0.08980492
  243       -6.1116761128      -0.0015956449     1.000000    0.08980492
  244       -6.1100804679       0.0015956449     0.999587    0.08980492
  245       -6.1116761128      -0.0015956449     1.000000    0.08980492
  246       -6.1100804679       0.0015956449     0.999587    0.08980492
  247       -6.1116761128      -0.0015956449     1.000000    0.08980492
  248       -6.1100804679       0.0015956449     0.999587    0.08980492
  249       -6.1116761128      -0.0015956449     1.000000    0.08980492
  250       -6.1100804679       0.0015956449     0.999587    0.08980492
  251       -6.1116761128      -0.0015956449     1.000000    0.08980492
  252       -6.1100804679       0.0015956449     0.999587    0.08980492
  253       -6.1116761128      -0.0015956449     1.000000    0.08980492
  254       -6.1100804679       0.0015956449     0.999587    0.08980492
  255       -6.1116761128      -0.0015956449     1.000000    0.08980492
  256       -6.1100804679       0.0015956449     0.999587    0.08980492
  257       -6.1116761128      -0.0015956449     1.000000    0.08980492
  258       -6.1100804679       0.0015956449     0.999587    0.08980492
  259       -6.1116761128      -0.0015956449     1.000000    0.08980492
  260       -6.1100804679       0.0015956449     0.999587    0.08980492
  261       -6.1116761128      -0.0015956449     1.000000    0.08980492
  262       -6.1100804679       0.0015956449     0.999587    0.08980492
  263       -6.1116761128      -0.0015956449     1.000000    0.08980492
  264       -6.1100804679       0.0015956449     0.999587    0.08980492
  265       -6.1116761128      -0.0015956449     1.000000    0.08980492
  266       -6.1100804679       0.0015956449     0.999587    0.08980492
  267       -6.1116761128      -0.0015956449     1.000000    0.08980492
  268       -6.1100804679       0.0015956449     0.999587    0.08980492
  269       -6.1116761128      -0.0015956449     1.000000    0.08980492
  270       -6.1100804679       0.0015956449     0.999587    0.08980492
  271       -6.1116761128      -0.0015956449     1.000000    0.08980492
  272       -6.1100804679       0.0015956449     0.999587    0.08980492
  273       -6.1116761128      -0.0015956449     1.000000    0.08980492
  274       -6.1100804679       0.0015956449     0.999587    0.08980492
  275       -6.1116761128      -0.0015956449     1.000000    0.08980492
  276       -6.1100804679       0.0015956449     0.999587    0.08980492
  277       -6.1116761128      -0.0015956449     1.000000    0.08980492
  278       -6.1100804679       0.0015956449     0.999587    0.08980492
  279       -6.1116761128      -0.0015956449     1.000000    0.08980492
  280       -6.1100804679       0.0015956449     0.999587    0.08980492
  281       -6.1116761128      -0.0015956449     1.000000    0.08980492
  282       -6.1100804679       0.0015956449     0.999587    0.08980492
  283       -6.1116761128      -0.0015956449     1.000000    0.08980492
  284       -6.1100804679       0.0015956449     0.999587    0.08980492
  285       -6.1116761128      -0.0015956449     1.000000    0.08980492
  286       -6.1100804679       0.0015956449     0.999587    0.08980492
  287       -6.1116761128      -0.0015956449     1.000000    0.08980492
  288       -6.1100804679       0.0015956449     0.999587    0.08980492
  289       -6.1116761128      -0.0015956449     1.000000    0.08980492
  290       -6.1100804679       0.0015956449     0.999587    0.08980492
  291       -6.1116761128      -0.0015956449     1.000000    0.08980492
  292       -6.1100804679       0.0015956449     0.999587    0.08980492
  293       -6.1116761128      -0.0015956449     1.000000    0.08980492
  294       -6.1100804679       0.0015956449     0.999587    0.08980492
  295       -6.1116761128      -0.0015956449     1.000000    0.08980492
  296       -6.1100804679       0.0015956449     0.999587    0.08980492
  297       -6.1116761128      -0.0015956449     1.000000    0.08980492
  298       -6.1100804679       0.0015956449     0.999587    0.08980492
  299       -6.1116761128      -0.0015956449     1.000000    0.08980492
  300       -6.1100804679       0.0015956449     0.999587    0.08980492
  301       -6.1116761128      -0.0015956449     1.000000    0.08980492
  302       -6.1100804679       0.0015956449     0.999587    0.08980492
  303       -6.1116761128      -0.0015956449     1.000000    0.08980492
  304       -6.1100804679       0.0015956449     0.999587    0.08980492
  305       -6.1116761128      -0.0015956449     1.000000    0.08980492
  306       -6.1100804679       0.0015956449     0.999587    0.08980492
  307       -6.1116761128      -0.0015956449     1.000000    0.08980492
  308       -6.1100804679       0.0015956449     0.999587    0.08980492
  309       -6.1116761128      -0.0015956449     1.000000    0.08980492
  310       -6.1100804679       0.0015956449     0.999587    0.08980492
  311       -6.1116761128      -0.0015956449     1.000000    0.08980492
  312       -6.1100804679       0.0015956449     0.999587    0.08980492
  313       -6.1116761128      -0.0015956449     1.000000    0.08980492
  314       -6.1100804679       0.0015956449     0.999587    0.08980492
  315       -6.1116761128      -0.0015956449     1.000000    0.08980492
  316       -6.1100804679       0.0015956449     0.999587    0.08980492
  317       -6.1116761128      -0.0015956449     1.000000    0.08980492
  318       -6.1100804679       0.0015956449     0.999587    0.08980492
  319       -6.1116761128      -0.0015956449     1.000000    0.08980492
  320       -6.1100804679       0.0015956449     0.999587    0.08980492
  321       -6.1116761128      -0.0015956449     1.000000    0.08980492
  322       -6.1100804679       0.0015956449     0.999587    0.08980492
  323       -6.1116761128      -0.0015956449     1.000000    0.08980492
  324       -6.1100804679       0.0015956449     0.999587    0.08980492
  325       -6.1116761128      -0.0015956449     1.000000    0.08980492
  326       -6.1100804679       0.0015956449     0.999587    0.08980492
  327       -6.1116761128      -0.0015956449     1.000000    0.08980492
  328       -6.1100804679       0.0015956449     0.999587    0.08980492
  329       -6.1116761128      -0.0015956449     1.000000    0.08980492
  330       -6.1100804679       0.0015956449     0.999587    0.08980492
  331       -6.1116761128      -0.0015956449     1.000000    0.08980492
  332       -6.1100804679       0.0015956449     0.999587    0.08980492
  333       -6.1116761128      -0.0015956449     1.000000    0.08980492
  334       -6.1100804679       0.0015956449     0.999587    0.08980492
  335       -6.1116761128      -0.0015956449     1.000000    0.08980492
  336       -6.1100804679       0.0015956449     0.999587    0.08980492
  337       -6.1116761128      -0.0015956449     1.000000    0.08980492
  338       -6.1100804679       0.0015956449     0.999587    0.08980492
  339       -6.1116761128      -0.0015956449     1.000000    0.08980492
  340       -6.1100804679       0.0015956449     0.999587    0.08980492
  341       -6.1116761128      -0.0015956449     1.000000    0.08980492
  342       -6.1100804679       0.0015956449     0.999587    0.08980492
  343       -6.1116761128      -0.0015956449     1.000000    0.08980492
  344       -6.1100804679       0.0015956449     0.999587    0.08980492
  345       -6.1116761128      -0.0015956449     1.000000    0.08980492
  346       -6.1100804679       0.0015956449     0.999587    0.08980492
  347       -6.1116761128      -0.0015956449     1.000000    0.08980492
  348       -6.1100804679       0.0015956449     0.999587    0.08980492
  349       -6.1116761128      -0.0015956449     1.000000    0.08980492
  350       -6.1100804679       0.0015956449     0.999587    0.08980492
  351       -6.1116761128      -0.0015956449     1.000000    0.08980492
  352       -6.1100804679       0.0015956449     0.999587    0.08980492
  353       -6.1116761128      -0.0015956449     1.000000    0.08980492
  354       -6.1100804679       0.0015956449     0.999587    0.08980492
  355       -6.1116761128      -0.0015956449     1.000000    0.08980492
  356       -6.1100804679       0.0015956449     0.999587    0.08980492
  357       -6.1116761128      -0.0015956449     1.000000    0.08980492
  358       -6.1100804679       0.0015956449     0.999587    0.08980492
  359       -6.1116761128      -0.0015956449     1.000000    0.08980492
  360       -6.1100804679       0.0015956449     0.999587    0.08980492
  361       -6.1116761128      -0.0015956449     1.000000    0.08980492
  362       -6.1100804679       0.0015956449     0.999587    0.08980492
  363       -6.1116761128      -0.0015956449     1.000000    0.08980492
  364       -6.1100804679       0.0015956449     0.999587    0.08980492
  365       -6.1116761128      -0.0015956449     1.000000    0.08980492
  366       -6.1100804679       0.0015956449     0.999587    0.08980492
  367       -6.1116761128      -0.0015956449     1.000000    0.08980492
  368       -6.1100804679       0.0015956449     0.999587    0.08980492
  369       -6.1116761128      -0.0015956449     1.000000    0.08980492
  370       -6.1100804679       0.0015956449     0.999587    0.08980492
  371       -6.1116761128      -0.0015956449     1.000000    0.08980492
  372       -6.1100804679       0.0015956449     0.999587    0.08980492
  373       -6.1116761128      -0.0015956449     1.000000    0.08980492
  374       -6.1100804679       0.0015956449     0.999587    0.08980492
  375       -6.1116761128      -0.0015956449     1.000000    0.08980492
  376       -6.1100804679       0.0015956449     0.999587    0.08980492
  377       -6.1116761128      -0.0015956449     1.000000    0.08980492
  378       -6.1100804679       0.0015956449     0.999587    0.08980492
  379       -6.1116761128      -0.0015956449     1.000000    0.08980492
  380       -6.1100804679       0.0015956449     0.999587    0.08980492
  381       -6.1116761128      -0.0015956449     1.000000    0.08980492
  382       -6.1100804679       0.0015956449     0.999587    0.08980492
  383       -6.1116761128      -0.0015956449     1.000000    0.08980492
  384       -6.1100804679       0.0015956449     0.999587    0.08980492
  385       -6.1116761128      -0.0015956449     1.000000    0.08980492
  386       -6.1100804679       0.0015956449     0.999587    0.08980492
  387       -6.1116761128      -0.0015956449     1.000000    0.08980492
  388       -6.1100804679       0.0015956449     0.999587    0.08980492
  389       -6.1116761128      -0.0015956449     1.000000    0.08980492
  390       -6.1100804679       0.0015956449     0.999587    0.08980492
  391       -6.1116761128      -0.0015956449     1.000000    0.08980492
  392       -6.1100804679       0.0015956449     0.999587    0.08980492
  393       -6.1116761128      -0.0015956449     1.000000    0.08980492
  394       -6.1100804679       0.0015956449     0.999587    0.08980492
  395       -6.1116761128      -0.0015956449     1.000000    0.08980492
  396       -6.1100804679       0.0015956449     0.999587    0.08980492
  397       -6.1116761128      -0.0015956449     1.000000    0.08980492
  398       -6.1100804679       0.0015956449     0.999587    0.08980492
  399       -6.1116761128      -0.0015956449     1.000000    0.08980492
  400       -6.1100804679       0.0015956449     0.999587    0.08980492
  401       -6.1116761128      -0.0015956449     1.000000    0.08980492
  402       -6.1100804679       0.0015956449     0.999587    0.08980492
  403       -6.1116761128      -0.0015956449     1.000000    0.08980492
  404       -6.1100804679       0.0015956449     0.999587    0.08980492
  405       -6.1116761128      -0.0015956449     1.000000    0.08980492
  406       -6.1100804679       0.0015956449     0.999587    0.08980492
  407       -6.1116761128      -0.0015956449     1.000000    0.08980492
  408       -6.1100804679       0.0015956449     0.999587    0.08980492
  409       -6.1116761128      -0.0015956449     1.000000    0.08980492
  410       -6.1100804679       0.0015956449     0.999587    0.08980492
  411       -6.1116761128      -0.0015956449     1.000000    0.08980492
  412       -6.1100804679       0.0015956449     0.999587    0.08980492
  413       -6.1116761128      -0.0015956449     1.000000    0.08980492
  414       -6.1100804679       0.0015956449     0.999587    0.08980492
  415       -6.1116761128      -0.0015956449     1.000000    0.08980492
  416       -6.1100804679       0.0015956449     0.999587    0.08980492
  417       -6.1116761128      -0.0015956449     1.000000    0.08980492
  418       -6.1100804679       0.0015956449     0.999587    0.08980492
  419       -6.1116761128      -0.0015956449     1.000000    0.08980492
  420       -6.1100804679       0.0015956449     0.999587    0.08980492
  421       -6.1116761128      -0.0015956449     1.000000    0.08980492
  422       -6.1100804679       0.0015956449     0.999587    0.08980492
  423       -6.1116761128      -0.0015956449     1.000000    0.08980492
  424       -6.1100804679       0.0015956449     0.999587    0.08980492
  425       -6.1116761128      -0.0015956449     1.000000    0.08980492
  426       -6.1100804679       0.0015956449     0.999587    0.08980492
  427       -6.1116761128      -0.0015956449     1.000000    0.08980492
  428       -6.1100804679       0.0015956449     0.999587    0.08980492
  429       -6.1116761128      -0.0015956449     1.000000    0.08980492
  430       -6.1100804679       0.0015956449     0.999587    0.08980492
  431       -6.1116761128      -0.0015956449     1.000000    0.08980492
  432       -6.1100804679       0.0015956449     0.999587    0.08980492
  433       -6.1116761128      -0.0015956449     1.000000    0.08980492
  434       -6.1100804679       0.0015956449     0.999587    0.08980492
  435       -6.1116761128      -0.0015956449     1.000000    0.08980492
  436       -6.1100804679       0.0015956449     0.999587    0.08980492
  437       -6.1116761128      -0.0015956449     1.000000    0.08980492
  438       -6.1100804679       0.0015956449     0.999587    0.08980492
  439       -6.1116761128      -0.0015956449     1.000000    0.08980492
  440       -6.1100804679       0.0015956449     0.999587    0.08980492
  441       -6.1116761128      -0.0015956449     1.000000    0.08980492
  442       -6.1100804679       0.0015956449     0.999587    0.08980492
  443       -6.1116761128      -0.0015956449     1.000000    0.08980492
  444       -6.1100804679       0.0015956449     0.999587    0.08980492
  445       -6.1116761128      -0.0015956449     1.000000    0.08980492
  446       -6.1100804679       0.0015956449     0.999587    0.08980492
  447       -6.1116761128      -0.0015956449     1.000000    0.08980492
  448       -6.1100804679       0.0015956449     0.999587    0.08980492
  449       -6.1116761128      -0.0015956449     1.000000    0.08980492
  450       -6.1100804679       0.0015956449     0.999587    0.08980492
  451       -6.1116761128      -0.0015956449     1.000000    0.08980492
  452       -6.1100804679       0.0015956449     0.999587    0.08980492
  453       -6.1116761128      -0.0015956449     1.000000    0.08980492
  454       -6.1100804679       0.0015956449     0.999587    0.08980492
  455       -6.1116761128      -0.0015956449     1.000000    0.08980492
  456       -6.1100804679       0.0015956449     0.999587    0.08980492
  457       -6.1116761128      -0.0015956449     1.000000    0.08980492
  458       -6.1100804679       0.0015956449     0.999587    0.08980492
  459       -6.1116761128      -0.0015956449     1.000000    0.08980492
  460       -6.1100804679       0.0015956449     0.999587    0.08980492
  461       -6.1116761128      -0.0015956449     1.000000    0.08980492
  462       -6.1100804679       0.0015956449     0.999587    0.08980492
  463       -6.1116761128      -0.0015956449     1.000000    0.08980492
  464       -6.1100804679       0.0015956449     0.999587    0.08980492
  465       -6.1116761128      -0.0015956449     1.000000    0.08980492
  466       -6.1100804679       0.0015956449     0.999587    0.08980492
  467       -6.1116761128      -0.0015956449     1.000000    0.08980492
  468       -6.1100804679       0.0015956449     0.999587    0.08980492
  469       -6.1116761128      -0.0015956449     1.000000    0.08980492
  470       -6.1100804679       0.0015956449     0.999587    0.08980492
  471       -6.1116761128      -0.0015956449     1.000000    0.08980492
  472       -6.1100804679       0.0015956449     0.999587    0.08980492
  473       -6.1116761128      -0.0015956449     1.000000    0.08980492
  474       -6.1100804679       0.0015956449     0.999587    0.08980492
  475       -6.1116761128      -0.0015956449     1.000000    0.08980492
  476       -6.1100804679       0.0015956449     0.999587    0.08980492
  477       -6.1116761128      -0.0015956449     1.000000    0.08980492
  478       -6.1100804679       0.0015956449     0.999587    0.08980492
  479       -6.1116761128      -0.0015956449     1.000000    0.08980492
  480       -6.1100804679       0.0015956449     0.999587    0.08980492
  481       -6.1116761128      -0.0015956449     1.000000    0.08980492
  482       -6.1100804679       0.0015956449     0.999587    0.08980492
  483       -6.1116761128      -0.0015956449     1.000000    0.08980492
  484       -6.1100804679       0.0015956449     0.999587    0.08980492
  485       -6.1116761128      -0.0015956449     1.000000    0.08980492
  486       -6.1100804679       0.0015956449     0.999587    0.08980492
  487       -6.1116761128      -0.0015956449     1.000000    0.08980492
  488       -6.1100804679       0.0015956449     0.999587    0.08980492
  489       -6.1116761128      -0.0015956449     1.000000    0.08980492
  490       -6.1100804679       0.0015956449     0.999587    0.08980492
  491       -6.1116761128      -0.0015956449     1.000000    0.08980492
  492       -6.1100804679       0.0015956449     0.999587    0.08980492
  493       -6.1116761128      -0.0015956449     1.000000    0.08980492
  494       -6.1100804679       0.0015956449     0.999587    0.08980492
  495       -6.1116761128      -0.0015956449     1.000000    0.08980492
  496       -6.1100804679       0.0015956449     0.999587    0.08980492
  497       -6.1116761128      -0.0015956449     1.000000    0.08980492
  498       -6.1100804679       0.0015956449     0.999587    0.08980492
  499       -6.1116761128      -0.0015956449     1.000000    0.08980492
  500       -6.1100804679       0.0015956449     0.999587    0.08980492
  501       -6.1116761128      -0.0015956449     1.000000    0.08980492
  502       -6.1100804679       0.0015956449     0.999587    0.08980492
  503       -6.1116761128      -0.0015956449     1.000000    0.08980492
  504       -6.1100804679       0.0015956449     0.999587    0.08980492
  505       -6.1116761128      -0.0015956449     1.000000    0.08980492
  506       -6.1100804679       0.0015956449     0.999587    0.08980492
  507       -6.1116761128      -0.0015956449     1.000000    0.08980492
  508       -6.1100804679       0.0015956449     0.999587    0.08980492
  509       -6.1116761128      -0.0015956449     1.000000    0.08980492
  510       -6.1100804679       0.0015956449     0.999587    0.08980492
  511       -6.1116761128      -0.0015956449     1.000000    0.08980492
  512       -6.1100804679       0.0015956449     0.999587    0.08980492
  513       -6.1116761128      -0.0015956449     1.000000    0.08980492
  514       -6.1100804679       0.0015956449     0.999587    0.08980492
  515       -6.1116761128      -0.0015956449     1.000000    0.08980492
  516       -6.1100804679       0.0015956449     0.999587    0.08980492
  517       -6.1116761128      -0.0015956449     1.000000    0.08980492
  518       -6.1100804679       0.0015956449     0.999587    0.08980492
  519       -6.1116761128      -0.0015956449     1.000000    0.08980492
  520       -6.1100804679       0.0015956449     0.999587    0.08980492
  521       -6.1116761128      -0.0015956449     1.000000    0.08980492
  522       -6.1100804679       0.0015956449     0.999587    0.08980492
  523       -6.1116761128      -0.0015956449     1.000000    0.08980492
  524       -6.1100804679       0.0015956449     0.999587    0.08980492
  525       -6.1116761128      -0.0015956449     1.000000    0.08980492
  526       -6.1100804679       0.0015956449     0.999587    0.08980492
  527       -6.1116761128      -0.0015956449     1.000000    0.08980492
  528       -6.1100804679       0.0015956449     0.999587    0.08980492
  529       -6.1116761128      -0.0015956449     1.000000    0.08980492
  530       -6.1100804679       0.0015956449     0.999587    0.08980492
  531       -6.1116761128      -0.0015956449     1.000000    0.08980492
  532       -6.1100804679       0.0015956449     0.999587    0.08980492
  533       -6.1116761128      -0.0015956449     1.000000    0.08980492
  534       -6.1100804679       0.0015956449     0.999587    0.08980492
  535       -6.1116761128      -0.0015956449     1.000000    0.08980492
  536       -6.1100804679       0.0015956449     0.999587    0.08980492
  537       -6.1116761128      -0.0015956449     1.000000    0.08980492
  538       -6.1100804679       0.0015956449     0.999587    0.08980492
  539       -6.1116761128      -0.0015956449     1.000000    0.08980492
  540       -6.1100804679       0.0015956449     0.999587    0.08980492
  541       -6.1116761128      -0.0015956449     1.000000    0.08980492
  542       -6.1100804679       0.0015956449     0.999587    0.08980492
  543       -6.1116761128      -0.0015956449     1.000000    0.08980492
  544       -6.1100804679       0.0015956449     0.999587    0.08980492
  545       -6.1116761128      -0.0015956449     1.000000    0.08980492
  546       -6.1100804679       0.0015956449     0.999587    0.08980492
  547       -6.1116761128      -0.0015956449     1.000000    0.08980492
  548       -6.1100804679       0.0015956449     0.999587    0.08980492
  549       -6.1116761128      -0.0015956449     1.000000    0.08980492
  550       -6.1100804679       0.0015956449     0.999587    0.08980492
  551       -6.1116761128      -0.0015956449     1.000000    0.08980492
  552       -6.1100804679       0.0015956449     0.999587    0.08980492
  553       -6.1116761128      -0.0015956449     1.000000    0.08980492
  554       -6.1100804679       0.0015956449     0.999587    0.08980492
  555       -6.1116761128      -0.0015956449     1.000000    0.08980492
  556       -6.1100804679       0.0015956449     0.999587    0.08980492
  557       -6.1116761128      -0.0015956449     1.000000    0.08980492
  558       -6.1100804679       0.0015956449     0.999587    0.08980492
  559       -6.1116761128      -0.0015956449     1.000000    0.08980492
  560       -6.1100804679       0.0015956449     0.999587    0.08980492
  561       -6.1116761128      -0.0015956449     1.000000    0.08980492
  562       -6.1100804679       0.0015956449     0.999587    0.08980492
  563       -6.1116761128      -0.0015956449     1.000000    0.08980492
  564       -6.1100804679       0.0015956449     0.999587    0.08980492
  565       -6.1116761128      -0.0015956449     1.000000    0.08980492
  566       -6.1100804679       0.0015956449     0.999587    0.08980492
  567       -6.1116761128      -0.0015956449     1.000000    0.08980492
  568       -6.1100804679       0.0015956449     0.999587    0.08980492
  569       -6.1116761128      -0.0015956449     1.000000    0.08980492
  570       -6.1100804679       0.0015956449     0.999587    0.08980492
  571       -6.1116761128      -0.0015956449     1.000000    0.08980492
  572       -6.1100804679       0.0015956449     0.999587    0.08980492
  573       -6.1116761128      -0.0015956449     1.000000    0.08980492
  574       -6.1100804679       0.0015956449     0.999587    0.08980492
  575       -6.1116761128      -0.0015956449     1.000000    0.08980492
  576       -6.1100804679       0.0015956449     0.999587    0.08980492
  577       -6.1116761128      -0.0015956449     1.000000    0.08980492
  578       -6.1100804679       0.0015956449     0.999587    0.08980492
  579       -6.1116761128      -0.0015956449     1.000000    0.08980492
  580       -6.1100804679       0.0015956449     0.999587    0.08980492
  581       -6.1116761128      -0.0015956449     1.000000    0.08980492
  582       -6.1100804679       0.0015956449     0.999587    0.08980492
  583       -6.1116761128      -0.0015956449     1.000000    0.08980492
  584       -6.1100804679       0.0015956449     0.999587    0.08980492
  585       -6.1116761128      -0.0015956449     1.000000    0.08980492
  586       -6.1100804679       0.0015956449     0.999587    0.08980492
  587       -6.1116761128      -0.0015956449     1.000000    0.08980492
  588       -6.1100804679       0.0015956449     0.999587    0.08980492
  589       -6.1116761128      -0.0015956449     1.000000    0.08980492
  590       -6.1100804679       0.0015956449     0.999587    0.08980492
  591       -6.1116761128      -0.0015956449     1.000000    0.08980492
  592       -6.1100804679       0.0015956449     0.999587    0.08980492
  593       -6.1116761128      -0.0015956449     1.000000    0.08980492
  594       -6.1100804679       0.0015956449     0.999587    0.08980492
  595       -6.1116761128      -0.0015956449     1.000000    0.08980492
  596       -6.1100804679       0.0015956449     0.999587    0.08980492
  597       -6.1116761128      -0.0015956449     1.000000    0.08980492
  598       -6.1100804679       0.0015956449     0.999587    0.08980492
  599       -6.1116761128      -0.0015956449     1.000000    0.08980492
  600       -6.1100804679       0.0015956449     0.999587    0.08980492
  601       -6.1116761128      -0.0015956449     1.000000    0.08980492
  602       -6.1100804679       0.0015956449     0.999587    0.08980492
  603       -6.1116761128      -0.0015956449     1.000000    0.08980492
  604       -6.1100804679       0.0015956449     0.999587    0.08980492
  605       -6.1116761128      -0.0015956449     1.000000    0.08980492
  606       -6.1100804679       0.0015956449     0.999587    0.08980492
  607       -6.1116761128      -0.0015956449     1.000000    0.08980492
  608       -6.1100804679       0.0015956449     0.999587    0.08980492
  609       -6.1116761128      -0.0015956449     1.000000    0.08980492
  610       -6.1100804679       0.0015956449     0.999587    0.08980492
  611       -6.1116761128      -0.0015956449     1.000000    0.08980492
  612       -6.1100804679       0.0015956449     0.999587    0.08980492
  613       -6.1116761128      -0.0015956449     1.000000    0.08980492
  614       -6.1100804679       0.0015956449     0.999587    0.08980492
  615       -6.1116761128      -0.0015956449     1.000000    0.08980492
  616       -6.1100804679       0.0015956449     0.999587    0.08980492
  617       -6.1116761128      -0.0015956449     1.000000    0.08980492
  618       -6.1100804679       0.0015956449     0.999587    0.08980492
  619       -6.1116761128      -0.0015956449     1.000000    0.08980492
  620       -6.1100804679       0.0015956449     0.999587    0.08980492
  621       -6.1116761128      -0.0015956449     1.000000    0.08980492
  622       -6.1100804679       0.0015956449     0.999587    0.08980492
  623       -6.1116761128      -0.0015956449     1.000000    0.08980492
  624       -6.1100804679       0.0015956449     0.999587    0.08980492
  625       -6.1116761128      -0.0015956449     1.000000    0.08980492
  626       -6.1100804679       0.0015956449     0.999587    0.08980492
  627       -6.1116761128      -0.0015956449     1.000000    0.08980492
  628       -6.1100804679       0.0015956449     0.999587    0.08980492
  629       -6.1116761128      -0.0015956449     1.000000    0.08980492
  630       -6.1100804679       0.0015956449     0.999587    0.08980492
  631       -6.1116761128      -0.0015956449     1.000000    0.08980492
  632       -6.1100804679       0.0015956449     0.999587    0.08980492
  633       -6.1116761128      -0.0015956449     1.000000    0.08980492
  634       -6.1100804679       0.0015956449     0.999587    0.08980492
  635       -6.1116761128      -0.0015956449     1.000000    0.08980492
  636       -6.1100804679       0.0015956449     0.999587    0.08980492
  637       -6.1116761128      -0.0015956449     1.000000    0.08980492
  638       -6.1100804679       0.0015956449     0.999587    0.08980492
  639       -6.1116761128      -0.0015956449     1.000000    0.08980492
  640       -6.1100804679       0.0015956449     0.999587    0.08980492
  641       -6.1116761128      -0.0015956449     1.000000    0.08980492
  642       -6.1100804679       0.0015956449     0.999587    0.08980492
  643       -6.1116761128      -0.0015956449     1.000000    0.08980492
  644       -6.1100804679       0.0015956449     0.999587    0.08980492
  645       -6.1116761128      -0.0015956449     1.000000    0.08980492
  646       -6.1100804679       0.0015956449     0.999587    0.08980492
  647       -6.1116761128      -0.0015956449     1.000000    0.08980492
  648       -6.1100804679       0.0015956449     0.999587    0.08980492
  649       -6.1116761128      -0.0015956449     1.000000    0.08980492
  650       -6.1100804679       0.0015956449     0.999587    0.08980492
  651       -6.1116761128      -0.0015956449     1.000000    0.08980492
  652       -6.1100804679       0.0015956449     0.999587    0.08980492
  653       -6.1116761128      -0.0015956449     1.000000    0.08980492
  654       -6.1100804679       0.0015956449     0.999587    0.08980492
  655       -6.1116761128      -0.0015956449     1.000000    0.08980492
  656       -6.1100804679       0.0015956449     0.999587    0.08980492
  657       -6.1116761128      -0.0015956449     1.000000    0.08980492
  658       -6.1100804679       0.0015956449     0.999587    0.08980492
  659       -6.1116761128      -0.0015956449     1.000000    0.08980492
  660       -6.1100804679       0.0015956449     0.999587    0.08980492
  661       -6.1116761128      -0.0015956449     1.000000    0.08980492
  662       -6.1100804679       0.0015956449     0.999587    0.08980492
  663       -6.1116761128      -0.0015956449     1.000000    0.08980492
  664       -6.1100804679       0.0015956449     0.999587    0.08980492
  665       -6.1116761128      -0.0015956449     1.000000    0.08980492
  666       -6.1100804679       0.0015956449     0.999587    0.08980492
  667       -6.1116761128      -0.0015956449     1.000000    0.08980492
  668       -6.1100804679       0.0015956449     0.999587    0.08980492
  669       -6.1116761128      -0.0015956449     1.000000    0.08980492
  670       -6.1100804679       0.0015956449     0.999587    0.08980492
  671       -6.1116761128      -0.0015956449     1.000000    0.08980492
  672       -6.1100804679       0.0015956449     0.999587    0.08980492
  673       -6.1116761128      -0.0015956449     1.000000    0.08980492
  674       -6.1100804679       0.0015956449     0.999587    0.08980492
  675       -6.1116761128      -0.0015956449     1.000000    0.08980492
  676       -6.1100804679       0.0015956449     0.999587    0.08980492
  677       -6.1116761128      -0.0015956449     1.000000    0.08980492
  678       -6.1100804679       0.0015956449     0.999587    0.08980492
  679       -6.1116761128      -0.0015956449     1.000000    0.08980492
  680       -6.1100804679       0.0015956449     0.999587    0.08980492
  681       -6.1116761128      -0.0015956449     1.000000    0.08980492
  682       -6.1100804679       0.0015956449     0.999587    0.08980492
  683       -6.1116761128      -0.0015956449     1.000000    0.08980492
  684       -6.1100804679       0.0015956449     0.999587    0.08980492
  685       -6.1116761128      -0.0015956449     1.000000    0.08980492
  686       -6.1100804679       0.0015956449     0.999587    0.08980492
  687       -6.1116761128      -0.0015956449     1.000000    0.08980492
  688       -6.1100804679       0.0015956449     0.999587    0.08980492
  689       -6.1116761128      -0.0015956449     1.000000    0.08980492
  690       -6.1100804679       0.0015956449     0.999587    0.08980492
  691       -6.1116761128      -0.0015956449     1.000000    0.08980492
  692       -6.1100804679       0.0015956449     0.999587    0.08980492
  693       -6.1116761128      -0.0015956449     1.000000    0.08980492
  694       -6.1100804679       0.0015956449     0.999587    0.08980492
  695       -6.1116761128      -0.0015956449     1.000000    0.08980492
  696       -6.1100804679       0.0015956449     0.999587    0.08980492
  697       -6.1116761128      -0.0015956449     1.000000    0.08980492
  698       -6.1100804679       0.0015956449     0.999587    0.08980492
  699       -6.1116761128      -0.0015956449     1.000000    0.08980492
  700       -6.1100804679       0.0015956449     0.999587    0.08980492
  701       -6.1116761128      -0.0015956449     1.000000    0.08980492
  702       -6.1100804679       0.0015956449     0.999587    0.08980492
  703       -6.1116761128      -0.0015956449     1.000000    0.08980492
  704       -6.1100804679       0.0015956449     0.999587    0.08980492
  705       -6.1116761128      -0.0015956449     1.000000    0.08980492
  706       -6.1100804679       0.0015956449     0.999587    0.08980492
  707       -6.1116761128      -0.0015956449     1.000000    0.08980492
  708       -6.1100804679       0.0015956449     0.999587    0.08980492
  709       -6.1116761128      -0.0015956449     1.000000    0.08980492
  710       -6.1100804679       0.0015956449     0.999587    0.08980492
  711       -6.1116761128      -0.0015956449     1.000000    0.08980492
  712       -6.1100804679       0.0015956449     0.999587    0.08980492
  713       -6.1116761128      -0.0015956449     1.000000    0.08980492
  714       -6.1100804679       0.0015956449     0.999587    0.08980492
  715       -6.1116761128      -0.0015956449     1.000000    0.08980492
  716       -6.1100804679       0.0015956449     0.999587    0.08980492
  717       -6.1116761128      -0.0015956449     1.000000    0.08980492
  718       -6.1100804679       0.0015956449     0.999587    0.08980492
  719       -6.1116761128      -0.0015956449     1.000000    0.08980492
  720       -6.1100804679       0.0015956449     0.999587    0.08980492
  721       -6.1116761128      -0.0015956449     1.000000    0.08980492
  722       -6.1100804679       0.0015956449     0.999587    0.08980492
  723       -6.1116761128      -0.0015956449     1.000000    0.08980492
  724       -6.1100804679       0.0015956449     0.999587    0.08980492
  725       -6.1116761128      -0.0015956449     1.000000    0.08980492
  726       -6.1100804679       0.0015956449     0.999587    0.08980492
  727       -6.1116761128      -0.0015956449     1.000000    0.08980492
  728       -6.1100804679       0.0015956449     0.999587    0.08980492
  729       -6.1116761128      -0.0015956449     1.000000    0.08980492
  730       -6.1100804679       0.0015956449     0.999587    0.08980492
  731       -6.1116761128      -0.0015956449     1.000000    0.08980492
  732       -6.1100804679       0.0015956449     0.999587    0.08980492
  733       -6.1116761128      -0.0015956449     1.000000    0.08980492
  734       -6.1100804679       0.0015956449     0.999587    0.08980492
  735       -6.1116761128      -0.0015956449     1.000000    0.08980492
  736       -6.1100804679       0.0015956449     0.999587    0.08980492
  737       -6.1116761128      -0.0015956449     1.000000    0.08980492
  738       -6.1100804679       0.0015956449     0.999587    0.08980492
  739       -6.1116761128      -0.0015956449     1.000000    0.08980492
  740       -6.1100804679       0.0015956449     0.999587    0.08980492
  741       -6.1116761128      -0.0015956449     1.000000    0.08980492
  742       -6.1100804679       0.0015956449     0.999587    0.08980492
  743       -6.1116761128      -0.0015956449     1.000000    0.08980492
  744       -6.1100804679       0.0015956449     0.999587    0.08980492
  745       -6.1116761128      -0.0015956449     1.000000    0.08980492
  746       -6.1100804679       0.0015956449     0.999587    0.08980492
  747       -6.1116761128      -0.0015956449     1.000000    0.08980492
  748       -6.1100804679       0.0015956449     0.999587    0.08980492
  749       -6.1116761128      -0.0015956449     1.000000    0.08980492
  750       -6.1100804679       0.0015956449     0.999587    0.08980492
  751       -6.1116761128      -0.0015956449     1.000000    0.08980492
  752       -6.1100804679       0.0015956449     0.999587    0.08980492
  753       -6.1116761128      -0.0015956449     1.000000    0.08980492
  754       -6.1100804679       0.0015956449     0.999587    0.08980492
  755       -6.1116761128      -0.0015956449     1.000000    0.08980492
  756       -6.1100804679       0.0015956449     0.999587    0.08980492
  757       -6.1116761128      -0.0015956449     1.000000    0.08980492
  758       -6.1100804679       0.0015956449     0.999587    0.08980492
  759       -6.1116761128      -0.0015956449     1.000000    0.08980492
  760       -6.1100804679       0.0015956449     0.999587    0.08980492
  761       -6.1116761128      -0.0015956449     1.000000    0.08980492
  762       -6.1100804679       0.0015956449     0.999587    0.08980492
  763       -6.1116761128      -0.0015956449     1.000000    0.08980492
  764       -6.1100804679       0.0015956449     0.999587    0.08980492
  765       -6.1116761128      -0.0015956449     1.000000    0.08980492
  766       -6.1100804679       0.0015956449     0.999587    0.08980492
  767       -6.1116761128      -0.0015956449     1.000000    0.08980492
  768       -6.1100804679       0.0015956449     0.999587    0.08980492
  769       -6.1116761128      -0.0015956449     1.000000    0.08980492
  770       -6.1100804679       0.0015956449     0.999587    0.08980492
  771       -6.1116761128      -0.0015956449     1.000000    0.08980492
  772       -6.1100804679       0.0015956449     0.999587    0.08980492
  773       -6.1116761128      -0.0015956449     1.000000    0.08980492
  774       -6.1100804679       0.0015956449     0.999587    0.08980492
  775       -6.1116761128      -0.0015956449     1.000000    0.08980492
  776       -6.1100804679       0.0015956449     0.999587    0.08980492
  777       -6.1116761128      -0.0015956449     1.000000    0.08980492
  778       -6.1100804679       0.0015956449     0.999587    0.08980492
  779       -6.1116761128      -0.0015956449     1.000000    0.08980492
  780       -6.1100804679       0.0015956449     0.999587    0.08980492
  781       -6.1116761128      -0.0015956449     1.000000    0.08980492
  782       -6.1100804679       0.0015956449     0.999587    0.08980492
  783       -6.1116761128      -0.0015956449     1.000000    0.08980492
  784       -6.1100804679       0.0015956449     0.999587    0.08980492
  785       -6.1116761128      -0.0015956449     1.000000    0.08980492
  786       -6.1100804679       0.0015956449     0.999587    0.08980492
  787       -6.1116761128      -0.0015956449     1.000000    0.08980492
  788       -6.1100804679       0.0015956449     0.999587    0.08980492
  789       -6.1116761128      -0.0015956449     1.000000    0.08980492
  790       -6.1100804679       0.0015956449     0.999587    0.08980492
  791       -6.1116761128      -0.0015956449     1.000000    0.08980492
  792       -6.1100804679       0.0015956449     0.999587    0.08980492
  793       -6.1116761128      -0.0015956449     1.000000    0.08980492
  794       -6.1100804679       0.0015956449     0.999587    0.08980492
  795       -6.1116761128      -0.0015956449     1.000000    0.08980492
  796       -6.1100804679       0.0015956449     0.999587    0.08980492
  797       -6.1116761128      -0.0015956449     1.000000    0.08980492
  798       -6.1100804679       0.0015956449     0.999587    0.08980492
  799       -6.1116761128      -0.0015956449     1.000000    0.08980492
  800       -6.1100804679       0.0015956449     0.999587    0.08980492
  801       -6.1116761128      -0.0015956449     1.000000    0.08980492
  802       -6.1100804679       0.0015956449     0.999587    0.08980492
  803       -6.1116761128      -0.0015956449     1.000000    0.08980492
  804       -6.1100804679       0.0015956449     0.999587    0.08980492
  805       -6.1116761128      -0.0015956449     1.000000    0.08980492
  806       -6.1100804679       0.0015956449     0.999587    0.08980492
  807       -6.1116761128      -0.0015956449     1.000000    0.08980492
  808       -6.1100804679       0.0015956449     0.999587    0.08980492
  809       -6.1116761128      -0.0015956449     1.000000    0.08980492
  810       -6.1100804679       0.0015956449     0.999587    0.08980492
  811       -6.1116761128      -0.0015956449     1.000000    0.08980492
  812       -6.1100804679       0.0015956449     0.999587    0.08980492
  813       -6.1116761128      -0.0015956449     1.000000    0.08980492
  814       -6.1100804679       0.0015956449     0.999587    0.08980492
  815       -6.1116761128      -0.0015956449     1.000000    0.08980492
  816       -6.1100804679       0.0015956449     0.999587    0.08980492
  817       -6.1116761128      -0.0015956449     1.000000    0.08980492
  818       -6.1100804679       0.0015956449     0.999587    0.08980492
  819       -6.1116761128      -0.0015956449     1.000000    0.08980492
  820       -6.1100804679       0.0015956449     0.999587    0.08980492
  821       -6.1116761128      -0.0015956449     1.000000    0.08980492
  822       -6.1100804679       0.0015956449     0.999587    0.08980492
  823       -6.1116761128      -0.0015956449     1.000000    0.08980492
  824       -6.1100804679       0.0015956449     0.999587    0.08980492
  825       -6.1116761128      -0.0015956449     1.000000    0.08980492
  826       -6.1100804679       0.0015956449     0.999587    0.08980492
  827       -6.1116761128      -0.0015956449     1.000000    0.08980492
  828       -6.1100804679       0.0015956449     0.999587    0.08980492
  829       -6.1116761128      -0.0015956449     1.000000    0.08980492
  830       -6.1100804679       0.0015956449     0.999587    0.08980492
  831       -6.1116761128      -0.0015956449     1.000000    0.08980492
  832       -6.1100804679       0.0015956449     0.999587    0.08980492
  833       -6.1116761128      -0.0015956449     1.000000    0.08980492
  834       -6.1100804679       0.0015956449     0.999587    0.08980492
  835       -6.1116761128      -0.0015956449     1.000000    0.08980492
  836       -6.1100804679       0.0015956449     0.999587    0.08980492
  837       -6.1116761128      -0.0015956449     1.000000    0.08980492
  838       -6.1100804679       0.0015956449     0.999587    0.08980492
  839       -6.1116761128      -0.0015956449     1.000000    0.08980492
  840       -6.1100804679       0.0015956449     0.999587    0.08980492
  841       -6.1116761128      -0.0015956449     1.000000    0.08980492
  842       -6.1100804679       0.0015956449     0.999587    0.08980492
  843       -6.1116761128      -0.0015956449     1.000000    0.08980492
  844       -6.1100804679       0.0015956449     0.999587    0.08980492
  845       -6.1116761128      -0.0015956449     1.000000    0.08980492
  846       -6.1100804679       0.0015956449     0.999587    0.08980492
  847       -6.1116761128      -0.0015956449     1.000000    0.08980492
  848       -6.1100804679       0.0015956449     0.999587    0.08980492
  849       -6.1116761128      -0.0015956449     1.000000    0.08980492
  850       -6.1100804679       0.0015956449     0.999587    0.08980492
  851       -6.1116761128      -0.0015956449     1.000000    0.08980492
  852       -6.1100804679       0.0015956449     0.999587    0.08980492
  853       -6.1116761128      -0.0015956449     1.000000    0.08980492
  854       -6.1100804679       0.0015956449     0.999587    0.08980492
  855       -6.1116761128      -0.0015956449     1.000000    0.08980492
  856       -6.1100804679       0.0015956449     0.999587    0.08980492
  857       -6.1116761128      -0.0015956449     1.000000    0.08980492
  858       -6.1100804679       0.0015956449     0.999587    0.08980492
  859       -6.1116761128      -0.0015956449     1.000000    0.08980492
  860       -6.1100804679       0.0015956449     0.999587    0.08980492
  861       -6.1116761128      -0.0015956449     1.000000    0.08980492
  862       -6.1100804679       0.0015956449     0.999587    0.08980492
  863       -6.1116761128      -0.0015956449     1.000000    0.08980492
  864       -6.1100804679       0.0015956449     0.999587    0.08980492
  865       -6.1116761128      -0.0015956449     1.000000    0.08980492
  866       -6.1100804679       0.0015956449     0.999587    0.08980492
  867       -6.1116761128      -0.0015956449     1.000000    0.08980492
  868       -6.1100804679       0.0015956449     0.999587    0.08980492
  869       -6.1116761128      -0.0015956449     1.000000    0.08980492
  870       -6.1100804679       0.0015956449     0.999587    0.08980492
  871       -6.1116761128      -0.0015956449     1.000000    0.08980492
  872       -6.1100804679       0.0015956449     0.999587    0.08980492
  873       -6.1116761128      -0.0015956449     1.000000    0.08980492
  874       -6.1100804679       0.0015956449     0.999587    0.08980492
  875       -6.1116761128      -0.0015956449     1.000000    0.08980492
  876       -6.1100804679       0.0015956449     0.999587    0.08980492
  877       -6.1116761128      -0.0015956449     1.000000    0.08980492
  878       -6.1100804679       0.0015956449     0.999587    0.08980492
  879       -6.1116761128      -0.0015956449     1.000000    0.08980492
  880       -6.1100804679       0.0015956449     0.999587    0.08980492
  881       -6.1116761128      -0.0015956449     1.000000    0.08980492
  882       -6.1100804679       0.0015956449     0.999587    0.08980492
  883       -6.1116761128      -0.0015956449     1.000000    0.08980492
  884       -6.1100804679       0.0015956449     0.999587    0.08980492
  885       -6.1116761128      -0.0015956449     1.000000    0.08980492
  886       -6.1100804679       0.0015956449     0.999587    0.08980492
  887       -6.1116761128      -0.0015956449     1.000000    0.08980492
  888       -6.1100804679       0.0015956449     0.999587    0.08980492
  889       -6.1116761128      -0.0015956449     1.000000    0.08980492
  890       -6.1100804679       0.0015956449     0.999587    0.08980492
  891       -6.1116761128      -0.0015956449     1.000000    0.08980492
  892       -6.1100804679       0.0015956449     0.999587    0.08980492
  893       -6.1116761128      -0.0015956449     1.000000    0.08980492
  894       -6.1100804679       0.0015956449     0.999587    0.08980492
  895       -6.1116761128      -0.0015956449     1.000000    0.08980492
  896       -6.1100804679       0.0015956449     0.999587    0.08980492
  897       -6.1116761128      -0.0015956449     1.000000    0.08980492
  898       -6.1100804679       0.0015956449     0.999587    0.08980492
  899       -6.1116761128      -0.0015956449     1.000000    0.08980492
  900       -6.1100804679       0.0015956449     0.999587    0.08980492
  901       -6.1116761128      -0.0015956449     1.000000    0.08980492
  902       -6.1100804679       0.0015956449     0.999587    0.08980492
  903       -6.1116761128      -0.0015956449     1.000000    0.08980492
  904       -6.1100804679       0.0015956449     0.999587    0.08980492
  905       -6.1116761128      -0.0015956449     1.000000    0.08980492
  906       -6.1100804679       0.0015956449     0.999587    0.08980492
  907       -6.1116761128      -0.0015956449     1.000000    0.08980492
  908       -6.1100804679       0.0015956449     0.999587    0.08980492
  909       -6.1116761128      -0.0015956449     1.000000    0.08980492
  910       -6.1100804679       0.0015956449     0.999587    0.08980492
  911       -6.1116761128      -0.0015956449     1.000000    0.08980492
  912       -6.1100804679       0.0015956449     0.999587    0.08980492
  913       -6.1116761128      -0.0015956449     1.000000    0.08980492
  914       -6.1100804679       0.0015956449     0.999587    0.08980492
  915       -6.1116761128      -0.0015956449     1.000000    0.08980492
  916       -6.1100804679       0.0015956449     0.999587    0.08980492
  917       -6.1116761128      -0.0015956449     1.000000    0.08980492
  918       -6.1100804679       0.0015956449     0.999587    0.08980492
  919       -6.1116761128      -0.0015956449     1.000000    0.08980492
  920       -6.1100804679       0.0015956449     0.999587    0.08980492
  921       -6.1116761128      -0.0015956449     1.000000    0.08980492
  922       -6.1100804679       0.0015956449     0.999587    0.08980492
  923       -6.1116761128      -0.0015956449     1.000000    0.08980492
  924       -6.1100804679       0.0015956449     0.999587    0.08980492
  925       -6.1116761128      -0.0015956449     1.000000    0.08980492
  926       -6.1100804679       0.0015956449     0.999587    0.08980492
  927       -6.1116761128      -0.0015956449     1.000000    0.08980492
  928       -6.1100804679       0.0015956449     0.999587    0.08980492
  929       -6.1116761128      -0.0015956449     1.000000    0.08980492
  930       -6.1100804679       0.0015956449     0.999587    0.08980492
  931       -6.1116761128      -0.0015956449     1.000000    0.08980492
  932       -6.1100804679       0.0015956449     0.999587    0.08980492
  933       -6.1116761128      -0.0015956449     1.000000    0.08980492
  934       -6.1100804679       0.0015956449     0.999587    0.08980492
  935       -6.1116761128      -0.0015956449     1.000000    0.08980492
  936       -6.1100804679       0.0015956449     0.999587    0.08980492
  937       -6.1116761128      -0.0015956449     1.000000    0.08980492
  938       -6.1100804679       0.0015956449     0.999587    0.08980492
  939       -6.1116761128      -0.0015956449     1.000000    0.08980492
  940       -6.1100804679       0.0015956449     0.999587    0.08980492
  941       -6.1116761128      -0.0015956449     1.000000    0.08980492
  942       -6.1100804679       0.0015956449     0.999587    0.08980492
  943       -6.1116761128      -0.0015956449     1.000000    0.08980492
  944       -6.1100804679       0.0015956449     0.999587    0.08980492
  945       -6.1116761128      -0.0015956449     1.000000    0.08980492
  946       -6.1100804679       0.0015956449     0.999587    0.08980492
  947       -6.1116761128      -0.0015956449     1.000000    0.08980492
  948       -6.1100804679       0.0015956449     0.999587    0.08980492
  949       -6.1116761128      -0.0015956449     1.000000    0.08980492
  950       -6.1100804679       0.0015956449     0.999587    0.08980492
  951       -6.1116761128      -0.0015956449     1.000000    0.08980492
  952       -6.1100804679       0.0015956449     0.999587    0.08980492
  953       -6.1116761128      -0.0015956449     1.000000    0.08980492
  954       -6.1100804679       0.0015956449     0.999587    0.08980492
  955       -6.1116761128      -0.0015956449     1.000000    0.08980492
  956       -6.1100804679       0.0015956449     0.999587    0.08980492
  957       -6.1116761128      -0.0015956449     1.000000    0.08980492
  958       -6.1100804679       0.0015956449     0.999587    0.08980492
  959       -6.1116761128      -0.0015956449     1.000000    0.08980492
  960       -6.1100804679       0.0015956449     0.999587    0.08980492
  961       -6.1116761128      -0.0015956449     1.000000    0.08980492
  962       -6.1100804679       0.0015956449     0.999587    0.08980492
  963       -6.1116761128      -0.0015956449     1.000000    0.08980492
  964       -6.1100804679       0.0015956449     0.999587    0.08980492
  965       -6.1116761128      -0.0015956449     1.000000    0.08980492
  966       -6.1100804679       0.0015956449     0.999587    0.08980492
  967       -6.1116761128      -0.0015956449     1.000000    0.08980492
  968       -6.1100804679       0.0015956449     0.999587    0.08980492
  969       -6.1116761128      -0.0015956449     1.000000    0.08980492
  970       -6.1100804679       0.0015956449     0.999587    0.08980492
  971       -6.1116761128      -0.0015956449     1.000000    0.08980492
  972       -6.1100804679       0.0015956449     0.999587    0.08980492
  973       -6.1116761128      -0.0015956449     1.000000    0.08980492
  974       -6.1100804679       0.0015956449     0.999587    0.08980492
  975       -6.1116761128      -0.0015956449     1.000000    0.08980492
  976       -6.1100804679       0.0015956449     0.999587    0.08980492
  977       -6.1116761128      -0.0015956449     1.000000    0.08980492
  978       -6.1100804679       0.0015956449     0.999587    0.08980492
  979       -6.1116761128      -0.0015956449     1.000000    0.08980492
  980       -6.1100804679       0.0015956449     0.999587    0.08980492
  981       -6.1116761128      -0.0015956449     1.000000    0.08980492
  982       -6.1100804679       0.0015956449     0.999587    0.08980492
  983       -6.1116761128      -0.0015956449     1.000000    0.08980492
  984       -6.1100804679       0.0015956449     0.999587    0.08980492
  985       -6.1116761128      -0.0015956449     1.000000    0.08980492
  986       -6.1100804679       0.0015956449     0.999587    0.08980492
  987       -6.1116761128      -0.0015956449     1.000000    0.08980492
  988       -6.1100804679       0.0015956449     0.999587    0.08980492
  989       -6.1116761128      -0.0015956449     1.000000    0.08980492
  990       -6.1100804679       0.0015956449     0.999587    0.08980492
  991       -6.1116761128      -0.0015956449     1.000000    0.08980492
  992       -6.1100804679       0.0015956449     0.999587    0.08980492
  993       -6.1116761128      -0.0015956449     1.000000    0.08980492
  994       -6.1100804679       0.0015956449     0.999587    0.08980492
  995       -6.1116761128      -0.0015956449     1.000000    0.08980492
  996       -6.1100804679       0.0015956449     0.999587    0.08980492
  997       -6.1116761128      -0.0015956449     1.000000    0.08980492
  998       -6.1100804679       0.0015956449     0.999587    0.08980492
  999       -6.1116761128      -0.0015956449     1.000000    0.08980492
 1000       -6.1100804679       0.0015956449     0.999587    0.08980492

Total Energy:                       -6.1100804679 H         -166.2637 eV
Extrapolated to 0:                  -6.1795602290 H         -168.1544 eV

----------------------------------------------------------------------------------
 Solving CP-REKS equation for  1 state vector...
----------------------------------------------------------------------------------
  CG solver: Constructing Y initial guess
  CG solver: Iteration    1    eps =    0.110111844821
  CG solver: Iteration    2    eps =    0.048138618760
  CG solver: Iteration    3    eps =    0.008747080337
  CG solver: Iteration    4    eps =    0.001806148067
  CG solver: Iteration    5    eps =    0.000390160805
  CG solver: Iteration    6    eps =    0.000143204664
  CG solver: Iteration    7    eps =    0.000009104402
  CG solver: Iteration    8    eps =    0.000001407416
  CG solver: Iteration    9    eps =    0.000000118051
  CG solver: Iteration   10    eps =    0.000000023679
  CG solver: Iteration   11    eps =    0.000000001781
  Convergence reached in CG solver after   11 iterations
  CG solver: Calculating converged R, Z, Q2 matrix
----------------------------------------------------------------------------------

----------------------------------------------------------------------------------
 Solving CP-REKS equation for SI between  1 and  2 state vectors...
----------------------------------------------------------------------------------
  CG solver: Constructing Y initial guess
  CG solver: Iteration    1    eps =    0.015140542695
  CG solver: Iteration    2    eps =    0.006377203439
  CG solver: Iteration    3    eps =    0.000187893648
  CG solver: Iteration    4    eps =    0.000028359122
  CG solver: Iteration    5    eps =    0.000004904521
  CG solver: Iteration    6    eps =    0.000000271755
  CG solver: Iteration    7    eps =    0.000000123736
  CG solver: Iteration    8    eps =    0.000000008126
  Convergence reached in CG solver after    8 iterations
  CG solver: Calculating converged R, Z, Q2 matrix
----------------------------------------------------------------------------------

--------------------------------------------------
 Gradient Information
--------------------------------------------------
           1 st state (SSR)
     0.00000000     0.00000000     0.00000000
     0.00000000     0.00000000     0.00000000
     0.00000000     0.00000000     0.00000000
     0.00000000     0.00000000     0.00000000
     0.00000000     0.00000000     0.00000000
     0.00000000     0.00000000     0.00000000

           2 st state (SSR)
     0.00000000     0.00000000     0.00000000
     0.00000000     0.00000000     0.00000000
     0.00000000     0.00000000     0.00000000
     0.00000000     0.00000000     0.00000000
     0.00000000     0.00000000     0.00000000
     0.00000000     0.00000000     0.00000000
--------------------------------------------------
 Coupling Information
--------------------------------------------------
 between  1 and  2 states
--------------------------------------------------
 g vector - difference gradient
    -0.41511691    -0.24041005    -0.73013414
     1.14097232     0.06584439     1.15374845
     0.05389762    -0.15440564     0.05239413
    -0.42297548     0.12082789    -0.12568707
    -0.21524081     0.08905529    -0.35535951
    -0.14153673     0.11908812     0.00503815

 h vector - derivative coupling
    -0.01067094    -0.00120631    -0.01136175
     0.02189406    -0.00590076    -0.00338417
     0.00072578     0.01260061     0.00468122
    -0.00385452     0.00828107     0.00055898
    -0.00478919    -0.00663117     0.00601005
    -0.00330519    -0.00714344     0.00349566

 G vector - GDV
     0.00000000     0.00000000     0.00000000
     0.00000000     0.00000000     0.00000000
     0.00000000     0.00000000     0.00000000
     0.00000000     0.00000000     0.00000000
     0.00000000     0.00000000     0.00000000
     0.00000000     0.00000000     0.00000000

 H vector - DCV - non-adiabatic coupling
    -0.00000000    -0.00000000    -0.00000000
    -0.00000000    -0.00000000    -0.00000000
    -0.00000000    -0.00000000    -0.00000000
    -0.00000000    -0.00000000    -0.00000000
    -0.00000000    -0.00000000    -0.00000000
    -0.00000000    -0.00000000    -0.00000000
--------------------------------------------------

WARNING!
-> SCC is NOT converged, maximal SCC iterations exceeded

--------------------------------------------------------------------------------
DFTB+ running times                          cpu [s]             wall clock [s]
--------------------------------------------------------------------------------
SCC                                    +     0.36  ( 96.8%)      0.37  ( 96.3%)
      Sparse to dense                        0.02  (  4.8%)      0.02  (  6.1%)
      Dense to sparse                        0.06  ( 16.4%)      0.06  ( 15.3%)
      Range separated Hamiltonian            0.03  (  6.8%)      0.02  (  4.5%)
  Density matrix creation                    0.05  ( 12.5%)      0.05  ( 13.2%)
  Force calculation                          0.01  (  2.9%)      0.01  (  2.6%)
--------------------------------------------------------------------------------
Missing                                +     0.01  (  3.2%)      0.01  (  3.7%)
Total                                  =     0.38  (100.0%)      0.38  (100.0%)
--------------------------------------------------------------------------------
