|===============================================================================
|
|  DFTB+ release 20.1
|
|  Copyright (C) 2006 - 2020  DFTB+ developers group
|
|===============================================================================
|
|  When publishing results obtained with DFTB+, please cite the following
|  reference:
|
|  * DFTB+, a software package for efficient approximate density functional
|    theory based atomistic simulations, J. Chem. Phys. 152, 124101 (2020).
|    [doi: 10.1063/1.5143190]
|
|  You should also cite additional publications crediting the parametrization
|  data you use. Please consult the documentation of the SK-files for the
|  references.
|
|===============================================================================

Reading input file 'dftb_in.hsd'
Parser version: 8

--------------------------------------------------------------------------------
Reading SK-files:
Done.


Processed input in HSD format written to 'dftb_pin.hsd'

Starting initialization...
--------------------------------------------------------------------------------
OpenMP threads:              1
Chosen random seed:          507935859
Mode:                        Static calculation
Self consistent charges:     Yes
SCC-tolerance:                 0.100000E-05
Max. scc iterations:                   1000
Shell resolved Hubbard:      No
Spin polarisation:           No
Nr. of up electrons:             6.000000
Nr. of down electrons:           6.000000
Periodic boundaries:         No
Electronic solver:           Relatively robust
Maximal SCC-cycles:                    1000
Initial charges:             Set automatically (system chrg:   0.100E+01)
Included shells:             C:  s, p
                             N:  s, p
                             H:  s
Spin coupling constants:     C   1(s)-1(s):  -0.455900E-01
                             C   1(s)-2(p):  -0.293000E-01
                             C   2(p)-1(s):  -0.293000E-01
                             C   2(p)-2(p):  -0.275500E-01
                             N   1(s)-1(s):  -0.468700E-01
                             N   1(s)-2(p):  -0.317000E-01
                             N   2(p)-1(s):  -0.317000E-01
                             N   2(p)-2(p):  -0.307200E-01
                             H   1(s)-1(s):  -0.792500E-01
Range separated hybrid:      Yes
  Screening parameter omega:   0.300000E+00
  Range separated algorithm:   MatrixBased
Extra options:
                             Mulliken analysis
                             Force calculation
Force type                   original
                             Eigenvector printing


REKS Calcuation:             Yes
SSR(2,2) Calcuation:         Yes
Energy Functional:           (PPS+OSS)/2
Number of Core Orbitals:                  5
Number of Active Orbitals:                2
Number of Basis:                         12
Number of States:                         2
State-Averaging Weight:          0.500000
                                 0.500000
State of Interest:                        1
Initial Guess:               Diagonalize H0 matrix
Newton-Raphson for FON opt:  Yes
NR max. Iterations:                      50
Level Shifting:              Yes
Shift Value:                     0.300000
W Scale Factor:              C  =    3.000000
                             N  =    3.000000
                             H  =    3.000000
Transition Dipole:           No
Gradient of Microstate:      No
CP-REKS Solver:              Preconditioned Conjugate-Gradient
CG max. Iterations:                     100
CG Tolerance:                  0.100000E-07
Memory for A and Hxc:        Direct Updating Without Saving
Non-Adiabatic Coupling:      Yes

--------------------------------------------------------------------------------

***  Geometry step: 0

  iSCC       reks energy        Diff energy         x_a       SCC error   
    1       -6.2652211686       0.0000000000     0.998799    1.18120671
    2       -6.2782865918      -0.0130654233     0.999534    0.10582965
    3       -6.2820337585      -0.0037471667     0.999747    0.04830110
    4       -6.2837339001      -0.0017001416     0.999834    0.02481994
    5       -6.2846724026      -0.0009385025     0.999875    0.01379637
    6       -6.2852720184      -0.0005996158     0.999897    0.00787310
    7       -6.2856922646      -0.0004202462     0.999909    0.00593072
    8       -6.2860008597      -0.0003085951     0.999917    0.00536582
    9       -6.2862318288      -0.0002309691     0.999922    0.00475616
   10       -6.2864055566      -0.0001737278     0.999926    0.00416147
   11       -6.2865360025      -0.0001304459     0.999928    0.00360914
   12       -6.2866334964      -0.0000974939     0.999930    0.00311041
   13       -6.2867059534      -0.0000724570     0.999931    0.00271508
   14       -6.2867594990      -0.0000535456     0.999932    0.00235521
   15       -6.2867988620      -0.0000393629     0.999932    0.00205524
   16       -6.2868276646      -0.0000288026     0.999933    0.00181581
   17       -6.2868486556      -0.0000209910     0.999933    0.00159442
   18       -6.2868639017      -0.0000152461     0.999933    0.00139277
   19       -6.2868749435      -0.0000110418     0.999933    0.00121126
   20       -6.2868829212      -0.0000079778     0.999933    0.00104944
   21       -6.2868886737      -0.0000057525     0.999933    0.00090629
   22       -6.2868928147      -0.0000041410     0.999933    0.00078047
   23       -6.2868957916      -0.0000029768     0.999933    0.00067048
   24       -6.2868979290      -0.0000021374     0.999933    0.00057477
   25       -6.2868994622      -0.0000015332     0.999933    0.00049181
   26       -6.2869005611      -0.0000010989     0.999933    0.00042015
   27       -6.2869013481      -0.0000007870     0.999933    0.00035842
   28       -6.2869019114      -0.0000005633     0.999933    0.00030538
   29       -6.2869023144      -0.0000004030     0.999933    0.00025990
   30       -6.2869026026      -0.0000002882     0.999933    0.00022099
   31       -6.2869028087      -0.0000002060     0.999933    0.00018774
   32       -6.2869029559      -0.0000001472     0.999933    0.00015938
   33       -6.2869030610      -0.0000001052     0.999933    0.00013522
   34       -6.2869031362      -0.0000000751     0.999933    0.00011465
   35       -6.2869031898      -0.0000000536     0.999933    0.00009717
   36       -6.2869032281      -0.0000000383     0.999933    0.00008231
   37       -6.2869032554      -0.0000000273     0.999933    0.00006970
   38       -6.2869032750      -0.0000000195     0.999933    0.00005900
   39       -6.2869032889      -0.0000000139     0.999933    0.00004993
   40       -6.2869032988      -0.0000000099     0.999933    0.00004224
   41       -6.2869033059      -0.0000000071     0.999933    0.00003573
   42       -6.2869033110      -0.0000000051     0.999933    0.00003022
   43       -6.2869033146      -0.0000000036     0.999933    0.00002555
   44       -6.2869033172      -0.0000000026     0.999933    0.00002160
   45       -6.2869033190      -0.0000000018     0.999933    0.00001826
   46       -6.2869033203      -0.0000000013     0.999933    0.00001543
   47       -6.2869033212      -0.0000000009     0.999933    0.00001304
   48       -6.2869033219      -0.0000000007     0.999933    0.00001102
   49       -6.2869033224      -0.0000000005     0.999933    0.00000931
   50       -6.2869033227      -0.0000000003     0.999933    0.00000787
   51       -6.2869033230      -0.0000000002     0.999933    0.00000665
   52       -6.2869033231      -0.0000000002     0.999933    0.00000562
   53       -6.2869033233      -0.0000000001     0.999933    0.00000474
   54       -6.2869033233      -0.0000000001     0.999933    0.00000401
   55       -6.2869033234      -0.0000000001     0.999933    0.00000339
   56       -6.2869033235      -0.0000000000     0.999933    0.00000286
   57       -6.2869033235      -0.0000000000     0.999933    0.00000242
   58       -6.2869033235      -0.0000000000     0.999933    0.00000204
   59       -6.2869033235      -0.0000000000     0.999933    0.00000172
   60       -6.2869033235      -0.0000000000     0.999933    0.00000146
   61       -6.2869033235      -0.0000000000     0.999933    0.00000123
   62       -6.2869033235      -0.0000000000     0.999933    0.00000104
   63       -6.2869033236      -0.0000000000     0.999933    0.00000088
  
--------------------------------------------------
 Final SA-REKS(2,2) energy:      -6.28690332
  
 State     Energy      FON(1)    FON(2)   Spin
  PPS   -6.40873809   1.999865  0.000135  0.00
  OSS   -6.16506855   1.000000  1.000000  0.00
 Trip   -6.24642185   1.000000  1.000000  1.00
--------------------------------------------------

 Lagrangian Wab:  -0.00698486 -0.00698459

--------------------------------------------------
 SSR: 2SI-2SA-REKS(2,2) Hamiltonian matrix
               PPS           OSS
   PPS    -6.40873809   -0.00979673
   OSS    -0.00979673   -6.16506855
--------------------------------------------------

----------------------------------------------------------------
 SSR: 2SI-2SA-REKS(2,2) states
                    E_n       C_{PPS}    C_{OSS}
 SSR state  1   -6.40913134  -0.999195  -0.040108
 SSR state  2   -6.16467531   0.040108  -0.999195
----------------------------------------------------------------

 unrelaxed SSR FONs for S0:  1.998257  0.001743

Total Energy:                       -6.4091313363 H         -174.4013 eV
Extrapolated to 0:                  -6.4091313363 H         -174.4013 eV

----------------------------------------------------------------------------------
 Solving CP-REKS equation for  1 state vector...
----------------------------------------------------------------------------------
  CG solver: Constructing Y initial guess
  CG solver: Iteration    1    eps =    0.000124306009
  CG solver: Iteration    2    eps =    0.000083877062
  CG solver: Iteration    3    eps =    0.000010604626
  CG solver: Iteration    4    eps =    0.000001232944
  CG solver: Iteration    5    eps =    0.000000025409
  CG solver: Iteration    6    eps =    0.000000006773
  Convergence reached in CG solver after    6 iterations
  CG solver: Calculating converged R, Z, Q2 matrix
----------------------------------------------------------------------------------

----------------------------------------------------------------------------------
 Solving CP-REKS equation for SI between  1 and  2 state vectors...
----------------------------------------------------------------------------------
  CG solver: Constructing Y initial guess
  CG solver: Iteration    1    eps =    0.003460288083
  CG solver: Iteration    2    eps =    0.005419193292
  CG solver: Iteration    3    eps =    0.000568824805
  CG solver: Iteration    4    eps =    0.000009352388
  CG solver: Iteration    5    eps =    0.000001404899
  CG solver: Iteration    6    eps =    0.000000041192
  CG solver: Iteration    7    eps =    0.000000001902
  Convergence reached in CG solver after    7 iterations
  CG solver: Calculating converged R, Z, Q2 matrix
----------------------------------------------------------------------------------

--------------------------------------------------
 Gradient Information
--------------------------------------------------
           1 st state (SSR)
    -0.00486671     0.01091151    -0.01260105
     0.02233264    -0.00220165     0.01887599
     0.01032649    -0.00538244    -0.00405273
     0.00446142    -0.00602109    -0.00159678
    -0.02043167     0.00074655    -0.00428548
    -0.01182217     0.00194712     0.00366004

           2 st state (SSR)
     0.00979518    -0.00667337     0.08391836
    -0.02148425     0.00138044    -0.09646848
    -0.01408901    -0.00884808     0.01363385
    -0.00465079     0.00546503    -0.01043586
     0.01670634    -0.00238067    -0.01019874
     0.01372253     0.01105666     0.01955087
--------------------------------------------------
 Coupling Information
--------------------------------------------------
 between  1 and  2 states
--------------------------------------------------
 g vector - difference gradient
    -0.00736432     0.00876275    -0.05052887
     0.02272515    -0.00150116     0.05943707
     0.01325199     0.00143509    -0.00867171
     0.00557453    -0.00592988     0.00462483
    -0.02012558     0.00135139     0.00288388
    -0.01406178    -0.00411820    -0.00774520

 h vector - derivative coupling
     0.00012070     0.00072209     0.02628278
    -0.00927733    -0.00367700    -0.01963296
    -0.01249640     0.00377226    -0.00248884
    -0.01248257     0.00209278    -0.00237564
     0.01861252     0.00270199     0.00102351
     0.01552308    -0.00561212    -0.00280886

 G vector - GDV
    -0.00733095     0.00879244    -0.04825970
     0.02190844    -0.00179104     0.05767224
     0.01220775     0.00173282    -0.00884329
     0.00455611    -0.00574306     0.00441954
    -0.01856901     0.00156361     0.00295663
    -0.01277235    -0.00455477    -0.00794542

 H vector - DCV - non-adiabatic coupling
     0.00290673     0.00007128     0.12373667
    -0.04527985    -0.01450095    -0.09954243
    -0.05529975     0.01491105    -0.00730515
    -0.05272613     0.01047767    -0.01120317
     0.08249227     0.01057443     0.00322788
     0.06790673    -0.02153347    -0.00891380
--------------------------------------------------


--------------------------------------------------------------------------------
DFTB+ running times                          cpu [s]             wall clock [s]
--------------------------------------------------------------------------------
SCC                                    +     0.03  ( 69.8%)      0.04  ( 68.3%)
Post-SCC processing                    +     0.01  ( 26.2%)      0.01  ( 23.8%)
  Force calculation                          0.01  ( 25.5%)      0.01  ( 19.0%)
--------------------------------------------------------------------------------
Missing                                +     0.00  (  4.1%)      0.00  (  7.9%)
Total                                  =     0.04  (100.0%)      0.06  (100.0%)
--------------------------------------------------------------------------------
