    14
  Step:   600            Position(A)                                  Velocity(au)
C        -4.96259202    -0.46891112     1.01532992     0.00043482     0.00086617     0.00006783
C        -4.77136900    -0.60692675    -0.31564711     0.00026618    -0.00011264    -0.00001239
H        -4.42095008     0.32754342     1.57500992     0.00039700     0.00180096    -0.00026111
H        -5.94139121    -0.92457619     1.40139666    -0.00052589    -0.00082630    -0.00243262
H        -5.39183455    -1.31908547    -0.87166191     0.00226257    -0.00084867    -0.00143051
C        -3.94860009     0.50136563    -1.15868430     0.00026998     0.00042205    -0.00030024
C        -2.92766389     1.35742241    -0.69691961    -0.00076333    -0.00089057     0.00081460
H        -4.20176252     0.72275829    -2.15271140    -0.00076264     0.00114704    -0.00037426
H        -2.64706584     1.92739458    -1.47725647    -0.00172568    -0.00053213     0.00016469
C        -2.08914279     1.20276967     0.45423330    -0.00009802    -0.00042186    -0.00026218
H        -2.80134386     1.19605851     1.35471297     0.00011974    -0.00205367     0.00108608
N        -0.79859537     1.07462806     0.83041468    -0.00004326     0.00018500     0.00010439
H        -0.50366541     1.60740308     1.63706314     0.00159668     0.00108063    -0.00141750
H        -0.14488232     0.50758029     0.36785222    -0.00206694    -0.00070799    -0.00045127
