|===============================================================================
|
|  DFTB+ release 20.1
|
|  Copyright (C) 2006 - 2020  DFTB+ developers group
|
|===============================================================================
|
|  When publishing results obtained with DFTB+, please cite the following
|  reference:
|
|  * DFTB+, a software package for efficient approximate density functional
|    theory based atomistic simulations, J. Chem. Phys. 152, 124101 (2020).
|    [doi: 10.1063/1.5143190]
|
|  You should also cite additional publications crediting the parametrization
|  data you use. Please consult the documentation of the SK-files for the
|  references.
|
|===============================================================================

Reading input file 'dftb_in.hsd'
Parser version: 8

--------------------------------------------------------------------------------
Reading SK-files:
Done.


Processed input in HSD format written to 'dftb_pin.hsd'

Starting initialization...
--------------------------------------------------------------------------------
OpenMP threads:              1
Chosen random seed:          449802862
Mode:                        Static calculation
Self consistent charges:     Yes
SCC-tolerance:                 0.100000E-05
Max. scc iterations:                   1000
Shell resolved Hubbard:      No
Spin polarisation:           No
Nr. of up electrons:             6.000000
Nr. of down electrons:           6.000000
Periodic boundaries:         No
Electronic solver:           Relatively robust
Maximal SCC-cycles:                    1000
Initial charges:             Set automatically (system chrg:   0.100E+01)
Included shells:             C:  s, p
                             N:  s, p
                             H:  s
Spin coupling constants:     C   1(s)-1(s):  -0.455900E-01
                             C   1(s)-2(p):  -0.293000E-01
                             C   2(p)-1(s):  -0.293000E-01
                             C   2(p)-2(p):  -0.275500E-01
                             N   1(s)-1(s):  -0.468700E-01
                             N   1(s)-2(p):  -0.317000E-01
                             N   2(p)-1(s):  -0.317000E-01
                             N   2(p)-2(p):  -0.307200E-01
                             H   1(s)-1(s):  -0.792500E-01
Range separated hybrid:      Yes
  Screening parameter omega:   0.300000E+00
  Range separated algorithm:   MatrixBased
Extra options:
                             Mulliken analysis
                             Force calculation
Force type                   original
                             Eigenvector printing


REKS Calcuation:             Yes
SSR(2,2) Calcuation:         Yes
Energy Functional:           (PPS+OSS)/2
Number of Core Orbitals:                  5
Number of Active Orbitals:                2
Number of Basis:                         12
Number of States:                         2
State-Averaging Weight:          0.500000
                                 0.500000
State of Interest:                        1
Initial Guess:               Diagonalize H0 matrix
Newton-Raphson for FON opt:  Yes
NR max. Iterations:                      50
Level Shifting:              Yes
Shift Value:                     0.300000
W Scale Factor:              C  =    3.200000
                             N  =    3.200000
                             H  =    3.200000
Transition Dipole:           No
Gradient of Microstate:      No
CP-REKS Solver:              Preconditioned Conjugate-Gradient
CG max. Iterations:                     100
CG Tolerance:                  0.100000E-07
Memory for A and Hxc:        Direct Updating Without Saving
Non-Adiabatic Coupling:      Yes

--------------------------------------------------------------------------------

***  Geometry step: 0

  iSCC       reks energy        Diff energy         x_a       SCC error   
    1       -6.1059815821       0.0000000000     0.999976    1.04886115
    2       -6.1250793542      -0.0190977721     0.999997    0.07269894
    3       -6.1320408565      -0.0069615023     1.000000    0.03126037
    4       -6.1354316525      -0.0033907960     1.000000    0.02989219
    5       -6.1371504664      -0.0017188139     1.000000    0.01940872
    6       -6.1380240549      -0.0008735885     1.000000    0.01556370
    7       -6.1384706881      -0.0004466331     1.000000    0.01143092
    8       -6.1387043377      -0.0002336496     1.000000    0.01011512
    9       -6.1388291800      -0.0001248423     1.000000    0.00729118
   10       -6.1388983695      -0.0000691895     1.000000    0.00825719
   11       -6.1389374085      -0.0000390390     1.000000    0.00631010
   12       -6.1389604699      -0.0000230615     1.000000    0.00710638
   13       -6.1389740849      -0.0000136150     1.000000    0.00625521
   14       -6.1389827302      -0.0000086453     1.000000    0.00639097
   15       -6.1389880026      -0.0000052723     1.000000    0.00619654
   16       -6.1389917011      -0.0000036985     1.000000    0.00616206
   17       -6.1389940012      -0.0000023001     1.000000    0.00611773
   18       -6.1389958675      -0.0000018663     1.000000    0.00604762
   19       -6.1389970355      -0.0000011680     1.000000    0.00602583
   20       -6.1389981750      -0.0000011395     1.000000    0.00594620
   21       -6.1389988852      -0.0000007102     1.000000    0.00592817
   22       -6.1389997145      -0.0000008294     1.000000    0.00585037
   23       -6.1390002276      -0.0000005131     1.000000    0.00582909
   24       -6.1390009122      -0.0000006846     1.000000    0.00575693
   25       -6.1390013336      -0.0000004215     1.000000    0.00573073
   26       -6.1390019423      -0.0000006086     1.000000    0.00566473
   27       -6.1390023167      -0.0000003744     1.000000    0.00563400
   28       -6.1390028794      -0.0000005626     1.000000    0.00557347
   29       -6.1390032264      -0.0000003471     1.000000    0.00553920
   30       -6.1390037569      -0.0000005305     1.000000    0.00548318
   31       -6.1390040856      -0.0000003287     1.000000    0.00544640
   32       -6.1390045908      -0.0000005051     1.000000    0.00539399
   33       -6.1390049055      -0.0000003147     1.000000    0.00535555
   34       -6.1390053890      -0.0000004834     1.000000    0.00530602
   35       -6.1390056920      -0.0000003031     1.000000    0.00526659
   36       -6.1390061559      -0.0000004639     1.000000    0.00521936
   37       -6.1390064485      -0.0000002926     1.000000    0.00517943
   38       -6.1390068943      -0.0000004458     1.000000    0.00513408
   39       -6.1390071773      -0.0000002830     1.000000    0.00509401
   40       -6.1390076060      -0.0000004288     1.000000    0.00505021
   41       -6.1390078800      -0.0000002739     1.000000    0.00501025
   42       -6.1390082926      -0.0000004126     1.000000    0.00496777
   43       -6.1390085579      -0.0000002653     1.000000    0.00492810
   44       -6.1390089551      -0.0000003972     1.000000    0.00488677
   45       -6.1390092121      -0.0000002570     1.000000    0.00484750
   46       -6.1390095946      -0.0000003825     1.000000    0.00480720
   47       -6.1390098436      -0.0000002490     1.000000    0.00476841
   48       -6.1390102121      -0.0000003685     1.000000    0.00472904
   49       -6.1390104534      -0.0000002413     1.000000    0.00469079
   50       -6.1390108084      -0.0000003550     1.000000    0.00465227
   51       -6.1390110423      -0.0000002339     1.000000    0.00461459
   52       -6.1390113844      -0.0000003421     1.000000    0.00457687
   53       -6.1390116111      -0.0000002267     1.000000    0.00453979
   54       -6.1390119408      -0.0000003297     1.000000    0.00450281
   55       -6.1390121606      -0.0000002198     1.000000    0.00446634
   56       -6.1390124784      -0.0000003178     1.000000    0.00443008
   57       -6.1390126915      -0.0000002131     1.000000    0.00439421
   58       -6.1390129978      -0.0000003063     1.000000    0.00435863
   59       -6.1390132044      -0.0000002066     1.000000    0.00432338
   60       -6.1390134998      -0.0000002954     1.000000    0.00428846
   61       -6.1390137001      -0.0000002003     1.000000    0.00425381
   62       -6.1390139849      -0.0000002848     1.000000    0.00421952
   63       -6.1390141792      -0.0000001943     1.000000    0.00418547
   64       -6.1390144539      -0.0000002747     1.000000    0.00415179
   65       -6.1390146423      -0.0000001884     1.000000    0.00411833
   66       -6.1390149073      -0.0000002650     1.000000    0.00408526
   67       -6.1390150900      -0.0000001827     1.000000    0.00405238
   68       -6.1390153456      -0.0000002556     1.000000    0.00401989
   69       -6.1390155227      -0.0000001772     1.000000    0.00398757
   70       -6.1390157694      -0.0000002466     1.000000    0.00395565
   71       -6.1390159412      -0.0000001718     1.000000    0.00392390
   72       -6.1390161792      -0.0000002380     1.000000    0.00389254
   73       -6.1390163458      -0.0000001667     1.000000    0.00386133
   74       -6.1390165755      -0.0000002296     1.000000    0.00383051
   75       -6.1390167372      -0.0000001617     1.000000    0.00379984
   76       -6.1390169588      -0.0000002216     1.000000    0.00376955
   77       -6.1390171156      -0.0000001568     1.000000    0.00373940
   78       -6.1390173295      -0.0000002139     1.000000    0.00370964
   79       -6.1390174816      -0.0000001521     1.000000    0.00368001
   80       -6.1390176882      -0.0000002065     1.000000    0.00365075
   81       -6.1390178357      -0.0000001476     1.000000    0.00362163
   82       -6.1390180351      -0.0000001994     1.000000    0.00359287
   83       -6.1390181782      -0.0000001431     1.000000    0.00356424
   84       -6.1390183707      -0.0000001925     1.000000    0.00353597
   85       -6.1390185096      -0.0000001389     1.000000    0.00350783
   86       -6.1390186955      -0.0000001859     1.000000    0.00348003
   87       -6.1390188302      -0.0000001347     1.000000    0.00345237
   88       -6.1390190097      -0.0000001795     1.000000    0.00342504
   89       -6.1390191404      -0.0000001307     1.000000    0.00339784
   90       -6.1390193138      -0.0000001734     1.000000    0.00337098
   91       -6.1390194406      -0.0000001268     1.000000    0.00334424
   92       -6.1390196080      -0.0000001675     1.000000    0.00331782
   93       -6.1390197310      -0.0000001230     1.000000    0.00329153
   94       -6.1390198928      -0.0000001618     1.000000    0.00326556
   95       -6.1390200122      -0.0000001194     1.000000    0.00323970
   96       -6.1390201684      -0.0000001563     1.000000    0.00321416
   97       -6.1390202842      -0.0000001158     1.000000    0.00318874
   98       -6.1390204352      -0.0000001510     1.000000    0.00316363
   99       -6.1390205476      -0.0000001124     1.000000    0.00313863
  100       -6.1390206935      -0.0000001459     1.000000    0.00311393
  101       -6.1390208025      -0.0000001090     1.000000    0.00308935
  102       -6.1390209434      -0.0000001410     1.000000    0.00306505
  103       -6.1390210492      -0.0000001058     1.000000    0.00304088
  104       -6.1390211854      -0.0000001362     1.000000    0.00301699
  105       -6.1390212881      -0.0000001027     1.000000    0.00299321
  106       -6.1390214197      -0.0000001316     1.000000    0.00296971
  107       -6.1390215193      -0.0000000996     1.000000    0.00294633
  108       -6.1390216465      -0.0000001272     1.000000    0.00292322
  109       -6.1390217432      -0.0000000967     1.000000    0.00290022
  110       -6.1390218662      -0.0000001230     1.000000    0.00287748
  111       -6.1390219600      -0.0000000938     1.000000    0.00285486
  112       -6.1390220788      -0.0000001189     1.000000    0.00283250
  113       -6.1390221698      -0.0000000910     1.000000    0.00281025
  114       -6.1390222847      -0.0000001149     1.000000    0.00278825
  115       -6.1390223730      -0.0000000883     1.000000    0.00276636
  116       -6.1390224841      -0.0000001111     1.000000    0.00274472
  117       -6.1390225698      -0.0000000857     1.000000    0.00272319
  118       -6.1390226772      -0.0000001074     1.000000    0.00270191
  119       -6.1390227604      -0.0000000832     1.000000    0.00268073
  120       -6.1390228642      -0.0000001038     1.000000    0.00265978
  121       -6.1390229449      -0.0000000807     1.000000    0.00263895
  122       -6.1390230453      -0.0000001004     1.000000    0.00261834
  123       -6.1390231237      -0.0000000783     1.000000    0.00259785
  124       -6.1390232208      -0.0000000971     1.000000    0.00257758
  125       -6.1390232967      -0.0000000760     1.000000    0.00255741
  126       -6.1390233906      -0.0000000939     1.000000    0.00253747
  127       -6.1390234644      -0.0000000737     1.000000    0.00251763
  128       -6.1390235552      -0.0000000908     1.000000    0.00249800
  129       -6.1390236268      -0.0000000716     1.000000    0.00247848
  130       -6.1390237146      -0.0000000878     1.000000    0.00245918
  131       -6.1390237840      -0.0000000694     1.000000    0.00243997
  132       -6.1390238690      -0.0000000849     1.000000    0.00242097
  133       -6.1390239364      -0.0000000674     1.000000    0.00240208
  134       -6.1390240185      -0.0000000822     1.000000    0.00238338
  135       -6.1390240840      -0.0000000654     1.000000    0.00236479
  136       -6.1390241634      -0.0000000795     1.000000    0.00234640
  137       -6.1390242269      -0.0000000635     1.000000    0.00232810
  138       -6.1390243038      -0.0000000769     1.000000    0.00231000
  139       -6.1390243654      -0.0000000616     1.000000    0.00229200
  140       -6.1390244398      -0.0000000744     1.000000    0.00227419
  141       -6.1390244995      -0.0000000598     1.000000    0.00225647
  142       -6.1390245715      -0.0000000720     1.000000    0.00223895
  143       -6.1390246295      -0.0000000580     1.000000    0.00222152
  144       -6.1390246991      -0.0000000696     1.000000    0.00220427
  145       -6.1390247554      -0.0000000563     1.000000    0.00218711
  146       -6.1390248228      -0.0000000674     1.000000    0.00217014
  147       -6.1390248774      -0.0000000546     1.000000    0.00215326
  148       -6.1390249426      -0.0000000652     1.000000    0.00213655
  149       -6.1390249956      -0.0000000530     1.000000    0.00211994
  150       -6.1390250587      -0.0000000631     1.000000    0.00210350
  151       -6.1390251101      -0.0000000514     1.000000    0.00208716
  152       -6.1390251711      -0.0000000610     1.000000    0.00207098
  153       -6.1390252211      -0.0000000499     1.000000    0.00205489
  154       -6.1390252801      -0.0000000591     1.000000    0.00203896
  155       -6.1390253286      -0.0000000485     1.000000    0.00202313
  156       -6.1390253857      -0.0000000572     1.000000    0.00200746
  157       -6.1390254327      -0.0000000470     1.000000    0.00199188
  158       -6.1390254881      -0.0000000553     1.000000    0.00197645
  159       -6.1390255337      -0.0000000456     1.000000    0.00196111
  160       -6.1390255872      -0.0000000535     1.000000    0.00194593
  161       -6.1390256315      -0.0000000443     1.000000    0.00193084
  162       -6.1390256833      -0.0000000518     1.000000    0.00191590
  163       -6.1390257263      -0.0000000430     1.000000    0.00190104
  164       -6.1390257764      -0.0000000502     1.000000    0.00188634
  165       -6.1390258181      -0.0000000417     1.000000    0.00187171
  166       -6.1390258667      -0.0000000485     1.000000    0.00185724
  167       -6.1390259071      -0.0000000405     1.000000    0.00184285
  168       -6.1390259541      -0.0000000470     1.000000    0.00182860
  169       -6.1390259934      -0.0000000393     1.000000    0.00181443
  170       -6.1390260389      -0.0000000455     1.000000    0.00180041
  171       -6.1390260770      -0.0000000381     1.000000    0.00178647
  172       -6.1390261210      -0.0000000440     1.000000    0.00177266
  173       -6.1390261580      -0.0000000370     1.000000    0.00175894
  174       -6.1390262006      -0.0000000426     1.000000    0.00174535
  175       -6.1390262365      -0.0000000359     1.000000    0.00173184
  176       -6.1390262778      -0.0000000413     1.000000    0.00171847
  177       -6.1390263126      -0.0000000348     1.000000    0.00170517
  178       -6.1390263526      -0.0000000399     1.000000    0.00169201
  179       -6.1390263863      -0.0000000338     1.000000    0.00167892
  180       -6.1390264250      -0.0000000387     1.000000    0.00166596
  181       -6.1390264578      -0.0000000328     1.000000    0.00165308
  182       -6.1390264953      -0.0000000374     1.000000    0.00164032
  183       -6.1390265271      -0.0000000318     1.000000    0.00162764
  184       -6.1390265633      -0.0000000363     1.000000    0.00161508
  185       -6.1390265942      -0.0000000309     1.000000    0.00160260
  186       -6.1390266293      -0.0000000351     1.000000    0.00159023
  187       -6.1390266593      -0.0000000300     1.000000    0.00157794
  188       -6.1390266933      -0.0000000340     1.000000    0.00156578
  189       -6.1390267224      -0.0000000291     1.000000    0.00155368
  190       -6.1390267553      -0.0000000329     1.000000    0.00154170
  191       -6.1390267835      -0.0000000282     1.000000    0.00152979
  192       -6.1390268154      -0.0000000319     1.000000    0.00151800
  193       -6.1390268428      -0.0000000274     1.000000    0.00150628
  194       -6.1390268736      -0.0000000309     1.000000    0.00149467
  195       -6.1390269002      -0.0000000266     1.000000    0.00148313
  196       -6.1390269301      -0.0000000299     1.000000    0.00147170
  197       -6.1390269559      -0.0000000258     1.000000    0.00146034
  198       -6.1390269848      -0.0000000289     1.000000    0.00144909
  199       -6.1390270098      -0.0000000250     1.000000    0.00143790
  200       -6.1390270379      -0.0000000280     1.000000    0.00142683
  201       -6.1390270621      -0.0000000243     1.000000    0.00141582
  202       -6.1390270893      -0.0000000271     1.000000    0.00140491
  203       -6.1390271128      -0.0000000236     1.000000    0.00139408
  204       -6.1390271391      -0.0000000263     1.000000    0.00138334
  205       -6.1390271620      -0.0000000229     1.000000    0.00137267
  206       -6.1390271875      -0.0000000255     1.000000    0.00136210
  207       -6.1390272096      -0.0000000222     1.000000    0.00135160
  208       -6.1390272343      -0.0000000247     1.000000    0.00134119
  209       -6.1390272558      -0.0000000215     1.000000    0.00133085
  210       -6.1390272797      -0.0000000239     1.000000    0.00132061
  211       -6.1390273006      -0.0000000209     1.000000    0.00131043
  212       -6.1390273237      -0.0000000231     1.000000    0.00130034
  213       -6.1390273440      -0.0000000203     1.000000    0.00129032
  214       -6.1390273664      -0.0000000224     1.000000    0.00128039
  215       -6.1390273861      -0.0000000197     1.000000    0.00127053
  216       -6.1390274078      -0.0000000217     1.000000    0.00126075
  217       -6.1390274268      -0.0000000191     1.000000    0.00125104
  218       -6.1390274479      -0.0000000210     1.000000    0.00124141
  219       -6.1390274664      -0.0000000185     1.000000    0.00123185
  220       -6.1390274867      -0.0000000204     1.000000    0.00122237
  221       -6.1390275047      -0.0000000180     1.000000    0.00121296
  222       -6.1390275244      -0.0000000197     1.000000    0.00120363
  223       -6.1390275419      -0.0000000174     1.000000    0.00119436
  224       -6.1390275610      -0.0000000191     1.000000    0.00118518
  225       -6.1390275779      -0.0000000169     1.000000    0.00117605
  226       -6.1390275964      -0.0000000185     1.000000    0.00116701
  227       -6.1390276128      -0.0000000164     1.000000    0.00115802
  228       -6.1390276307      -0.0000000179     1.000000    0.00114912
  229       -6.1390276467      -0.0000000159     1.000000    0.00114027
  230       -6.1390276640      -0.0000000174     1.000000    0.00113151
  231       -6.1390276795      -0.0000000154     1.000000    0.00112280
  232       -6.1390276963      -0.0000000168     1.000000    0.00111417
  233       -6.1390277113      -0.0000000150     1.000000    0.00110559
  234       -6.1390277276      -0.0000000163     1.000000    0.00109709
  235       -6.1390277421      -0.0000000145     1.000000    0.00108865
  236       -6.1390277579      -0.0000000158     1.000000    0.00108028
  237       -6.1390277720      -0.0000000141     1.000000    0.00107197
  238       -6.1390277873      -0.0000000153     1.000000    0.00106373
  239       -6.1390278010      -0.0000000137     1.000000    0.00105555
  240       -6.1390278159      -0.0000000148     1.000000    0.00104744
  241       -6.1390278291      -0.0000000133     1.000000    0.00103938
  242       -6.1390278435      -0.0000000144     1.000000    0.00103140
  243       -6.1390278564      -0.0000000129     1.000000    0.00102346
  244       -6.1390278703      -0.0000000139     1.000000    0.00101560
  245       -6.1390278828      -0.0000000125     1.000000    0.00100779
  246       -6.1390278963      -0.0000000135     1.000000    0.00100005
  247       -6.1390279084      -0.0000000121     1.000000    0.00099236
  248       -6.1390279215      -0.0000000131     1.000000    0.00098473
  249       -6.1390279333      -0.0000000118     1.000000    0.00097716
  250       -6.1390279459      -0.0000000127     1.000000    0.00096966
  251       -6.1390279573      -0.0000000114     1.000000    0.00096220
  252       -6.1390279696      -0.0000000123     1.000000    0.00095481
  253       -6.1390279807      -0.0000000111     1.000000    0.00094747
  254       -6.1390279925      -0.0000000119     1.000000    0.00094019
  255       -6.1390280033      -0.0000000107     1.000000    0.00093297
  256       -6.1390280148      -0.0000000115     1.000000    0.00092580
  257       -6.1390280252      -0.0000000104     1.000000    0.00091868
  258       -6.1390280364      -0.0000000112     1.000000    0.00091163
  259       -6.1390280465      -0.0000000101     1.000000    0.00090462
  260       -6.1390280573      -0.0000000108     1.000000    0.00089768
  261       -6.1390280671      -0.0000000098     1.000000    0.00089078
  262       -6.1390280776      -0.0000000105     1.000000    0.00088394
  263       -6.1390280871      -0.0000000095     1.000000    0.00087715
  264       -6.1390280973      -0.0000000101     1.000000    0.00087041
  265       -6.1390281065      -0.0000000092     1.000000    0.00086372
  266       -6.1390281164      -0.0000000098     1.000000    0.00085709
  267       -6.1390281253      -0.0000000090     1.000000    0.00085051
  268       -6.1390281348      -0.0000000095     1.000000    0.00084398
  269       -6.1390281435      -0.0000000087     1.000000    0.00083749
  270       -6.1390281528      -0.0000000092     1.000000    0.00083107
  271       -6.1390281612      -0.0000000084     1.000000    0.00082468
  272       -6.1390281702      -0.0000000089     1.000000    0.00081835
  273       -6.1390281784      -0.0000000082     1.000000    0.00081207
  274       -6.1390281870      -0.0000000087     1.000000    0.00080583
  275       -6.1390281950      -0.0000000079     1.000000    0.00079964
  276       -6.1390282034      -0.0000000084     1.000000    0.00079351
  277       -6.1390282111      -0.0000000077     1.000000    0.00078741
  278       -6.1390282192      -0.0000000081     1.000000    0.00078137
  279       -6.1390282267      -0.0000000075     1.000000    0.00077537
  280       -6.1390282346      -0.0000000079     1.000000    0.00076942
  281       -6.1390282418      -0.0000000073     1.000000    0.00076351
  282       -6.1390282495      -0.0000000076     1.000000    0.00075765
  283       -6.1390282565      -0.0000000070     1.000000    0.00075183
  284       -6.1390282639      -0.0000000074     1.000000    0.00074606
  285       -6.1390282707      -0.0000000068     1.000000    0.00074033
  286       -6.1390282779      -0.0000000072     1.000000    0.00073465
  287       -6.1390282845      -0.0000000066     1.000000    0.00072901
  288       -6.1390282915      -0.0000000070     1.000000    0.00072342
  289       -6.1390282979      -0.0000000064     1.000000    0.00071786
  290       -6.1390283047      -0.0000000067     1.000000    0.00071236
  291       -6.1390283109      -0.0000000062     1.000000    0.00070689
  292       -6.1390283174      -0.0000000065     1.000000    0.00070146
  293       -6.1390283235      -0.0000000060     1.000000    0.00069608
  294       -6.1390283298      -0.0000000063     1.000000    0.00069074
  295       -6.1390283357      -0.0000000059     1.000000    0.00068543
  296       -6.1390283418      -0.0000000061     1.000000    0.00068018
  297       -6.1390283475      -0.0000000057     1.000000    0.00067495
  298       -6.1390283535      -0.0000000060     1.000000    0.00066978
  299       -6.1390283590      -0.0000000055     1.000000    0.00066464
  300       -6.1390283647      -0.0000000058     1.000000    0.00065954
  301       -6.1390283701      -0.0000000054     1.000000    0.00065447
  302       -6.1390283757      -0.0000000056     1.000000    0.00064945
  303       -6.1390283809      -0.0000000052     1.000000    0.00064447
  304       -6.1390283863      -0.0000000054     1.000000    0.00063953
  305       -6.1390283913      -0.0000000050     1.000000    0.00063462
  306       -6.1390283966      -0.0000000053     1.000000    0.00062975
  307       -6.1390284015      -0.0000000049     1.000000    0.00062492
  308       -6.1390284066      -0.0000000051     1.000000    0.00062012
  309       -6.1390284113      -0.0000000047     1.000000    0.00061536
  310       -6.1390284162      -0.0000000049     1.000000    0.00061064
  311       -6.1390284208      -0.0000000046     1.000000    0.00060596
  312       -6.1390284256      -0.0000000048     1.000000    0.00060131
  313       -6.1390284301      -0.0000000045     1.000000    0.00059670
  314       -6.1390284347      -0.0000000046     1.000000    0.00059212
  315       -6.1390284390      -0.0000000043     1.000000    0.00058758
  316       -6.1390284435      -0.0000000045     1.000000    0.00058307
  317       -6.1390284477      -0.0000000042     1.000000    0.00057860
  318       -6.1390284521      -0.0000000044     1.000000    0.00057416
  319       -6.1390284561      -0.0000000041     1.000000    0.00056975
  320       -6.1390284604      -0.0000000042     1.000000    0.00056538
  321       -6.1390284643      -0.0000000039     1.000000    0.00056105
  322       -6.1390284684      -0.0000000041     1.000000    0.00055674
  323       -6.1390284722      -0.0000000038     1.000000    0.00055247
  324       -6.1390284762      -0.0000000040     1.000000    0.00054824
  325       -6.1390284799      -0.0000000037     1.000000    0.00054403
  326       -6.1390284838      -0.0000000038     1.000000    0.00053986
  327       -6.1390284874      -0.0000000036     1.000000    0.00053572
  328       -6.1390284911      -0.0000000037     1.000000    0.00053161
  329       -6.1390284946      -0.0000000035     1.000000    0.00052753
  330       -6.1390284982      -0.0000000036     1.000000    0.00052348
  331       -6.1390285016      -0.0000000034     1.000000    0.00051947
  332       -6.1390285051      -0.0000000035     1.000000    0.00051548
  333       -6.1390285084      -0.0000000033     1.000000    0.00051153
  334       -6.1390285118      -0.0000000034     1.000000    0.00050761
  335       -6.1390285150      -0.0000000032     1.000000    0.00050371
  336       -6.1390285182      -0.0000000033     1.000000    0.00049985
  337       -6.1390285213      -0.0000000031     1.000000    0.00049602
  338       -6.1390285245      -0.0000000032     1.000000    0.00049221
  339       -6.1390285275      -0.0000000030     1.000000    0.00048844
  340       -6.1390285306      -0.0000000031     1.000000    0.00048469
  341       -6.1390285335      -0.0000000029     1.000000    0.00048098
  342       -6.1390285365      -0.0000000030     1.000000    0.00047729
  343       -6.1390285394      -0.0000000028     1.000000    0.00047363
  344       -6.1390285423      -0.0000000029     1.000000    0.00047000
  345       -6.1390285450      -0.0000000027     1.000000    0.00046639
  346       -6.1390285478      -0.0000000028     1.000000    0.00046282
  347       -6.1390285505      -0.0000000027     1.000000    0.00045927
  348       -6.1390285532      -0.0000000027     1.000000    0.00045574
  349       -6.1390285558      -0.0000000026     1.000000    0.00045225
  350       -6.1390285584      -0.0000000026     1.000000    0.00044878
  351       -6.1390285609      -0.0000000025     1.000000    0.00044534
  352       -6.1390285635      -0.0000000026     1.000000    0.00044193
  353       -6.1390285659      -0.0000000024     1.000000    0.00043854
  354       -6.1390285684      -0.0000000025     1.000000    0.00043517
  355       -6.1390285707      -0.0000000024     1.000000    0.00043184
  356       -6.1390285732      -0.0000000024     1.000000    0.00042853
  357       -6.1390285754      -0.0000000023     1.000000    0.00042524
  358       -6.1390285778      -0.0000000023     1.000000    0.00042198
  359       -6.1390285800      -0.0000000022     1.000000    0.00041874
  360       -6.1390285822      -0.0000000023     1.000000    0.00041553
  361       -6.1390285844      -0.0000000021     1.000000    0.00041235
  362       -6.1390285866      -0.0000000022     1.000000    0.00040919
  363       -6.1390285887      -0.0000000021     1.000000    0.00040605
  364       -6.1390285908      -0.0000000021     1.000000    0.00040293
  365       -6.1390285928      -0.0000000020     1.000000    0.00039984
  366       -6.1390285949      -0.0000000021     1.000000    0.00039678
  367       -6.1390285968      -0.0000000020     1.000000    0.00039374
  368       -6.1390285988      -0.0000000020     1.000000    0.00039072
  369       -6.1390286007      -0.0000000019     1.000000    0.00038772
  370       -6.1390286027      -0.0000000019     1.000000    0.00038475
  371       -6.1390286045      -0.0000000018     1.000000    0.00038180
  372       -6.1390286064      -0.0000000019     1.000000    0.00037887
  373       -6.1390286082      -0.0000000018     1.000000    0.00037597
  374       -6.1390286100      -0.0000000018     1.000000    0.00037309
  375       -6.1390286117      -0.0000000017     1.000000    0.00037022
  376       -6.1390286135      -0.0000000018     1.000000    0.00036739
  377       -6.1390286152      -0.0000000017     1.000000    0.00036457
  378       -6.1390286169      -0.0000000017     1.000000    0.00036178
  379       -6.1390286185      -0.0000000016     1.000000    0.00035900
  380       -6.1390286202      -0.0000000017     1.000000    0.00035625
  381       -6.1390286218      -0.0000000016     1.000000    0.00035352
  382       -6.1390286234      -0.0000000016     1.000000    0.00035081
  383       -6.1390286249      -0.0000000015     1.000000    0.00034812
  384       -6.1390286265      -0.0000000016     1.000000    0.00034545
  385       -6.1390286280      -0.0000000015     1.000000    0.00034280
  386       -6.1390286295      -0.0000000015     1.000000    0.00034017
  387       -6.1390286309      -0.0000000014     1.000000    0.00033757
  388       -6.1390286324      -0.0000000015     1.000000    0.00033498
  389       -6.1390286338      -0.0000000014     1.000000    0.00033241
  390       -6.1390286352      -0.0000000014     1.000000    0.00032986
  391       -6.1390286366      -0.0000000014     1.000000    0.00032733
  392       -6.1390286379      -0.0000000014     1.000000    0.00032482
  393       -6.1390286393      -0.0000000013     1.000000    0.00032233
  394       -6.1390286406      -0.0000000013     1.000000    0.00031986
  395       -6.1390286419      -0.0000000013     1.000000    0.00031741
  396       -6.1390286432      -0.0000000013     1.000000    0.00031498
  397       -6.1390286444      -0.0000000012     1.000000    0.00031256
  398       -6.1390286457      -0.0000000013     1.000000    0.00031017
  399       -6.1390286469      -0.0000000012     1.000000    0.00030779
  400       -6.1390286481      -0.0000000012     1.000000    0.00030543
  401       -6.1390286492      -0.0000000012     1.000000    0.00030309
  402       -6.1390286504      -0.0000000012     1.000000    0.00030076
  403       -6.1390286515      -0.0000000011     1.000000    0.00029846
  404       -6.1390286527      -0.0000000011     1.000000    0.00029617
  405       -6.1390286538      -0.0000000011     1.000000    0.00029390
  406       -6.1390286549      -0.0000000011     1.000000    0.00029165
  407       -6.1390286560      -0.0000000011     1.000000    0.00028941
  408       -6.1390286570      -0.0000000011     1.000000    0.00028719
  409       -6.1390286581      -0.0000000010     1.000000    0.00028499
  410       -6.1390286591      -0.0000000010     1.000000    0.00028281
  411       -6.1390286601      -0.0000000010     1.000000    0.00028064
  412       -6.1390286611      -0.0000000010     1.000000    0.00027849
  413       -6.1390286621      -0.0000000010     1.000000    0.00027635
  414       -6.1390286631      -0.0000000010     1.000000    0.00027424
  415       -6.1390286640      -0.0000000009     1.000000    0.00027213
  416       -6.1390286650      -0.0000000009     1.000000    0.00027005
  417       -6.1390286659      -0.0000000009     1.000000    0.00026798
  418       -6.1390286668      -0.0000000009     1.000000    0.00026592
  419       -6.1390286677      -0.0000000009     1.000000    0.00026388
  420       -6.1390286686      -0.0000000009     1.000000    0.00026186
  421       -6.1390286694      -0.0000000009     1.000000    0.00025985
  422       -6.1390286703      -0.0000000009     1.000000    0.00025786
  423       -6.1390286711      -0.0000000008     1.000000    0.00025589
  424       -6.1390286720      -0.0000000008     1.000000    0.00025393
  425       -6.1390286728      -0.0000000008     1.000000    0.00025198
  426       -6.1390286736      -0.0000000008     1.000000    0.00025005
  427       -6.1390286744      -0.0000000008     1.000000    0.00024813
  428       -6.1390286752      -0.0000000008     1.000000    0.00024623
  429       -6.1390286759      -0.0000000008     1.000000    0.00024434
  430       -6.1390286767      -0.0000000008     1.000000    0.00024247
  431       -6.1390286774      -0.0000000007     1.000000    0.00024061
  432       -6.1390286782      -0.0000000007     1.000000    0.00023877
  433       -6.1390286789      -0.0000000007     1.000000    0.00023694
  434       -6.1390286796      -0.0000000007     1.000000    0.00023512
  435       -6.1390286803      -0.0000000007     1.000000    0.00023332
  436       -6.1390286810      -0.0000000007     1.000000    0.00023153
  437       -6.1390286816      -0.0000000007     1.000000    0.00022975
  438       -6.1390286823      -0.0000000007     1.000000    0.00022799
  439       -6.1390286830      -0.0000000007     1.000000    0.00022625
  440       -6.1390286836      -0.0000000007     1.000000    0.00022451
  441       -6.1390286843      -0.0000000006     1.000000    0.00022279
  442       -6.1390286849      -0.0000000006     1.000000    0.00022108
  443       -6.1390286855      -0.0000000006     1.000000    0.00021939
  444       -6.1390286861      -0.0000000006     1.000000    0.00021771
  445       -6.1390286867      -0.0000000006     1.000000    0.00021604
  446       -6.1390286873      -0.0000000006     1.000000    0.00021438
  447       -6.1390286879      -0.0000000006     1.000000    0.00021274
  448       -6.1390286885      -0.0000000006     1.000000    0.00021111
  449       -6.1390286890      -0.0000000006     1.000000    0.00020949
  450       -6.1390286896      -0.0000000006     1.000000    0.00020789
  451       -6.1390286901      -0.0000000005     1.000000    0.00020629
  452       -6.1390286907      -0.0000000005     1.000000    0.00020471
  453       -6.1390286912      -0.0000000005     1.000000    0.00020314
  454       -6.1390286917      -0.0000000005     1.000000    0.00020158
  455       -6.1390286922      -0.0000000005     1.000000    0.00020004
  456       -6.1390286928      -0.0000000005     1.000000    0.00019851
  457       -6.1390286932      -0.0000000005     1.000000    0.00019699
  458       -6.1390286937      -0.0000000005     1.000000    0.00019548
  459       -6.1390286942      -0.0000000005     1.000000    0.00019398
  460       -6.1390286947      -0.0000000005     1.000000    0.00019249
  461       -6.1390286952      -0.0000000005     1.000000    0.00019101
  462       -6.1390286956      -0.0000000005     1.000000    0.00018955
  463       -6.1390286961      -0.0000000005     1.000000    0.00018810
  464       -6.1390286965      -0.0000000005     1.000000    0.00018666
  465       -6.1390286970      -0.0000000004     1.000000    0.00018523
  466       -6.1390286974      -0.0000000004     1.000000    0.00018381
  467       -6.1390286978      -0.0000000004     1.000000    0.00018240
  468       -6.1390286983      -0.0000000004     1.000000    0.00018100
  469       -6.1390286987      -0.0000000004     1.000000    0.00017961
  470       -6.1390286991      -0.0000000004     1.000000    0.00017824
  471       -6.1390286995      -0.0000000004     1.000000    0.00017687
  472       -6.1390286999      -0.0000000004     1.000000    0.00017551
  473       -6.1390287003      -0.0000000004     1.000000    0.00017417
  474       -6.1390287007      -0.0000000004     1.000000    0.00017283
  475       -6.1390287010      -0.0000000004     1.000000    0.00017151
  476       -6.1390287014      -0.0000000004     1.000000    0.00017019
  477       -6.1390287018      -0.0000000004     1.000000    0.00016889
  478       -6.1390287021      -0.0000000004     1.000000    0.00016760
  479       -6.1390287025      -0.0000000004     1.000000    0.00016631
  480       -6.1390287028      -0.0000000004     1.000000    0.00016504
  481       -6.1390287032      -0.0000000003     1.000000    0.00016377
  482       -6.1390287035      -0.0000000003     1.000000    0.00016252
  483       -6.1390287039      -0.0000000003     1.000000    0.00016127
  484       -6.1390287042      -0.0000000003     1.000000    0.00016004
  485       -6.1390287045      -0.0000000003     1.000000    0.00015881
  486       -6.1390287048      -0.0000000003     1.000000    0.00015759
  487       -6.1390287051      -0.0000000003     1.000000    0.00015638
  488       -6.1390287055      -0.0000000003     1.000000    0.00015519
  489       -6.1390287058      -0.0000000003     1.000000    0.00015400
  490       -6.1390287061      -0.0000000003     1.000000    0.00015282
  491       -6.1390287064      -0.0000000003     1.000000    0.00015164
  492       -6.1390287067      -0.0000000003     1.000000    0.00015048
  493       -6.1390287069      -0.0000000003     1.000000    0.00014933
  494       -6.1390287072      -0.0000000003     1.000000    0.00014818
  495       -6.1390287075      -0.0000000003     1.000000    0.00014705
  496       -6.1390287078      -0.0000000003     1.000000    0.00014592
  497       -6.1390287080      -0.0000000003     1.000000    0.00014480
  498       -6.1390287083      -0.0000000003     1.000000    0.00014369
  499       -6.1390287086      -0.0000000003     1.000000    0.00014259
  500       -6.1390287088      -0.0000000003     1.000000    0.00014150
  501       -6.1390287091      -0.0000000003     1.000000    0.00014041
  502       -6.1390287093      -0.0000000003     1.000000    0.00013934
  503       -6.1390287096      -0.0000000002     1.000000    0.00013827
  504       -6.1390287098      -0.0000000002     1.000000    0.00013721
  505       -6.1390287101      -0.0000000002     1.000000    0.00013616
  506       -6.1390287103      -0.0000000002     1.000000    0.00013512
  507       -6.1390287105      -0.0000000002     1.000000    0.00013408
  508       -6.1390287107      -0.0000000002     1.000000    0.00013305
  509       -6.1390287110      -0.0000000002     1.000000    0.00013203
  510       -6.1390287112      -0.0000000002     1.000000    0.00013102
  511       -6.1390287114      -0.0000000002     1.000000    0.00013002
  512       -6.1390287116      -0.0000000002     1.000000    0.00012902
  513       -6.1390287118      -0.0000000002     1.000000    0.00012803
  514       -6.1390287120      -0.0000000002     1.000000    0.00012705
  515       -6.1390287122      -0.0000000002     1.000000    0.00012608
  516       -6.1390287124      -0.0000000002     1.000000    0.00012511
  517       -6.1390287126      -0.0000000002     1.000000    0.00012415
  518       -6.1390287128      -0.0000000002     1.000000    0.00012320
  519       -6.1390287130      -0.0000000002     1.000000    0.00012226
  520       -6.1390287132      -0.0000000002     1.000000    0.00012132
  521       -6.1390287134      -0.0000000002     1.000000    0.00012039
  522       -6.1390287136      -0.0000000002     1.000000    0.00011947
  523       -6.1390287138      -0.0000000002     1.000000    0.00011855
  524       -6.1390287140      -0.0000000002     1.000000    0.00011764
  525       -6.1390287141      -0.0000000002     1.000000    0.00011674
  526       -6.1390287143      -0.0000000002     1.000000    0.00011585
  527       -6.1390287145      -0.0000000002     1.000000    0.00011496
  528       -6.1390287146      -0.0000000002     1.000000    0.00011408
  529       -6.1390287148      -0.0000000002     1.000000    0.00011320
  530       -6.1390287150      -0.0000000002     1.000000    0.00011234
  531       -6.1390287151      -0.0000000002     1.000000    0.00011147
  532       -6.1390287153      -0.0000000002     1.000000    0.00011062
  533       -6.1390287154      -0.0000000002     1.000000    0.00010977
  534       -6.1390287156      -0.0000000002     1.000000    0.00010893
  535       -6.1390287157      -0.0000000001     1.000000    0.00010810
  536       -6.1390287159      -0.0000000001     1.000000    0.00010727
  537       -6.1390287160      -0.0000000001     1.000000    0.00010645
  538       -6.1390287162      -0.0000000001     1.000000    0.00010563
  539       -6.1390287163      -0.0000000001     1.000000    0.00010482
  540       -6.1390287165      -0.0000000001     1.000000    0.00010402
  541       -6.1390287166      -0.0000000001     1.000000    0.00010322
  542       -6.1390287167      -0.0000000001     1.000000    0.00010243
  543       -6.1390287169      -0.0000000001     1.000000    0.00010164
  544       -6.1390287170      -0.0000000001     1.000000    0.00010086
  545       -6.1390287171      -0.0000000001     1.000000    0.00010009
  546       -6.1390287172      -0.0000000001     1.000000    0.00009932
  547       -6.1390287174      -0.0000000001     1.000000    0.00009856
  548       -6.1390287175      -0.0000000001     1.000000    0.00009781
  549       -6.1390287176      -0.0000000001     1.000000    0.00009706
  550       -6.1390287177      -0.0000000001     1.000000    0.00009631
  551       -6.1390287179      -0.0000000001     1.000000    0.00009558
  552       -6.1390287180      -0.0000000001     1.000000    0.00009484
  553       -6.1390287181      -0.0000000001     1.000000    0.00009412
  554       -6.1390287182      -0.0000000001     1.000000    0.00009340
  555       -6.1390287183      -0.0000000001     1.000000    0.00009268
  556       -6.1390287184      -0.0000000001     1.000000    0.00009197
  557       -6.1390287185      -0.0000000001     1.000000    0.00009127
  558       -6.1390287186      -0.0000000001     1.000000    0.00009057
  559       -6.1390287187      -0.0000000001     1.000000    0.00008987
  560       -6.1390287188      -0.0000000001     1.000000    0.00008918
  561       -6.1390287189      -0.0000000001     1.000000    0.00008850
  562       -6.1390287190      -0.0000000001     1.000000    0.00008782
  563       -6.1390287191      -0.0000000001     1.000000    0.00008715
  564       -6.1390287192      -0.0000000001     1.000000    0.00008648
  565       -6.1390287193      -0.0000000001     1.000000    0.00008582
  566       -6.1390287194      -0.0000000001     1.000000    0.00008516
  567       -6.1390287195      -0.0000000001     1.000000    0.00008451
  568       -6.1390287196      -0.0000000001     1.000000    0.00008386
  569       -6.1390287197      -0.0000000001     1.000000    0.00008322
  570       -6.1390287198      -0.0000000001     1.000000    0.00008258
  571       -6.1390287199      -0.0000000001     1.000000    0.00008195
  572       -6.1390287199      -0.0000000001     1.000000    0.00008132
  573       -6.1390287200      -0.0000000001     1.000000    0.00008069
  574       -6.1390287201      -0.0000000001     1.000000    0.00008008
  575       -6.1390287202      -0.0000000001     1.000000    0.00007946
  576       -6.1390287203      -0.0000000001     1.000000    0.00007885
  577       -6.1390287204      -0.0000000001     1.000000    0.00007825
  578       -6.1390287204      -0.0000000001     1.000000    0.00007765
  579       -6.1390287205      -0.0000000001     1.000000    0.00007705
  580       -6.1390287206      -0.0000000001     1.000000    0.00007646
  581       -6.1390287207      -0.0000000001     1.000000    0.00007588
  582       -6.1390287207      -0.0000000001     1.000000    0.00007530
  583       -6.1390287208      -0.0000000001     1.000000    0.00007472
  584       -6.1390287209      -0.0000000001     1.000000    0.00007415
  585       -6.1390287209      -0.0000000001     1.000000    0.00007358
  586       -6.1390287210      -0.0000000001     1.000000    0.00007301
  587       -6.1390287211      -0.0000000001     1.000000    0.00007246
  588       -6.1390287211      -0.0000000001     1.000000    0.00007190
  589       -6.1390287212      -0.0000000001     1.000000    0.00007135
  590       -6.1390287213      -0.0000000001     1.000000    0.00007080
  591       -6.1390287213      -0.0000000001     1.000000    0.00007026
  592       -6.1390287214      -0.0000000001     1.000000    0.00006972
  593       -6.1390287215      -0.0000000001     1.000000    0.00006919
  594       -6.1390287215      -0.0000000001     1.000000    0.00006866
  595       -6.1390287216      -0.0000000001     1.000000    0.00006813
  596       -6.1390287216      -0.0000000001     1.000000    0.00006761
  597       -6.1390287217      -0.0000000001     1.000000    0.00006709
  598       -6.1390287218      -0.0000000001     1.000000    0.00006658
  599       -6.1390287218      -0.0000000001     1.000000    0.00006607
  600       -6.1390287219      -0.0000000001     1.000000    0.00006556
  601       -6.1390287219      -0.0000000001     1.000000    0.00006506
  602       -6.1390287220      -0.0000000001     1.000000    0.00006456
  603       -6.1390287220      -0.0000000001     1.000000    0.00006406
  604       -6.1390287221      -0.0000000001     1.000000    0.00006357
  605       -6.1390287221      -0.0000000001     1.000000    0.00006309
  606       -6.1390287222      -0.0000000001     1.000000    0.00006260
  607       -6.1390287222      -0.0000000000     1.000000    0.00006212
  608       -6.1390287223      -0.0000000000     1.000000    0.00006165
  609       -6.1390287223      -0.0000000000     1.000000    0.00006117
  610       -6.1390287224      -0.0000000000     1.000000    0.00006070
  611       -6.1390287224      -0.0000000000     1.000000    0.00006024
  612       -6.1390287225      -0.0000000000     1.000000    0.00005978
  613       -6.1390287225      -0.0000000000     1.000000    0.00005932
  614       -6.1390287226      -0.0000000000     1.000000    0.00005887
  615       -6.1390287226      -0.0000000000     1.000000    0.00005841
  616       -6.1390287226      -0.0000000000     1.000000    0.00005797
  617       -6.1390287227      -0.0000000000     1.000000    0.00005752
  618       -6.1390287227      -0.0000000000     1.000000    0.00005708
  619       -6.1390287228      -0.0000000000     1.000000    0.00005664
  620       -6.1390287228      -0.0000000000     1.000000    0.00005621
  621       -6.1390287229      -0.0000000000     1.000000    0.00005578
  622       -6.1390287229      -0.0000000000     1.000000    0.00005535
  623       -6.1390287229      -0.0000000000     1.000000    0.00005493
  624       -6.1390287230      -0.0000000000     1.000000    0.00005451
  625       -6.1390287230      -0.0000000000     1.000000    0.00005409
  626       -6.1390287230      -0.0000000000     1.000000    0.00005367
  627       -6.1390287231      -0.0000000000     1.000000    0.00005326
  628       -6.1390287231      -0.0000000000     1.000000    0.00005285
  629       -6.1390287231      -0.0000000000     1.000000    0.00005245
  630       -6.1390287232      -0.0000000000     1.000000    0.00005205
  631       -6.1390287232      -0.0000000000     1.000000    0.00005165
  632       -6.1390287233      -0.0000000000     1.000000    0.00005125
  633       -6.1390287233      -0.0000000000     1.000000    0.00005086
  634       -6.1390287233      -0.0000000000     1.000000    0.00005047
  635       -6.1390287234      -0.0000000000     1.000000    0.00005008
  636       -6.1390287234      -0.0000000000     1.000000    0.00004970
  637       -6.1390287234      -0.0000000000     1.000000    0.00004932
  638       -6.1390287234      -0.0000000000     1.000000    0.00004894
  639       -6.1390287235      -0.0000000000     1.000000    0.00004857
  640       -6.1390287235      -0.0000000000     1.000000    0.00004819
  641       -6.1390287235      -0.0000000000     1.000000    0.00004782
  642       -6.1390287236      -0.0000000000     1.000000    0.00004746
  643       -6.1390287236      -0.0000000000     1.000000    0.00004709
  644       -6.1390287236      -0.0000000000     1.000000    0.00004673
  645       -6.1390287236      -0.0000000000     1.000000    0.00004638
  646       -6.1390287237      -0.0000000000     1.000000    0.00004602
  647       -6.1390287237      -0.0000000000     1.000000    0.00004567
  648       -6.1390287237      -0.0000000000     1.000000    0.00004532
  649       -6.1390287238      -0.0000000000     1.000000    0.00004497
  650       -6.1390287238      -0.0000000000     1.000000    0.00004463
  651       -6.1390287238      -0.0000000000     1.000000    0.00004428
  652       -6.1390287238      -0.0000000000     1.000000    0.00004394
  653       -6.1390287239      -0.0000000000     1.000000    0.00004361
  654       -6.1390287239      -0.0000000000     1.000000    0.00004327
  655       -6.1390287239      -0.0000000000     1.000000    0.00004294
  656       -6.1390287239      -0.0000000000     1.000000    0.00004261
  657       -6.1390287239      -0.0000000000     1.000000    0.00004229
  658       -6.1390287240      -0.0000000000     1.000000    0.00004196
  659       -6.1390287240      -0.0000000000     1.000000    0.00004164
  660       -6.1390287240      -0.0000000000     1.000000    0.00004132
  661       -6.1390287240      -0.0000000000     1.000000    0.00004100
  662       -6.1390287241      -0.0000000000     1.000000    0.00004069
  663       -6.1390287241      -0.0000000000     1.000000    0.00004038
  664       -6.1390287241      -0.0000000000     1.000000    0.00004007
  665       -6.1390287241      -0.0000000000     1.000000    0.00003976
  666       -6.1390287241      -0.0000000000     1.000000    0.00003946
  667       -6.1390287242      -0.0000000000     1.000000    0.00003915
  668       -6.1390287242      -0.0000000000     1.000000    0.00003885
  669       -6.1390287242      -0.0000000000     1.000000    0.00003856
  670       -6.1390287242      -0.0000000000     1.000000    0.00003826
  671       -6.1390287242      -0.0000000000     1.000000    0.00003797
  672       -6.1390287243      -0.0000000000     1.000000    0.00003768
  673       -6.1390287243      -0.0000000000     1.000000    0.00003739
  674       -6.1390287243      -0.0000000000     1.000000    0.00003710
  675       -6.1390287243      -0.0000000000     1.000000    0.00003682
  676       -6.1390287243      -0.0000000000     1.000000    0.00003654
  677       -6.1390287243      -0.0000000000     1.000000    0.00003626
  678       -6.1390287244      -0.0000000000     1.000000    0.00003598
  679       -6.1390287244      -0.0000000000     1.000000    0.00003570
  680       -6.1390287244      -0.0000000000     1.000000    0.00003543
  681       -6.1390287244      -0.0000000000     1.000000    0.00003516
  682       -6.1390287244      -0.0000000000     1.000000    0.00003489
  683       -6.1390287244      -0.0000000000     1.000000    0.00003462
  684       -6.1390287245      -0.0000000000     1.000000    0.00003435
  685       -6.1390287245      -0.0000000000     1.000000    0.00003409
  686       -6.1390287245      -0.0000000000     1.000000    0.00003383
  687       -6.1390287245      -0.0000000000     1.000000    0.00003357
  688       -6.1390287245      -0.0000000000     1.000000    0.00003331
  689       -6.1390287245      -0.0000000000     1.000000    0.00003306
  690       -6.1390287245      -0.0000000000     1.000000    0.00003280
  691       -6.1390287246      -0.0000000000     1.000000    0.00003255
  692       -6.1390287246      -0.0000000000     1.000000    0.00003230
  693       -6.1390287246      -0.0000000000     1.000000    0.00003206
  694       -6.1390287246      -0.0000000000     1.000000    0.00003181
  695       -6.1390287246      -0.0000000000     1.000000    0.00003157
  696       -6.1390287246      -0.0000000000     1.000000    0.00003132
  697       -6.1390287246      -0.0000000000     1.000000    0.00003108
  698       -6.1390287246      -0.0000000000     1.000000    0.00003085
  699       -6.1390287247      -0.0000000000     1.000000    0.00003061
  700       -6.1390287247      -0.0000000000     1.000000    0.00003038
  701       -6.1390287247      -0.0000000000     1.000000    0.00003014
  702       -6.1390287247      -0.0000000000     1.000000    0.00002991
  703       -6.1390287247      -0.0000000000     1.000000    0.00002968
  704       -6.1390287247      -0.0000000000     1.000000    0.00002946
  705       -6.1390287247      -0.0000000000     1.000000    0.00002923
  706       -6.1390287247      -0.0000000000     1.000000    0.00002901
  707       -6.1390287247      -0.0000000000     1.000000    0.00002878
  708       -6.1390287248      -0.0000000000     1.000000    0.00002856
  709       -6.1390287248      -0.0000000000     1.000000    0.00002834
  710       -6.1390287248      -0.0000000000     1.000000    0.00002813
  711       -6.1390287248      -0.0000000000     1.000000    0.00002791
  712       -6.1390287248      -0.0000000000     1.000000    0.00002770
  713       -6.1390287248      -0.0000000000     1.000000    0.00002748
  714       -6.1390287248      -0.0000000000     1.000000    0.00002727
  715       -6.1390287248      -0.0000000000     1.000000    0.00002706
  716       -6.1390287248      -0.0000000000     1.000000    0.00002686
  717       -6.1390287248      -0.0000000000     1.000000    0.00002665
  718       -6.1390287249      -0.0000000000     1.000000    0.00002645
  719       -6.1390287249      -0.0000000000     1.000000    0.00002624
  720       -6.1390287249      -0.0000000000     1.000000    0.00002604
  721       -6.1390287249      -0.0000000000     1.000000    0.00002584
  722       -6.1390287249      -0.0000000000     1.000000    0.00002565
  723       -6.1390287249      -0.0000000000     1.000000    0.00002545
  724       -6.1390287249      -0.0000000000     1.000000    0.00002525
  725       -6.1390287249      -0.0000000000     1.000000    0.00002506
  726       -6.1390287249      -0.0000000000     1.000000    0.00002487
  727       -6.1390287249      -0.0000000000     1.000000    0.00002468
  728       -6.1390287249      -0.0000000000     1.000000    0.00002449
  729       -6.1390287249      -0.0000000000     1.000000    0.00002430
  730       -6.1390287249      -0.0000000000     1.000000    0.00002412
  731       -6.1390287250      -0.0000000000     1.000000    0.00002393
  732       -6.1390287250      -0.0000000000     1.000000    0.00002375
  733       -6.1390287250      -0.0000000000     1.000000    0.00002356
  734       -6.1390287250      -0.0000000000     1.000000    0.00002338
  735       -6.1390287250      -0.0000000000     1.000000    0.00002321
  736       -6.1390287250      -0.0000000000     1.000000    0.00002303
  737       -6.1390287250      -0.0000000000     1.000000    0.00002285
  738       -6.1390287250      -0.0000000000     1.000000    0.00002268
  739       -6.1390287250      -0.0000000000     1.000000    0.00002250
  740       -6.1390287250      -0.0000000000     1.000000    0.00002233
  741       -6.1390287250      -0.0000000000     1.000000    0.00002216
  742       -6.1390287250      -0.0000000000     1.000000    0.00002199
  743       -6.1390287250      -0.0000000000     1.000000    0.00002182
  744       -6.1390287250      -0.0000000000     1.000000    0.00002165
  745       -6.1390287250      -0.0000000000     1.000000    0.00002149
  746       -6.1390287251      -0.0000000000     1.000000    0.00002132
  747       -6.1390287251      -0.0000000000     1.000000    0.00002116
  748       -6.1390287251      -0.0000000000     1.000000    0.00002100
  749       -6.1390287251      -0.0000000000     1.000000    0.00002084
  750       -6.1390287251      -0.0000000000     1.000000    0.00002068
  751       -6.1390287251      -0.0000000000     1.000000    0.00002052
  752       -6.1390287251      -0.0000000000     1.000000    0.00002036
  753       -6.1390287251      -0.0000000000     1.000000    0.00002020
  754       -6.1390287251      -0.0000000000     1.000000    0.00002005
  755       -6.1390287251      -0.0000000000     1.000000    0.00001990
  756       -6.1390287251      -0.0000000000     1.000000    0.00001974
  757       -6.1390287251      -0.0000000000     1.000000    0.00001959
  758       -6.1390287251      -0.0000000000     1.000000    0.00001944
  759       -6.1390287251      -0.0000000000     1.000000    0.00001929
  760       -6.1390287251      -0.0000000000     1.000000    0.00001915
  761       -6.1390287251      -0.0000000000     1.000000    0.00001900
  762       -6.1390287251      -0.0000000000     1.000000    0.00001885
  763       -6.1390287251      -0.0000000000     1.000000    0.00001871
  764       -6.1390287251      -0.0000000000     1.000000    0.00001856
  765       -6.1390287251      -0.0000000000     1.000000    0.00001842
  766       -6.1390287252      -0.0000000000     1.000000    0.00001828
  767       -6.1390287252      -0.0000000000     1.000000    0.00001814
  768       -6.1390287252      -0.0000000000     1.000000    0.00001800
  769       -6.1390287252      -0.0000000000     1.000000    0.00001786
  770       -6.1390287252      -0.0000000000     1.000000    0.00001773
  771       -6.1390287252      -0.0000000000     1.000000    0.00001759
  772       -6.1390287252      -0.0000000000     1.000000    0.00001746
  773       -6.1390287252      -0.0000000000     1.000000    0.00001732
  774       -6.1390287252      -0.0000000000     1.000000    0.00001719
  775       -6.1390287252      -0.0000000000     1.000000    0.00001706
  776       -6.1390287252      -0.0000000000     1.000000    0.00001693
  777       -6.1390287252      -0.0000000000     1.000000    0.00001680
  778       -6.1390287252      -0.0000000000     1.000000    0.00001667
  779       -6.1390287252      -0.0000000000     1.000000    0.00001654
  780       -6.1390287252      -0.0000000000     1.000000    0.00001641
  781       -6.1390287252      -0.0000000000     1.000000    0.00001629
  782       -6.1390287252      -0.0000000000     1.000000    0.00001616
  783       -6.1390287252      -0.0000000000     1.000000    0.00001604
  784       -6.1390287252      -0.0000000000     1.000000    0.00001592
  785       -6.1390287252      -0.0000000000     1.000000    0.00001580
  786       -6.1390287252      -0.0000000000     1.000000    0.00001567
  787       -6.1390287252      -0.0000000000     1.000000    0.00001555
  788       -6.1390287252      -0.0000000000     1.000000    0.00001544
  789       -6.1390287252      -0.0000000000     1.000000    0.00001532
  790       -6.1390287252      -0.0000000000     1.000000    0.00001520
  791       -6.1390287252      -0.0000000000     1.000000    0.00001508
  792       -6.1390287252      -0.0000000000     1.000000    0.00001497
  793       -6.1390287252      -0.0000000000     1.000000    0.00001485
  794       -6.1390287253      -0.0000000000     1.000000    0.00001474
  795       -6.1390287253      -0.0000000000     1.000000    0.00001463
  796       -6.1390287253      -0.0000000000     1.000000    0.00001451
  797       -6.1390287253      -0.0000000000     1.000000    0.00001440
  798       -6.1390287253      -0.0000000000     1.000000    0.00001429
  799       -6.1390287253      -0.0000000000     1.000000    0.00001418
  800       -6.1390287253      -0.0000000000     1.000000    0.00001407
  801       -6.1390287253      -0.0000000000     1.000000    0.00001397
  802       -6.1390287253      -0.0000000000     1.000000    0.00001386
  803       -6.1390287253      -0.0000000000     1.000000    0.00001375
  804       -6.1390287253      -0.0000000000     1.000000    0.00001365
  805       -6.1390287253      -0.0000000000     1.000000    0.00001354
  806       -6.1390287253      -0.0000000000     1.000000    0.00001344
  807       -6.1390287253      -0.0000000000     1.000000    0.00001334
  808       -6.1390287253      -0.0000000000     1.000000    0.00001323
  809       -6.1390287253      -0.0000000000     1.000000    0.00001313
  810       -6.1390287253      -0.0000000000     1.000000    0.00001303
  811       -6.1390287253      -0.0000000000     1.000000    0.00001293
  812       -6.1390287253      -0.0000000000     1.000000    0.00001283
  813       -6.1390287253      -0.0000000000     1.000000    0.00001273
  814       -6.1390287253      -0.0000000000     1.000000    0.00001264
  815       -6.1390287253      -0.0000000000     1.000000    0.00001254
  816       -6.1390287253      -0.0000000000     1.000000    0.00001244
  817       -6.1390287253      -0.0000000000     1.000000    0.00001235
  818       -6.1390287253      -0.0000000000     1.000000    0.00001225
  819       -6.1390287253      -0.0000000000     1.000000    0.00001216
  820       -6.1390287253      -0.0000000000     1.000000    0.00001207
  821       -6.1390287253      -0.0000000000     1.000000    0.00001197
  822       -6.1390287253      -0.0000000000     1.000000    0.00001188
  823       -6.1390287253      -0.0000000000     1.000000    0.00001179
  824       -6.1390287253      -0.0000000000     1.000000    0.00001170
  825       -6.1390287253      -0.0000000000     1.000000    0.00001161
  826       -6.1390287253      -0.0000000000     1.000000    0.00001152
  827       -6.1390287253      -0.0000000000     1.000000    0.00001143
  828       -6.1390287253      -0.0000000000     1.000000    0.00001135
  829       -6.1390287253      -0.0000000000     1.000000    0.00001126
  830       -6.1390287253      -0.0000000000     1.000000    0.00001117
  831       -6.1390287253      -0.0000000000     1.000000    0.00001109
  832       -6.1390287253      -0.0000000000     1.000000    0.00001100
  833       -6.1390287253      -0.0000000000     1.000000    0.00001092
  834       -6.1390287253      -0.0000000000     1.000000    0.00001083
  835       -6.1390287253      -0.0000000000     1.000000    0.00001075
  836       -6.1390287253      -0.0000000000     1.000000    0.00001067
  837       -6.1390287253      -0.0000000000     1.000000    0.00001059
  838       -6.1390287253      -0.0000000000     1.000000    0.00001051
  839       -6.1390287253      -0.0000000000     1.000000    0.00001043
  840       -6.1390287253      -0.0000000000     1.000000    0.00001035
  841       -6.1390287253      -0.0000000000     1.000000    0.00001027
  842       -6.1390287253      -0.0000000000     1.000000    0.00001019
  843       -6.1390287253      -0.0000000000     1.000000    0.00001011
  844       -6.1390287253      -0.0000000000     1.000000    0.00001003
  845       -6.1390287253      -0.0000000000     1.000000    0.00000996
  846       -6.1390287254      -0.0000000000     1.000000    0.00000988
  847       -6.1390287254      -0.0000000000     1.000000    0.00000980
  848       -6.1390287254      -0.0000000000     1.000000    0.00000973
  849       -6.1390287254      -0.0000000000     1.000000    0.00000965
  850       -6.1390287254      -0.0000000000     1.000000    0.00000958
  851       -6.1390287254      -0.0000000000     1.000000    0.00000951
  852       -6.1390287254      -0.0000000000     1.000000    0.00000943
  853       -6.1390287254      -0.0000000000     1.000000    0.00000936
  854       -6.1390287254      -0.0000000000     1.000000    0.00000929
  855       -6.1390287254      -0.0000000000     1.000000    0.00000922
  856       -6.1390287254      -0.0000000000     1.000000    0.00000915
  857       -6.1390287254      -0.0000000000     1.000000    0.00000908
  858       -6.1390287254      -0.0000000000     1.000000    0.00000901
  859       -6.1390287254      -0.0000000000     1.000000    0.00000894
  860       -6.1390287254      -0.0000000000     1.000000    0.00000887
  861       -6.1390287254      -0.0000000000     1.000000    0.00000880
  862       -6.1390287254      -0.0000000000     1.000000    0.00000874
  863       -6.1390287254      -0.0000000000     1.000000    0.00000867
  864       -6.1390287254      -0.0000000000     1.000000    0.00000860
  865       -6.1390287254      -0.0000000000     1.000000    0.00000854
  866       -6.1390287254      -0.0000000000     1.000000    0.00000847
  867       -6.1390287254      -0.0000000000     1.000000    0.00000841
  868       -6.1390287254      -0.0000000000     1.000000    0.00000834
  869       -6.1390287254      -0.0000000000     1.000000    0.00000828
  870       -6.1390287254      -0.0000000000     1.000000    0.00000821
  871       -6.1390287254      -0.0000000000     1.000000    0.00000815
  872       -6.1390287254      -0.0000000000     1.000000    0.00000809
  873       -6.1390287254      -0.0000000000     1.000000    0.00000803
  874       -6.1390287254      -0.0000000000     1.000000    0.00000796
  875       -6.1390287254      -0.0000000000     1.000000    0.00000790
  876       -6.1390287254      -0.0000000000     1.000000    0.00000784
  877       -6.1390287254      -0.0000000000     1.000000    0.00000778
  878       -6.1390287254      -0.0000000000     1.000000    0.00000772
  879       -6.1390287254      -0.0000000000     1.000000    0.00000766
  880       -6.1390287254      -0.0000000000     1.000000    0.00000761
  881       -6.1390287254      -0.0000000000     1.000000    0.00000755
  882       -6.1390287254      -0.0000000000     1.000000    0.00000749
  883       -6.1390287254      -0.0000000000     1.000000    0.00000743
  884       -6.1390287254      -0.0000000000     1.000000    0.00000737
  885       -6.1390287254      -0.0000000000     1.000000    0.00000732
  886       -6.1390287254      -0.0000000000     1.000000    0.00000726
  887       -6.1390287254      -0.0000000000     1.000000    0.00000721
  888       -6.1390287254      -0.0000000000     1.000000    0.00000715
  889       -6.1390287254      -0.0000000000     1.000000    0.00000710
  890       -6.1390287254      -0.0000000000     1.000000    0.00000704
  891       -6.1390287254      -0.0000000000     1.000000    0.00000699
  892       -6.1390287254      -0.0000000000     1.000000    0.00000693
  893       -6.1390287254      -0.0000000000     1.000000    0.00000688
  894       -6.1390287254      -0.0000000000     1.000000    0.00000683
  895       -6.1390287254      -0.0000000000     1.000000    0.00000678
  896       -6.1390287254      -0.0000000000     1.000000    0.00000672
  897       -6.1390287254      -0.0000000000     1.000000    0.00000667
  898       -6.1390287254      -0.0000000000     1.000000    0.00000662
  899       -6.1390287254      -0.0000000000     1.000000    0.00000657
  900       -6.1390287254      -0.0000000000     1.000000    0.00000652
  901       -6.1390287254      -0.0000000000     1.000000    0.00000647
  902       -6.1390287254      -0.0000000000     1.000000    0.00000642
  903       -6.1390287254      -0.0000000000     1.000000    0.00000637
  904       -6.1390287254      -0.0000000000     1.000000    0.00000632
  905       -6.1390287254      -0.0000000000     1.000000    0.00000627
  906       -6.1390287254      -0.0000000000     1.000000    0.00000623
  907       -6.1390287254      -0.0000000000     1.000000    0.00000618
  908       -6.1390287254      -0.0000000000     1.000000    0.00000613
  909       -6.1390287254      -0.0000000000     1.000000    0.00000608
  910       -6.1390287254      -0.0000000000     1.000000    0.00000604
  911       -6.1390287254      -0.0000000000     1.000000    0.00000599
  912       -6.1390287254      -0.0000000000     1.000000    0.00000595
  913       -6.1390287254      -0.0000000000     1.000000    0.00000590
  914       -6.1390287254      -0.0000000000     1.000000    0.00000586
  915       -6.1390287254      -0.0000000000     1.000000    0.00000581
  916       -6.1390287254      -0.0000000000     1.000000    0.00000577
  917       -6.1390287254      -0.0000000000     1.000000    0.00000572
  918       -6.1390287254      -0.0000000000     1.000000    0.00000568
  919       -6.1390287254      -0.0000000000     1.000000    0.00000563
  920       -6.1390287254      -0.0000000000     1.000000    0.00000559
  921       -6.1390287254      -0.0000000000     1.000000    0.00000555
  922       -6.1390287254      -0.0000000000     1.000000    0.00000551
  923       -6.1390287254      -0.0000000000     1.000000    0.00000546
  924       -6.1390287254      -0.0000000000     1.000000    0.00000542
  925       -6.1390287254      -0.0000000000     1.000000    0.00000538
  926       -6.1390287254      -0.0000000000     1.000000    0.00000534
  927       -6.1390287254      -0.0000000000     1.000000    0.00000530
  928       -6.1390287254      -0.0000000000     1.000000    0.00000526
  929       -6.1390287254      -0.0000000000     1.000000    0.00000522
  930       -6.1390287254      -0.0000000000     1.000000    0.00000518
  931       -6.1390287254      -0.0000000000     1.000000    0.00000514
  932       -6.1390287254      -0.0000000000     1.000000    0.00000510
  933       -6.1390287254      -0.0000000000     1.000000    0.00000506
  934       -6.1390287254      -0.0000000000     1.000000    0.00000502
  935       -6.1390287254      -0.0000000000     1.000000    0.00000498
  936       -6.1390287254      -0.0000000000     1.000000    0.00000494
  937       -6.1390287254      -0.0000000000     1.000000    0.00000491
  938       -6.1390287254      -0.0000000000     1.000000    0.00000487
  939       -6.1390287254      -0.0000000000     1.000000    0.00000483
  940       -6.1390287254      -0.0000000000     1.000000    0.00000479
  941       -6.1390287254      -0.0000000000     1.000000    0.00000476
  942       -6.1390287254      -0.0000000000     1.000000    0.00000472
  943       -6.1390287254      -0.0000000000     1.000000    0.00000468
  944       -6.1390287254      -0.0000000000     1.000000    0.00000465
  945       -6.1390287254      -0.0000000000     1.000000    0.00000461
  946       -6.1390287254      -0.0000000000     1.000000    0.00000458
  947       -6.1390287254      -0.0000000000     1.000000    0.00000454
  948       -6.1390287254      -0.0000000000     1.000000    0.00000451
  949       -6.1390287254      -0.0000000000     1.000000    0.00000447
  950       -6.1390287254      -0.0000000000     1.000000    0.00000444
  951       -6.1390287254      -0.0000000000     1.000000    0.00000440
  952       -6.1390287254      -0.0000000000     1.000000    0.00000437
  953       -6.1390287254      -0.0000000000     1.000000    0.00000434
  954       -6.1390287254      -0.0000000000     1.000000    0.00000430
  955       -6.1390287254      -0.0000000000     1.000000    0.00000427
  956       -6.1390287254      -0.0000000000     1.000000    0.00000424
  957       -6.1390287254      -0.0000000000     1.000000    0.00000421
  958       -6.1390287254      -0.0000000000     1.000000    0.00000417
  959       -6.1390287254      -0.0000000000     1.000000    0.00000414
  960       -6.1390287254      -0.0000000000     1.000000    0.00000411
  961       -6.1390287254      -0.0000000000     1.000000    0.00000408
  962       -6.1390287254      -0.0000000000     1.000000    0.00000405
  963       -6.1390287254      -0.0000000000     1.000000    0.00000402
  964       -6.1390287254      -0.0000000000     1.000000    0.00000399
  965       -6.1390287254      -0.0000000000     1.000000    0.00000395
  966       -6.1390287254      -0.0000000000     1.000000    0.00000392
  967       -6.1390287254      -0.0000000000     1.000000    0.00000389
  968       -6.1390287254      -0.0000000000     1.000000    0.00000386
  969       -6.1390287254      -0.0000000000     1.000000    0.00000384
  970       -6.1390287254      -0.0000000000     1.000000    0.00000381
  971       -6.1390287254      -0.0000000000     1.000000    0.00000378
  972       -6.1390287254      -0.0000000000     1.000000    0.00000375
  973       -6.1390287254      -0.0000000000     1.000000    0.00000372
  974       -6.1390287254      -0.0000000000     1.000000    0.00000369
  975       -6.1390287254      -0.0000000000     1.000000    0.00000366
  976       -6.1390287254      -0.0000000000     1.000000    0.00000363
  977       -6.1390287254      -0.0000000000     1.000000    0.00000361
  978       -6.1390287254      -0.0000000000     1.000000    0.00000358
  979       -6.1390287254      -0.0000000000     1.000000    0.00000355
  980       -6.1390287254      -0.0000000000     1.000000    0.00000352
  981       -6.1390287254      -0.0000000000     1.000000    0.00000350
  982       -6.1390287254      -0.0000000000     1.000000    0.00000347
  983       -6.1390287254      -0.0000000000     1.000000    0.00000344
  984       -6.1390287254      -0.0000000000     1.000000    0.00000342
  985       -6.1390287254      -0.0000000000     1.000000    0.00000339
  986       -6.1390287254      -0.0000000000     1.000000    0.00000336
  987       -6.1390287254      -0.0000000000     1.000000    0.00000334
  988       -6.1390287254      -0.0000000000     1.000000    0.00000331
  989       -6.1390287254      -0.0000000000     1.000000    0.00000329
  990       -6.1390287254      -0.0000000000     1.000000    0.00000326
  991       -6.1390287254      -0.0000000000     1.000000    0.00000324
  992       -6.1390287254      -0.0000000000     1.000000    0.00000321
  993       -6.1390287254      -0.0000000000     1.000000    0.00000319
  994       -6.1390287254      -0.0000000000     1.000000    0.00000316
  995       -6.1390287254      -0.0000000000     1.000000    0.00000314
  996       -6.1390287254      -0.0000000000     1.000000    0.00000312
  997       -6.1390287254      -0.0000000000     1.000000    0.00000309
  998       -6.1390287254      -0.0000000000     1.000000    0.00000307
  999       -6.1390287254      -0.0000000000     1.000000    0.00000304
 1000       -6.1390287254      -0.0000000000     1.000000    0.00000302

Total Energy:                       -6.1390287254 H         -167.0515 eV
Extrapolated to 0:                  -6.1444968743 H         -167.2003 eV

----------------------------------------------------------------------------------
 Solving CP-REKS equation for  1 state vector...
----------------------------------------------------------------------------------
  CG solver: Constructing Y initial guess
  CG solver: Iteration    1    eps =    0.042718374909
  CG solver: Iteration    2    eps =    0.001847394904
  CG solver: Iteration    3    eps =    0.000329255959
  CG solver: Iteration    4    eps =    0.000068944786
  CG solver: Iteration    5    eps =    0.000011434291
  CG solver: Iteration    6    eps =    0.000000990680
  CG solver: Iteration    7    eps =    0.000000070642
  CG solver: Iteration    8    eps =    0.000000008425
  Convergence reached in CG solver after    8 iterations
  CG solver: Calculating converged R, Z, Q2 matrix
----------------------------------------------------------------------------------

----------------------------------------------------------------------------------
 Solving CP-REKS equation for SI between  1 and  2 state vectors...
----------------------------------------------------------------------------------
  CG solver: Constructing Y initial guess
  CG solver: Iteration    1    eps =    0.039057128297
  CG solver: Iteration    2    eps =    0.001820923089
  CG solver: Iteration    3    eps =    0.000241356106
  CG solver: Iteration    4    eps =    0.000064400680
  CG solver: Iteration    5    eps =    0.000004191823
  CG solver: Iteration    6    eps =    0.000000696540
  CG solver: Iteration    7    eps =    0.000000021170
  CG solver: Iteration    8    eps =    0.000000000972
  Convergence reached in CG solver after    8 iterations
  CG solver: Calculating converged R, Z, Q2 matrix
----------------------------------------------------------------------------------

--------------------------------------------------
 Gradient Information
--------------------------------------------------
           1 st state (SSR)
     0.00000000     0.00000000     0.00000000
     0.00000000     0.00000000     0.00000000
     0.00000000     0.00000000     0.00000000
     0.00000000     0.00000000     0.00000000
     0.00000000     0.00000000     0.00000000
     0.00000000     0.00000000     0.00000000

           2 st state (SSR)
     0.00000000     0.00000000     0.00000000
     0.00000000     0.00000000     0.00000000
     0.00000000     0.00000000     0.00000000
     0.00000000     0.00000000     0.00000000
     0.00000000     0.00000000     0.00000000
     0.00000000     0.00000000     0.00000000
--------------------------------------------------
 Coupling Information
--------------------------------------------------
 between  1 and  2 states
--------------------------------------------------
 g vector - difference gradient
     0.49711238    -0.70237210    -0.21138731
    -0.23639974     0.28107796    -0.33897634
    -0.15064895     0.27274229     0.10218449
    -0.17276827    -0.11858930     0.11603867
     0.12112598     0.00255127     0.08505672
    -0.05842140     0.26458988     0.24708377

 h vector - derivative coupling
    -0.00317989    -0.00131256     0.07454344
    -0.00472235     0.00321830    -0.01488864
     0.01201661     0.00117491    -0.00960025
    -0.01175568    -0.00039805    -0.00756420
    -0.00227655     0.00880882    -0.02447142
     0.00991786    -0.01149142    -0.01801894

 G vector - GDV
     0.00000000     0.00000000     0.00000000
     0.00000000     0.00000000     0.00000000
     0.00000000     0.00000000     0.00000000
     0.00000000     0.00000000     0.00000000
     0.00000000     0.00000000     0.00000000
     0.00000000     0.00000000     0.00000000

 H vector - DCV - non-adiabatic coupling
     0.00000000     0.00000000     0.00000000
     0.00000000     0.00000000     0.00000000
     0.00000000     0.00000000     0.00000000
     0.00000000     0.00000000     0.00000000
     0.00000000     0.00000000     0.00000000
     0.00000000     0.00000000     0.00000000
--------------------------------------------------

WARNING!
-> SCC is NOT converged, maximal SCC iterations exceeded

--------------------------------------------------------------------------------
DFTB+ running times                          cpu [s]             wall clock [s]
--------------------------------------------------------------------------------
SCC                                    +     0.42  ( 97.2%)      0.43  ( 96.2%)
      Sparse to dense                        0.02  (  4.5%)      0.02  (  4.5%)
      Dense to sparse                        0.07  ( 15.4%)      0.07  ( 15.6%)
      Range separated Hamiltonian            0.03  (  6.3%)      0.02  (  5.4%)
  Density matrix creation                    0.05  ( 11.7%)      0.06  ( 12.4%)
  Force calculation                          0.01  (  2.4%)      0.01  (  2.5%)
--------------------------------------------------------------------------------
Missing                                +     0.01  (  2.8%)      0.02  (  3.8%)
Total                                  =     0.44  (100.0%)      0.44  (100.0%)
--------------------------------------------------------------------------------
