     6
  Step:   600            Position(A)                                  Velocity(au)
C        -0.10165311    -0.02030274     0.11087906     0.00031540     0.00123343     0.00004577
N         0.00955034    -0.02236212     1.36857315    -0.00012047    -0.00045293     0.00032086
H         0.89380277     0.19445608    -0.34861035     0.00241617     0.00262990    -0.00063727
H        -0.91182722    -0.65824098     1.90029328    -0.00072862    -0.00029604     0.00192354
H         0.11557212     1.05948931    -0.40908363    -0.00157640    -0.00791360    -0.00369530
H        -0.23134992    -0.71274264    -0.58998188    -0.00219534    -0.00282384    -0.00259526
