     6
  Step:   600            Position(A)                                  Velocity(au)
C         0.19829809     0.07341915     0.05179209     0.00023095    -0.00030854    -0.00055647
N        -0.29221169    -0.26190261     1.35365343    -0.00060490     0.00041339     0.00011859
H         0.19882802    -0.33447048    -0.99651477     0.00407354     0.00198643     0.00274427
H        -0.48247039     0.74481709     2.07670442     0.00308422    -0.00240931     0.00194577
H         0.94405359     0.54787450     0.71525604     0.00255862     0.00060981    -0.00311522
H        -0.17580940     1.13611895    -0.33179812    -0.00406249    -0.00225500     0.00340809
