    14
  Step:   600            Position(A)                                  Velocity(au)
C        -5.42567695    -1.09800000     0.46790018     0.00063352    -0.00025969     0.00011602
C        -5.02394686    -0.20470650    -0.45389532     0.00013077     0.00023064     0.00027824
H        -4.56687399    -1.58648349     0.97419441     0.00075530     0.00049370    -0.00192340
H        -6.47466913    -1.32731266     0.51255024     0.00103345    -0.00027913     0.00294642
H        -5.53310953     0.26675903    -1.35638593    -0.00135859     0.00090594    -0.00042420
C        -3.66478203     0.31888030    -0.46742571     0.00026958     0.00005933    -0.00072125
C        -2.94778914     0.74459002     0.67934697    -0.00102439     0.00055296     0.00006856
H        -3.21478356     0.44790381    -1.41321284     0.00043054    -0.00117634     0.00235504
H        -2.90553951     0.50123030     1.77304929    -0.00283952     0.00042496     0.00009821
C        -1.87447818     1.44271720    -0.18626406     0.00011184     0.00002125    -0.00017451
H        -1.88949572     1.72454832    -1.25859692     0.00060498     0.00030302     0.00072193
N        -0.68370667     1.80013167     0.32040235     0.00009293    -0.00040779     0.00027233
H         0.13241894     2.15302971    -0.24912243    -0.00116129     0.00005603    -0.00000504
H        -0.37082509     1.10552078     1.10617387    -0.00020202    -0.00226450    -0.00239449
