    14
  Step:     0            Position(A)                                  Velocity(au)
C        -6.03602440    -0.81884370    -0.14887571    -0.00011148    -0.00016591    -0.00006895
C        -4.73344041    -0.73496809     0.15334336    -0.00005383    -0.00019233     0.00020091
H        -6.70959554    -0.00063537    -0.45800956     0.00124240     0.00028035     0.00091736
H        -6.45456349    -1.85837974    -0.25096739    -0.00012556    -0.00009394     0.00065786
H        -4.12029858    -1.58258527     0.45408401     0.00053418     0.00023512    -0.00077400
C        -3.92826323     0.52377588     0.02405201    -0.00007096     0.00025404    -0.00017547
C        -2.57483563     0.52313351     0.17003467     0.00019554     0.00028369     0.00000872
H        -4.48779100     1.45662034    -0.14890502     0.00157118     0.00058426    -0.00059903
H        -2.06673969    -0.39263129     0.43389174    -0.00002687     0.00056484    -0.00124650
C        -1.78301228     1.64389808    -0.01280084    -0.00048233    -0.00012835    -0.00012351
H        -2.17886601     2.51698023    -0.57326587     0.00010476    -0.00061654    -0.00001175
N        -0.49451796     1.81010775     0.19345017     0.00011254    -0.00005571     0.00025326
H        -0.03136659     2.73281856    -0.08743590     0.00087117     0.00032681    -0.00040904
H         0.01517918     1.06629432     0.74268127     0.00049751    -0.00111607    -0.00016800
    14
  Step:     1            Position(A)                                  Velocity(au)
C        -6.03759014    -0.82084029    -0.14975600    -0.00017076    -0.00019982    -0.00009002
C        -4.73357202    -0.73677825     0.15559746     0.00002839    -0.00013678     0.00020970
H        -6.69541696     0.00226436    -0.44749885     0.00132613     0.00026658     0.00099179
H        -6.45591968    -1.85818675    -0.24357454    -0.00012806     0.00012448     0.00069022
H        -4.11485646    -1.58048778     0.44568072     0.00046465     0.00014030    -0.00075829
C        -3.92963884     0.52640379     0.02210950    -0.00017841     0.00022434    -0.00017896
C        -2.57233924     0.52614236     0.17021165     0.00025668     0.00026503     0.00002300
H        -4.47026798     1.46264451    -0.15570519     0.00161189     0.00052785    -0.00064544
H        -2.06690694    -0.38705589     0.42040154     0.00000884     0.00043306    -0.00120862
C        -1.78852477     1.64276677    -0.01436047    -0.00051709    -0.00007694    -0.00016017
H        -2.17830191     2.50966032    -0.57272532    -0.00001182    -0.00069919     0.00009996
N        -0.49288189     1.80950416     0.19632560     0.00018377    -0.00005502     0.00027185
H        -0.02272822     2.73382777    -0.09099433     0.00069594    -0.00016015    -0.00023555
H         0.02017714     1.05587781     0.73978334     0.00040406    -0.00077188    -0.00037099
    14
  Step:     2            Position(A)                                  Velocity(au)
C        -6.03976000    -0.82321515    -0.15084506    -0.00022049    -0.00023447    -0.00010676
C        -4.73281931    -0.73796051     0.15793099     0.00010658    -0.00007807     0.00021521
H        -6.68058391     0.00519657    -0.43631224     0.00136013     0.00028903     0.00103978
H        -6.45736505    -1.85565641    -0.23586742    -0.00014463     0.00032586     0.00071531
H        -4.11013339    -1.57951590     0.43749506     0.00040290     0.00003205    -0.00073552
C        -3.93216636     0.52868372     0.02013690    -0.00028085     0.00019032    -0.00018084
C        -2.56922023     0.52893146     0.17053782     0.00030931     0.00024345     0.00003603
H        -4.45252778     1.46816810    -0.16302526     0.00160965     0.00049509    -0.00069448
H        -2.06654629    -0.38315717     0.40745078     0.00006767     0.00026306    -0.00114881
C        -1.79432466     1.64221490    -0.01630486    -0.00053463    -0.00002328    -0.00019344
H        -2.17912463     2.50168407    -0.57107898    -0.00014946    -0.00073133     0.00018774
N        -0.49049771     1.80890418     0.19939751     0.00024766    -0.00005537     0.00028877
H        -0.01614161     2.72931505    -0.09258903     0.00050609    -0.00066277    -0.00005621
H         0.02401883     1.04940806     0.73456516     0.00029470    -0.00040856    -0.00058242
    14
  Step:     3            Position(A)                                  Velocity(au)
C        -6.04241370    -0.82596984    -0.15209167    -0.00025816    -0.00026850    -0.00011861
C        -4.73124041    -0.73848622     0.16030566     0.00017844    -0.00001726     0.00021708
H        -6.66566141     0.00858740    -0.42475158     0.00134260     0.00035091     0.00106025
H        -6.45908372    -1.85105804    -0.22792570    -0.00018043     0.00049528     0.00073307
H        -4.10604220    -1.57978652     0.42958971     0.00034881    -0.00008343    -0.00070829
C        -3.93578294     0.53056734     0.01815332    -0.00037724     0.00015182    -0.00018092
C        -2.56557240     0.53146836     0.17099979     0.00035383     0.00021888     0.00004789
H        -4.43505373     1.47347549    -0.17089834     0.00156337     0.00048894    -0.00074678
H        -2.06542659    -0.38130099     0.39526916     0.00014438     0.00006662    -0.00106955
C        -1.80022079     1.64225747    -0.01859232    -0.00053502     0.00003077    -0.00022256
H        -2.18157160     2.49366105    -0.56861805    -0.00030871    -0.00070416     0.00024734
N        -0.48746386     1.80829276     0.20264311     0.00030118    -0.00005735     0.00030329
H        -0.01165646     2.71932841    -0.09222405     0.00032204    -0.00114114     0.00011625
H         0.02662436     1.04693975     0.72704183     0.00018671    -0.00005467    -0.00078301
    14
  Step:     4            Position(A)                                  Velocity(au)
C        -6.04540783    -0.82908908    -0.15343996    -0.00028217    -0.00030016    -0.00012531
C        -4.72891561    -0.73833817     0.16267999     0.00024232     0.00004467     0.00021509
H        -6.65121190     0.01287341    -0.41311732     0.00127604     0.00045021     0.00105463
H        -6.46131229    -1.84482111    -0.21983004    -0.00023989     0.00061868     0.00074334
H        -4.10250251    -1.58134113     0.42199989     0.00030124    -0.00019880    -0.00067888
C        -3.94041914     0.53200502     0.01617890    -0.00046734     0.00010879    -0.00017920
C        -2.56147946     0.53371982     0.17158561     0.00039154     0.00019129     0.00005875
H        -4.41832610     1.47886458    -0.17936259     0.00147469     0.00050853    -0.00080260
H        -2.06338780    -0.38169963     0.38405231     0.00023161    -0.00014073    -0.00097444
C        -1.80602918     1.64288804    -0.02117385    -0.00051940     0.00008325    -0.00024697
H        -2.18587832     2.48627929    -0.56566801    -0.00048852    -0.00061289     0.00027711
N        -0.48390887     1.80764943     0.20603256     0.00034179    -0.00006144     0.00031485
H        -0.00909646     2.70435044    -0.09004578     0.00016492    -0.00155520     0.00026836
H         0.02810339     1.04821211     0.71743530     0.00009740     0.00026076    -0.00095426
    14
  Step:     5            Position(A)                                  Velocity(au)
C        -6.04858666    -0.83253646    -0.15483312    -0.00029200    -0.00032740    -0.00012697
C        -4.72593929    -0.73750907     0.16501115     0.00029733     0.00010683     0.00020922
H        -6.63774552     0.01843669    -0.40167950     0.00116753     0.00057867     0.00102691
H        -6.46433184    -1.83752323    -0.21166377    -0.00032642     0.00068387     0.00074591
H        -4.09945191    -1.58413571     0.41473789     0.00025826    -0.00030608    -0.00064907
C        -3.94600696     0.53294725     0.01423289    -0.00055138     0.00006141    -0.00017583
C        -2.55700672     0.53565321     0.17228503     0.00042411     0.00016077     0.00006874
H        -4.40279203     1.48460047    -0.18845685     0.00134796     0.00054857    -0.00086160
H        -2.06035972    -0.38437973     0.37395144     0.00032095    -0.00034165    -0.00086778
C        -1.81158366     1.64407871    -0.02399534    -0.00048970     0.00013243    -0.00026637
H        -2.19225890     2.48025286    -0.56255581    -0.00068560    -0.00045852     0.00027880
N        -0.47998644     1.80694872     0.20953103     0.00036735    -0.00006809     0.00032310
H        -0.00804846     2.68530553    -0.08635313     0.00005683    -0.00186438     0.00038577
H         0.02875527     1.05264445     0.70616546     0.00004393     0.00050869    -0.00107878
    14
  Step:     6            Position(A)                                  Velocity(au)
C        -6.05179588    -0.83625167    -0.15621761    -0.00028841    -0.00034806    -0.00012405
C        -4.72241096    -0.73600111     0.16725702     0.00034334     0.00016829     0.00019961
H        -6.62566992     0.02553291    -0.39065177     0.00102812     0.00072196     0.00098294
H        -6.46845329    -1.82986021    -0.20351187    -0.00044170     0.00068248     0.00074085
H        -4.09685261    -1.58803724     0.40780019     0.00021754    -0.00039740    -0.00061989
C        -3.95248153     0.53334843     0.01233224    -0.00062925     0.00001036    -0.00017103
C        -2.55220127     0.53723702     0.17308935     0.00045268     0.00012733     0.00007796
H        -4.38883695     1.49086559    -0.19821171     0.00118970     0.00059947    -0.00092243
H        -2.05636639    -0.38917392     0.36506785     0.00040420    -0.00051926    -0.00075419
C        -1.81674240     1.64578514    -0.02700120    -0.00044815     0.00017730    -0.00028082
H        -2.20087718     2.47624824    -0.55956876    -0.00089379    -0.00024936     0.00025795
N        -0.47587249     1.80615978     0.21310108     0.00037591    -0.00007780     0.00032793
H        -0.00785328     2.66356353    -0.08160622     0.00001954    -0.00202997     0.00045415
H         0.02906444     1.05934078     0.69383486     0.00004214     0.00066195    -0.00114149
    14
  Step:     7            Position(A)                                  Velocity(au)
C        -6.05489627    -0.84015098    -0.15754686    -0.00027320    -0.00036021    -0.00011729
C        -4.71842814    -0.73382752     0.16937795     0.00038065     0.00022788     0.00018655
H        -6.61525353     0.03423101    -0.38017587     0.00087109     0.00086153     0.00092945
H        -6.47399489    -1.82259263    -0.19545628    -0.00058510     0.00061202     0.00072868
H        -4.09469285    -1.59282966     0.40117664     0.00017683    -0.00046577    -0.00059151
C        -3.95977302     0.53317397     0.01049135    -0.00069997    -0.00004298    -0.00016500
C        -2.54710345     0.53843889     0.17399053     0.00047710     0.00009075     0.00008644
H        -4.37676517     1.49771503    -0.20863669     0.00100776     0.00064833    -0.00098272
H        -2.05151703    -0.39573949     0.35745209     0.00047456    -0.00065940    -0.00063831
C        -1.82138783     1.64795759    -0.03013885    -0.00039672     0.00021801    -0.00029079
H        -2.21181233     2.47479754    -0.55691260    -0.00110394    -0.00000130     0.00022352
N        -0.47176259     1.80524663     0.21670503     0.00036600    -0.00009091     0.00032939
H        -0.00762104     2.64089616    -0.07641774     0.00007117    -0.00202135     0.00046137
H         0.02967724     1.06712595     0.68119318     0.00010425     0.00069899    -0.00113193
    14
  Step:     8            Position(A)                                  Velocity(au)
C        -6.05777273    -0.84413189    -0.15878355    -0.00024879    -0.00036255    -0.00010756
C        -4.71408342    -0.73101582     0.17133816     0.00040970     0.00028419     0.00017042
H        -6.60661316     0.04438050    -0.37031822     0.00070986     0.00097753     0.00087280
H        -6.48125336    -1.81647103    -0.18757068    -0.00075275     0.00047792     0.00071053
H        -4.09298412    -1.59822677     0.39485972     0.00013442    -0.00050562    -0.00056353
C        -3.96779482     0.53240808     0.00872258    -0.00076180    -0.00009668    -0.00015793
C        -2.54176386     0.53922242     0.17498042     0.00049611     0.00005070     0.00009413
H        -4.36679024     1.50504914    -0.21971060     0.00081030     0.00068089    -0.00103933
H        -2.04598456    -0.40359950     0.35110364     0.00052736    -0.00075223    -0.00052430
C        -1.82542144     1.65055458    -0.03336282    -0.00033708     0.00025567    -0.00029708
H        -2.22502803     2.47621974    -0.55467885    -0.00130447     0.00026387     0.00018686
N        -0.46786564     1.80417106     0.22030708     0.00033708    -0.00010728     0.00032774
H        -0.00629624     2.61934261    -0.07151292     0.00022075    -0.00182584     0.00040109
H         0.03134522     1.07463251     0.66907169     0.00023540     0.00060924    -0.00104728
    14
  Step:     9            Position(A)                                  Velocity(au)
C        -6.06033898    -0.84808239    -0.15989988    -0.00021786    -0.00035478    -0.00009567
C        -4.70946508    -0.72761024     0.17310625     0.00043088     0.00033575     0.00015163
H        -6.59972388     0.05561630    -0.36108169     0.00055593     0.00105220     0.00081784
H        -6.49046272    -1.81213712    -0.17991210    -0.00093699     0.00029470     0.00068813
H        -4.09175210    -1.60389100     0.38884830     0.00008946    -0.00051329    -0.00053534
C        -3.97643878     0.53105882     0.00703627    -0.00081296    -0.00014857    -0.00015004
C        -2.53625006     0.53954814     0.17604988     0.00050835     0.00000716     0.00010092
H        -4.35903839     1.51261072    -0.23137399     0.00060475     0.00068377    -0.00108868
H        -2.03997996    -0.41219589     0.34598192     0.00056033    -0.00079285    -0.00041517
C        -1.82876220     1.65355094    -0.03663808    -0.00027095     0.00029176    -0.00030069
H        -2.24035002     2.48057019    -0.55282459    -0.00148262     0.00052179     0.00016031
N        -0.46438842     1.80289972     0.22387487     0.00029052    -0.00012599     0.00032330
H        -0.00279179     2.60095245    -0.06764309     0.00046192    -0.00145902     0.00027690
H         0.03482699     1.08045423     0.65828188     0.00042994     0.00039874    -0.00089516
    14
  Step:    10            Position(A)                                  Velocity(au)
C        -6.06253885    -0.85189338    -0.16087654    -0.00018317    -0.00033774    -0.00008233
C        -4.70465719    -0.72367075     0.17465540     0.00044452     0.00038118     0.00013061
H        -6.59445104     0.06739944    -0.35242647     0.00041745     0.00107270     0.00076755
H        -6.50175184    -1.81002398    -0.17251646    -0.00112642     0.00008488     0.00066325
H        -4.09102711    -1.60945591     0.38314813     0.00004207    -0.00048721    -0.00050624
C        -3.98557982     0.52915777     0.00544010    -0.00085221    -0.00019663    -0.00014160
C        -2.53064263     0.53937905     0.17718833     0.00051302    -0.00003933     0.00010665
H        -4.35356012     1.52000785    -0.24352766     0.00039721     0.00064658    -0.00112744
H        -2.03372629    -0.42094465     0.34202095     0.00057333    -0.00078114    -0.00031262
C        -1.83134896     1.65693745    -0.03994103    -0.00020032     0.00032746    -0.00030259
H        -2.25746316     2.48763485    -0.55117169    -0.00162620     0.00074953     0.00015515
N        -0.46151003     1.80141489     0.22737989     0.00023016    -0.00014513     0.00031640
H         0.00380925     2.58742365    -0.06545513     0.00076912    -0.00096980     0.00010490
H         0.04075098     1.08335564     0.64948840     0.00066924     0.00009328    -0.00069458
    14
  Step:    11            Position(A)                                  Velocity(au)
C        -6.06434606    -0.85547102    -0.16170090    -0.00014733    -0.00031324    -0.00006803
C        -4.69974032    -0.71927114     0.17596362     0.00045091     0.00041931     0.00010780
H        -6.59059128     0.07908360    -0.34429005     0.00029882     0.00103262     0.00072315
H        -6.51510530    -1.81028013    -0.16540224    -0.00130688    -0.00012409     0.00063723
H        -4.09083181    -1.61454971     0.37777333    -0.00000659    -0.00042797    -0.00047539
C        -3.99508248     0.52675705     0.00393843    -0.00087881    -0.00023915    -0.00013293
C        -2.52502667     0.53868780     0.17838306     0.00051000    -0.00008758     0.00011110
H        -4.35034861     1.52675589    -0.25603883     0.00019210     0.00056315    -0.00115290
H        -2.02743731    -0.42928480     0.33914268     0.00056800    -0.00072103    -0.00021731
C        -1.83314451     1.66071482    -0.04325773    -0.00012742     0.00036331    -0.00030349
H        -2.27592630     2.49696749    -0.54943029    -0.00172508     0.00092896     0.00017962
N        -0.45935315     1.79972467     0.23079665     0.00016214    -0.00016216     0.00030724
H         0.01403415     2.57973621    -0.06534813     0.00109942    -0.00043435    -0.00008755
H         0.04946786     1.08249496     0.64308652     0.00092265    -0.00026347    -0.00047374
    14
  Step:    12            Position(A)                                  Velocity(au)
C        -6.06576201    -0.85874620    -0.16236490    -0.00011271    -0.00028373    -0.00005313
C        -4.69479265    -0.71449752     0.17701378     0.00045019     0.00044906     0.00008365
H        -6.58791368     0.08998994    -0.33660625     0.00020109     0.00093199     0.00068440
H        -6.53034230    -1.81273874    -0.15857577    -0.00146341    -0.00030463     0.00061084
H        -4.09117121    -1.61881851     0.37274812    -0.00005453    -0.00033815    -0.00044179
C        -4.00480554     0.52392598     0.00253195    -0.00089237    -0.00027468    -0.00012437
C        -2.51948545     0.53746297     0.17961887     0.00049964    -0.00013597     0.00011404
H        -4.34935755     1.53232782    -0.26874958    -0.00000768     0.00043194    -0.00116330
H        -2.02130027    -0.43671865     0.33726686     0.00054730    -0.00061968    -0.00012916
C        -1.83413654     1.66488551    -0.04658051    -0.00005446     0.00039908    -0.00030380
H        -2.29520266     2.50795754    -0.54724219    -0.00177237     0.00104883     0.00023761
N        -0.45796299     1.79786722     0.23410142     0.00009374    -0.00017457     0.00029598
H         0.02786107     2.57792141    -0.06737047     0.00140147     0.00006137    -0.00026779
H         0.06093581     1.07759162     0.63912446     0.00115256    -0.00061801    -0.00026448
    14
  Step:    13            Position(A)                                  Velocity(au)
C        -6.06681173    -0.86167825    -0.16286331    -0.00008119    -0.00025174    -0.00003782
C        -4.68989146    -0.70944711     0.17779369     0.00044237     0.00046944     0.00005861
H        -6.58619197     0.09947257    -0.32931752     0.00012277     0.00077619     0.00065017
H        -6.54712018    -1.81694457    -0.15203894    -0.00158249    -0.00043377     0.00058420
H        -4.09202480    -1.62194746     0.36810828    -0.00009920    -0.00022217    -0.00040439
C        -4.01460487     0.52074797     0.00121767    -0.00089272    -0.00030205    -0.00011623
C        -2.51409609     0.53571328     0.18087791     0.00048265    -0.00018253     0.00011521
H        -4.35051673     1.53620540    -0.28148823    -0.00020056     0.00025584    -0.00115789
H        -2.01546405    -0.44284139     0.33631709     0.00051506    -0.00048643    -0.00004759
C        -1.83433597     1.66944556    -0.04990386     0.00001660     0.00043391    -0.00030351
H        -2.31470018     2.51991270    -0.54423221    -0.00176487     0.00110523     0.00032866
N        -0.45730232     1.79590562     0.23727186     0.00003189    -0.00018064     0.00028277
H         0.04469395     2.58107870    -0.07120649     0.00162842     0.00044387    -0.00040632
H         0.07468225     1.06897473     0.63730053     0.00132223    -0.00091878    -0.00009539
    14
  Step:    14            Position(A)                                  Velocity(au)
C        -6.06753815    -0.86425341    -0.16319221    -0.00005409    -0.00021946    -0.00002216
C        -4.68511502    -0.70422765     0.17829604     0.00042727     0.00047953     0.00003313
H        -6.58522777     0.10697057    -0.32238254     0.00006067     0.00057463     0.00061884
H        -6.56496226    -1.82222825    -0.14579519    -0.00165396    -0.00049658     0.00055703
H        -4.09334130    -1.62367889     0.36390124    -0.00013765    -0.00008589    -0.00036215
C        -4.02433543     0.51731799    -0.00001081    -0.00087983    -0.00032034    -0.00010881
C        -2.50892654     0.53346976     0.18213939     0.00045992    -0.00022521     0.00011437
H        -4.35374516     1.53792472    -0.29408072    -0.00038586     0.00004143    -0.00113700
H        -2.01003235    -0.44736021     0.33622583     0.00047555    -0.00033201     0.00002827
C        -1.83377342     1.67437808    -0.05322044     0.00008414     0.00046642    -0.00030236
H        -2.33381259     2.53213649    -0.54005217    -0.00170290     0.00110048     0.00044881
N        -0.45726523     1.79391543     0.24028764    -0.00001830    -0.00017985     0.00026785
H         0.06348581     2.58763184    -0.07625951     0.00174874     0.00066838    -0.00048374
H         0.08986218     1.05749146     0.63703759     0.00140367    -0.00112713     0.00001392
    14
  Step:    15            Position(A)                                  Velocity(au)
C        -6.06799495    -0.86647947    -0.16334809    -0.00003206    -0.00018857    -0.00000617
C        -4.68054414    -0.69895642     0.17851837     0.00040460     0.00047853     0.00000762
H        -6.58486481     0.11204360    -0.31577923     0.00001065     0.00033918     0.00058864
H        -6.58330363    -1.82780820    -0.13985295    -0.00167212    -0.00048752     0.00052884
H        -4.09503620    -1.62382643     0.36018566    -0.00016686     0.00006369    -0.00031407
C        -4.03385281     0.51373999    -0.00116285    -0.00085385    -0.00032881    -0.00010237
C        -2.50403441     0.53078629     0.18337990     0.00043242    -0.00026198     0.00011128
H        -4.35895826     1.53711181    -0.30636237    -0.00056349    -0.00020197    -0.00110192
H        -2.00506053    -0.45010468     0.33693548     0.00043321    -0.00016777     0.00009937
C        -1.83249515     1.67964930    -0.05651866     0.00014694     0.00049499    -0.00029989
H        -2.35195439     2.54398783    -0.53441357    -0.00158965     0.00104161     0.00059170
N        -0.45770269     1.79197106     0.24313163    -0.00005420    -0.00017274     0.00025154
H         0.08295091     2.59570073    -0.08178931     0.00175060     0.00072300    -0.00049324
H         0.10539020     1.04431660     0.63760508     0.00138235    -0.00122331     0.00005533
    14
  Step:    16            Position(A)                                  Velocity(au)
C        -6.06823950    -0.86837881    -0.16332724    -0.00001517    -0.00016013     0.00001017
C        -4.67626356    -0.69375889     0.17846268     0.00037400     0.00046580    -0.00001753
H        -6.58499471     0.11439084    -0.30950485    -0.00003174     0.00008306     0.00055788
H        -6.60154319    -1.83289361    -0.13422571    -0.00163579    -0.00040941     0.00049928
H        -4.09699165    -1.62228552     0.35703035    -0.00018385     0.00021877    -0.00025931
C        -4.04301503     0.51012467    -0.00225033    -0.00081507    -0.00032700    -0.00009709
C        -2.49946655     0.52773843     0.18457378     0.00040109    -0.00029095     0.00010575
H        -4.36607255     1.53350614    -0.31818732    -0.00073366    -0.00046330    -0.00105474
H        -2.00055516    -0.45103051     0.33839964     0.00039243    -0.00000518     0.00016677
C        -1.83055887     1.68520703    -0.05978109     0.00020410     0.00051800    -0.00029555
H        -2.36858919     2.55492369    -0.52710762    -0.00143043     0.00093856     0.00074973
N        -0.45845102     1.79013635     0.24579051    -0.00007552    -0.00016046     0.00023417
H         0.10178362     2.60344877    -0.08705002     0.00163965     0.00062235    -0.00043878
H         0.12010367     1.03072916     0.63824813     0.00125777    -0.00120634     0.00003117
    14
  Step:    17            Position(A)                                  Velocity(au)
C        -6.06832674    -0.86998255    -0.16312555    -0.00000297    -0.00013471     0.00002691
C        -4.67236208    -0.68876621     0.17813497     0.00033515     0.00044097    -0.00004196
H        -6.58555926     0.11386075    -0.30357456    -0.00007112    -0.00017992     0.00052500
H        -6.61908972    -1.83676487    -0.12893032    -0.00154761    -0.00027144     0.00046815
H        -4.09905832    -1.61904037     0.35451267    -0.00018593     0.00037109    -0.00019718
C        -4.05168408     0.50658627    -0.00328690    -0.00076396    -0.00031476    -0.00009310
C        -2.49525990     0.52442124     0.18569349     0.00036678    -0.00031048     0.00009766
H        -4.37500839     1.52697634    -0.32943692    -0.00089681    -0.00073028    -0.00099830
H        -1.99647534    -0.45021790     0.34058385     0.00035741     0.00014472     0.00023158
C        -1.82803012     1.69098144    -0.06298428     0.00025506     0.00053391    -0.00028880
H        -2.38324777     2.56452066    -0.51801182    -0.00123199     0.00080280     0.00091501
N        -0.45935478     1.78846066     0.24825456    -0.00008366    -0.00014430     0.00021605
H         0.11882130     2.60931582    -0.09138854     0.00143305     0.00039671    -0.00033118
H         0.13290626     1.01792555     0.63828708     0.00104059    -0.00108944    -0.00004895
    14
  Step:    18            Position(A)                                  Velocity(au)
C        -6.06830440    -0.87132594    -0.16273847     0.00000534    -0.00011260     0.00004409
C        -4.66893157    -0.68411177     0.17754468     0.00028786     0.00040408    -0.00006542
H        -6.58655061     0.11045468    -0.29801951    -0.00011203    -0.00043585     0.00048864
H        -6.63540003    -1.83883182    -0.12398413    -0.00141309    -0.00008680     0.00043553
H        -4.10105914    -1.61416719     0.35271658    -0.00017080     0.00051228    -0.00012718
C        -4.05972809     0.50323872    -0.00428716    -0.00070117    -0.00029236    -0.00009044
C        -2.49144253     0.52094598     0.18671022     0.00033023    -0.00031930     0.00008690
H        -4.38569196     1.51752995    -0.34002700    -0.00105356    -0.00099001    -0.00093602
H        -1.99273603    -0.44786453     0.34346595     0.00033192     0.00027182     0.00029493
C        -1.82497894     1.69688727    -0.06609905     0.00029955     0.00054146    -0.00027916
H        -2.39554136     2.57248642    -0.50709012    -0.00100209     0.00064647     0.00107984
N        -0.46028123     1.78697956     0.25051691    -0.00008102    -0.00012540     0.00019738
H         0.13313433     2.61212754    -0.09429525     0.00115366     0.00008239    -0.00018425
H         0.14286865     1.00689562     0.63717729     0.00074863    -0.00089434    -0.00017155
    14
  Step:    19            Position(A)                                  Velocity(au)
C        -6.06820991    -0.87244593    -0.16216110     0.00001077    -0.00009387     0.00006171
C        -4.66606455    -0.67992625     0.17670387     0.00023225     0.00035562    -0.00008768
H        -6.58801023     0.10432580    -0.29288472    -0.00015888    -0.00067107     0.00044763
H        -6.65000384    -1.83866376    -0.11940221    -0.00123967     0.00012928     0.00040177
H        -4.10279499    -1.60783332     0.35173045    -0.00013681     0.00063428    -0.00004900
C        -4.06702352     0.50019038    -0.00526541    -0.00062760    -0.00026058    -0.00008901
C        -2.48803548     0.51743586     0.18759449     0.00029203    -0.00031653     0.00007344
H        -4.39805698     1.50531790    -0.34991407    -0.00120466    -0.00122942    -0.00087184
H        -1.98921393    -0.44427136     0.34703592     0.00031899     0.00036771     0.00035785
C        -1.82147697     1.70282699    -0.06909143     0.00033754     0.00053970    -0.00026624
H        -2.40517043     2.57866333    -0.49438835    -0.00074920     0.00048184     0.00123704
N        -0.46112722     1.78571722     0.25257273    -0.00007041    -0.00010471     0.00017835
H         0.14405974     2.61111825    -0.09541933     0.00082600    -0.00028405    -0.00001238
H         0.14928396     0.99836004     0.63453402     0.00040320    -0.00064665    -0.00032191
    14
  Step:    20            Position(A)                                  Velocity(au)
C        -6.06806875    -0.87337958    -0.16138845     0.00001444    -0.00007849     0.00007978
C        -4.66385066    -0.67633186     0.17562644     0.00016879     0.00029667    -0.00010864
H        -6.59002635     0.09577375    -0.28822674    -0.00021574    -0.00087271     0.00040104
H        -6.66252020    -1.83600355    -0.11519465    -0.00103599     0.00036074     0.00036742
H        -4.10405220    -1.60029110     0.35164461    -0.00008311     0.00072989     0.00003738
C        -4.07345799     0.49753807    -0.00623444    -0.00054439    -0.00022077    -0.00008862
C        -2.48505383     0.51402120     0.18831685     0.00025268    -0.00030178     0.00005733
H        -4.41204619     1.49063413    -0.35910020    -0.00135100    -0.00143571    -0.00081007
H        -1.98575755    -0.43982014     0.35129460     0.00032053     0.00042651     0.00042122
C        -1.81759464     1.70869430    -0.07192365     0.00036924     0.00052797    -0.00024975
H        -2.41193149     2.58302749    -0.48002743    -0.00048235     0.00032103     0.00138011
N        -0.46182161     1.78468875     0.25441873    -0.00005479    -0.00008298     0.00015909