|===============================================================================
|
|  DFTB+ release 20.1
|
|  Copyright (C) 2006 - 2020  DFTB+ developers group
|
|===============================================================================
|
|  When publishing results obtained with DFTB+, please cite the following
|  reference:
|
|  * DFTB+, a software package for efficient approximate density functional
|    theory based atomistic simulations, J. Chem. Phys. 152, 124101 (2020).
|    [doi: 10.1063/1.5143190]
|
|  You should also cite additional publications crediting the parametrization
|  data you use. Please consult the documentation of the SK-files for the
|  references.
|
|===============================================================================

Reading input file 'dftb_in.hsd'
Parser version: 8

--------------------------------------------------------------------------------
Reading SK-files:
Done.


Processed input in HSD format written to 'dftb_pin.hsd'

Starting initialization...
--------------------------------------------------------------------------------
OpenMP threads:              1
Chosen random seed:          508634685
Mode:                        Static calculation
Self consistent charges:     Yes
SCC-tolerance:                 0.100000E-05
Max. scc iterations:                   1000
Shell resolved Hubbard:      No
Spin polarisation:           No
Nr. of up electrons:             6.000000
Nr. of down electrons:           6.000000
Periodic boundaries:         No
Electronic solver:           Relatively robust
Maximal SCC-cycles:                    1000
Initial charges:             Set automatically (system chrg:   0.100E+01)
Included shells:             C:  s, p
                             N:  s, p
                             H:  s
Spin coupling constants:     C   1(s)-1(s):  -0.455900E-01
                             C   1(s)-2(p):  -0.293000E-01
                             C   2(p)-1(s):  -0.293000E-01
                             C   2(p)-2(p):  -0.275500E-01
                             N   1(s)-1(s):  -0.468700E-01
                             N   1(s)-2(p):  -0.317000E-01
                             N   2(p)-1(s):  -0.317000E-01
                             N   2(p)-2(p):  -0.307200E-01
                             H   1(s)-1(s):  -0.792500E-01
Range separated hybrid:      Yes
  Screening parameter omega:   0.300000E+00
  Range separated algorithm:   MatrixBased
Extra options:
                             Mulliken analysis
                             Force calculation
Force type                   original
                             Eigenvector printing


REKS Calcuation:             Yes
SSR(2,2) Calcuation:         Yes
Energy Functional:           (PPS+OSS)/2
Number of Core Orbitals:                  5
Number of Active Orbitals:                2
Number of Basis:                         12
Number of States:                         2
State-Averaging Weight:          0.500000
                                 0.500000
State of Interest:                        1
Initial Guess:               Diagonalize H0 matrix
Newton-Raphson for FON opt:  Yes
NR max. Iterations:                      50
Level Shifting:              Yes
Shift Value:                     0.300000
W Scale Factor:              C  =    3.000000
                             N  =    3.000000
                             H  =    3.000000
Transition Dipole:           No
Gradient of Microstate:      No
CP-REKS Solver:              Preconditioned Conjugate-Gradient
CG max. Iterations:                     100
CG Tolerance:                  0.100000E-07
Memory for A and Hxc:        Direct Updating Without Saving
Non-Adiabatic Coupling:      Yes

--------------------------------------------------------------------------------

***  Geometry step: 0

  iSCC       reks energy        Diff energy         x_a       SCC error   
    1       -6.2593283693       0.0000000000     0.999112    1.18366563
    2       -6.2738221429      -0.0144937736     0.999657    0.11013184
    3       -6.2787847009      -0.0049625580     0.999817    0.05272773
    4       -6.2816895853      -0.0029048844     0.999886    0.02699127
    5       -6.2837006381      -0.0020110529     0.999920    0.01407653
    6       -6.2851650736      -0.0014644355     0.999939    0.01155679
    7       -6.2862263691      -0.0010612956     0.999950    0.01020659
    8       -6.2869744902      -0.0007481210     0.999957    0.00920386
    9       -6.2874847580      -0.0005102679     0.999961    0.00800233
   10       -6.2878224964      -0.0003377384     0.999963    0.00678896
   11       -6.2880407169      -0.0002182205     0.999965    0.00566464
   12       -6.2881792428      -0.0001385259     0.999966    0.00467452
   13       -6.2882661389      -0.0000868962     0.999967    0.00382976
   14       -6.2883202615      -0.0000541226     0.999967    0.00312321
   15       -6.2883538570      -0.0000335955     0.999967    0.00253954
   16       -6.2883746979      -0.0000208408     0.999967    0.00206104
   17       -6.2883876437      -0.0000129459     0.999967    0.00167061
   18       -6.2883957068      -0.0000080630     0.999967    0.00135297
   19       -6.2884007459      -0.0000050392     0.999967    0.00109501
   20       -6.2884039073      -0.0000031614     0.999967    0.00088578
   21       -6.2884058985      -0.0000019911     0.999967    0.00071621
   22       -6.2884071573      -0.0000012588     0.999967    0.00057888
   23       -6.2884079560      -0.0000007987     0.999967    0.00046772
   24       -6.2884084643      -0.0000005084     0.999967    0.00037778
   25       -6.2884087889      -0.0000003245     0.999967    0.00030504
   26       -6.2884089966      -0.0000002077     0.999967    0.00024625
   27       -6.2884091298      -0.0000001332     0.999967    0.00019873
   28       -6.2884092153      -0.0000000856     0.999967    0.00016117
   29       -6.2884092704      -0.0000000551     0.999967    0.00013078
   30       -6.2884093059      -0.0000000355     0.999967    0.00010603
   31       -6.2884093288      -0.0000000229     0.999967    0.00008590
   32       -6.2884093436      -0.0000000148     0.999967    0.00006955
   33       -6.2884093531      -0.0000000096     0.999967    0.00005628
   34       -6.2884093593      -0.0000000062     0.999967    0.00004551
   35       -6.2884093633      -0.0000000040     0.999967    0.00003679
   36       -6.2884093659      -0.0000000026     0.999967    0.00002973
   37       -6.2884093676      -0.0000000017     0.999967    0.00002401
   38       -6.2884093687      -0.0000000011     0.999967    0.00001939
   39       -6.2884093694      -0.0000000007     0.999967    0.00001565
   40       -6.2884093698      -0.0000000005     0.999967    0.00001263
   41       -6.2884093701      -0.0000000003     0.999967    0.00001019
   42       -6.2884093703      -0.0000000002     0.999967    0.00000822
   43       -6.2884093704      -0.0000000001     0.999967    0.00000663
   44       -6.2884093705      -0.0000000001     0.999967    0.00000535
   45       -6.2884093706      -0.0000000001     0.999967    0.00000431
   46       -6.2884093706      -0.0000000000     0.999967    0.00000347
   47       -6.2884093706      -0.0000000000     0.999967    0.00000280
   48       -6.2884093706      -0.0000000000     0.999967    0.00000226
   49       -6.2884093706      -0.0000000000     0.999967    0.00000182
   50       -6.2884093706      -0.0000000000     0.999967    0.00000147
   51       -6.2884093706      -0.0000000000     0.999967    0.00000118
   52       -6.2884093706      -0.0000000000     0.999967    0.00000095
  
--------------------------------------------------
 Final SA-REKS(2,2) energy:      -6.28840937
  
 State     Energy      FON(1)    FON(2)   Spin
  PPS   -6.41729887   1.999934  0.000066  0.00
  OSS   -6.15951987   1.000000  1.000000  0.00
 Trip   -6.23860483   1.000000  1.000000  1.00
--------------------------------------------------

 Lagrangian Wab:   0.00239247  0.00239237

--------------------------------------------------
 SSR: 2SI-2SA-REKS(2,2) Hamiltonian matrix
               PPS           OSS
   PPS    -6.41729887    0.00336390
   OSS     0.00336390   -6.15951987
--------------------------------------------------

----------------------------------------------------------------
 SSR: 2SI-2SA-REKS(2,2) states
                    E_n       C_{PPS}    C_{OSS}
 SSR state  1   -6.41734276  -0.999915   0.013046
 SSR state  2   -6.15947598  -0.013046  -0.999915
----------------------------------------------------------------

 unrelaxed SSR FONs for S0:  1.999763  0.000237

Total Energy:                       -6.4173427577 H         -174.6248 eV
Extrapolated to 0:                  -6.4173427577 H         -174.6248 eV

----------------------------------------------------------------------------------
 Solving CP-REKS equation for  1 state vector...
----------------------------------------------------------------------------------
  CG solver: Constructing Y initial guess
  CG solver: Iteration    1    eps =    0.000042685742
  CG solver: Iteration    2    eps =    0.000006957544
  CG solver: Iteration    3    eps =    0.000000348181
  CG solver: Iteration    4    eps =    0.000000044744
  CG solver: Iteration    5    eps =    0.000000006094
  Convergence reached in CG solver after    5 iterations
  CG solver: Calculating converged R, Z, Q2 matrix
----------------------------------------------------------------------------------

----------------------------------------------------------------------------------
 Solving CP-REKS equation for SI between  1 and  2 state vectors...
----------------------------------------------------------------------------------
  CG solver: Constructing Y initial guess
  CG solver: Iteration    1    eps =    0.000699465910
  CG solver: Iteration    2    eps =    0.000624165063
  CG solver: Iteration    3    eps =    0.000156050239
  CG solver: Iteration    4    eps =    0.000002145952
  CG solver: Iteration    5    eps =    0.000000295443
  CG solver: Iteration    6    eps =    0.000000008109
  Convergence reached in CG solver after    6 iterations
  CG solver: Calculating converged R, Z, Q2 matrix
----------------------------------------------------------------------------------

--------------------------------------------------
 Gradient Information
--------------------------------------------------
           1 st state (SSR)
     0.00145237     0.00034342    -0.01654543
    -0.00164658     0.00444979     0.01343037
     0.00079204     0.00519203    -0.00016803
    -0.00096137    -0.00796869    -0.00064139
     0.00024099     0.00399518     0.00565618
     0.00012256    -0.00601173    -0.00173170

           2 st state (SSR)
     0.00155966    -0.00286567     0.08074787
     0.00089655     0.00147393    -0.10243998
    -0.01416218    -0.00536804     0.01744785
    -0.00741190     0.00731253    -0.00835502
     0.00533503    -0.00398677    -0.00490297
     0.01378284     0.00343402     0.01750224
--------------------------------------------------
 Coupling Information
--------------------------------------------------
 between  1 and  2 states
--------------------------------------------------
 g vector - difference gradient
    -0.00005000     0.00161159    -0.04875544
    -0.00124322     0.00149117     0.05799755
     0.00749061     0.00546171    -0.00879302
     0.00317772    -0.00784113     0.00385729
    -0.00252790     0.00417871     0.00531385
    -0.00684721    -0.00490205    -0.00962022

 h vector - derivative coupling
     0.00014047     0.00024884    -0.00353359
     0.00110262     0.00010488     0.00163418
     0.00041992     0.00689208     0.00068652
    -0.00186404    -0.00758327    -0.00003221
     0.00076588     0.00714101     0.00124434
    -0.00056484    -0.00680354     0.00000076

 G vector - GDV
    -0.00005365     0.00160455    -0.04864665
    -0.00127157     0.00148793     0.05793517
     0.00747711     0.00528003    -0.00880794
     0.00322527    -0.00764061     0.00385682
    -0.00254702     0.00399098     0.00527958
    -0.00683014    -0.00472287    -0.00961697

 H vector - DCV - non-adiabatic coupling
     0.00053949     0.00112771    -0.01863145
     0.00414868     0.00055746     0.01220318
     0.00238577     0.02727078     0.00177174
    -0.00690473    -0.03019104     0.00026540
     0.00271327     0.02810601     0.00536152
    -0.00288248    -0.02687092    -0.00097039
--------------------------------------------------


--------------------------------------------------------------------------------
DFTB+ running times                          cpu [s]             wall clock [s]
--------------------------------------------------------------------------------
SCC                                    +     0.02  ( 69.3%)      0.03  ( 62.5%)
Post-SCC processing                    +     0.01  ( 26.6%)      0.01  ( 25.0%)
--------------------------------------------------------------------------------
Missing                                +     0.00  (  4.1%)      0.00  ( 12.5%)
Total                                  =     0.03  (100.0%)      0.04  (100.0%)
--------------------------------------------------------------------------------
