     6
  Step:     0            Position(A)                                  Velocity(au)
C        -0.03207299     0.01517601     0.01545953    -0.00005409    -0.00004280    -0.00020917
N        -0.04511891    -0.04392587     1.29801428     0.00015671    -0.00008793     0.00029818
H         0.90862221     0.00122146    -0.54656701     0.00059190     0.00040631    -0.00018352
H         0.82193733    -0.19315563     1.84609975    -0.00098448     0.00057332    -0.00143886
H        -0.95320702    -0.09041470     1.85427157    -0.00113245     0.00048723     0.00029268
H        -0.98111851     0.04214154    -0.48364270    -0.00000820     0.00026505    -0.00032139
     6
  Step:     1            Position(A)                                  Velocity(au)
C        -0.03235920     0.01498067     0.01396679    -0.00005022    -0.00002881    -0.00033554
N        -0.04427583    -0.04440336     1.29997694     0.00014929    -0.00008644     0.00041736
H         0.91198613     0.00330198    -0.54757205     0.00063173     0.00035540    -0.00018163
H         0.81658691    -0.19015500     1.83822202    -0.00095160     0.00052058    -0.00142613
H        -0.95915784    -0.08786295     1.85566025    -0.00103267     0.00044657     0.00021140
H        -0.98148672     0.04347169    -0.48563466    -0.00012372     0.00022204    -0.00040508
     6
  Step:     2            Position(A)                                  Velocity(au)
C        -0.03262239     0.01486077     0.01178841    -0.00004572    -0.00001527    -0.00045877
N        -0.04348556    -0.04487165     1.30258059     0.00013727    -0.00008447     0.00053126
H         0.91553396     0.00510987    -0.54855419     0.00065830     0.00030652    -0.00017533
H         0.81152588    -0.18746000     1.83049651    -0.00087657     0.00046134    -0.00138079
H        -0.96450548    -0.08552881     1.85658454    -0.00091249     0.00040728     0.00012418
H        -0.98247210     0.04457089    -0.48807465    -0.00023207     0.00018071    -0.00048393
     6
  Step:     3            Position(A)                                  Velocity(au)
C        -0.03285976     0.01481349     0.00894436    -0.00004081    -0.00000234    -0.00057716
N        -0.04277302    -0.04532816     1.30579303     0.00012075    -0.00008201     0.00063805
H         0.91919297     0.00665770    -0.54949155     0.00067132     0.00026014    -0.00016535
H         0.80699045    -0.18510444     1.82310556    -0.00075777     0.00039625    -0.00130131
H        -0.96914746    -0.08340414     1.85701970    -0.00077514     0.00036947     0.00003397
H        -0.98402733     0.04545002    -0.49093263    -0.00033021     0.00014168    -0.00055628
     6
  Step:     4            Position(A)                                  Velocity(au)
C        -0.03306954     0.01483508     0.00546386    -0.00003565     0.00000978    -0.00068877
N        -0.04216239    -0.04577029     1.30957230     0.00009998    -0.00007904     0.00073576
H         0.92289033     0.00796045    -0.55036606     0.00067102     0.00021665    -0.00015233
H         0.80322226    -0.18311791     1.81623673    -0.00059547     0.00032627    -0.00118768
H        -0.97299949    -0.08148011     1.85695682    -0.00062432     0.00033325    -0.00005622
H        -0.98609057     0.04612340    -0.49417036    -0.00041580     0.00010556    -0.00062067
     6
  Step:     5            Position(A)                                  Velocity(au)
C        -0.03325097     0.01492085     0.00138681    -0.00003044     0.00002095    -0.00079142
N        -0.04167599    -0.04619541     1.31386617     0.00007547    -0.00007556     0.00082243
H         0.92655575     0.00903495    -0.55116303     0.00065812     0.00017635    -0.00013695
H         0.80045661    -0.18152441     1.81007371    -0.00039262     0.00025263    -0.00104184
H        -0.97599782    -0.07974750     1.85640280    -0.00046425     0.00029864    -0.00014342
H        -0.98858968     0.04660828    -0.49774296    -0.00048727     0.00007283    -0.00067602
     6
  Step:     6            Position(A)                                  Velocity(au)
C        -0.03340415     0.01506533    -0.00323522    -0.00002533     0.00003100    -0.00088285
N        -0.04133288    -0.04660087     1.31861231     0.00004799    -0.00007159     0.00089622
H         0.93012427     0.00989881    -0.55187142     0.00063386     0.00013930    -0.00011997
H         0.79890662    -0.18034102     1.80478504    -0.00015535     0.00017682    -0.00086796
H        -0.97810243    -0.07819753     1.85538039    -0.00029979     0.00026551    -0.00022460
H        -0.99144657     0.04692388    -0.50160098    -0.00054382     0.00004375    -0.00072165
     6
  Step:     7            Position(A)                                  Velocity(au)
C        -0.03353004     0.01526237    -0.00833867    -0.00002048     0.00003984    -0.00096090
N        -0.04114731    -0.04698401     1.32373904     0.00001862    -0.00006712     0.00095557
H         0.93353837     0.01056943    -0.55248461     0.00059980     0.00010542    -0.00010223
H         0.79874531    -0.17957661     1.80051222     0.00010693     0.00010056    -0.00067236
H        -0.97930033    -0.07682263     1.85392854    -0.00013637     0.00023362    -0.00029678
H        -0.99458049     0.04709018    -0.50569274    -0.00058521     0.00001839    -0.00075734
     6
  Step:     8            Position(A)                                  Velocity(au)
C        -0.03363032     0.01550539    -0.01384876    -0.00001601     0.00004740    -0.00102381
N        -0.04112718    -0.04734225     1.32916693    -0.00001133    -0.00006222     0.00099939
H         0.93674925     0.01106324    -0.55300059     0.00055777     0.00007456    -0.00008462
H         0.80008767    -0.17923035     1.79735854     0.00038183     0.00002585    -0.00046320
H        -0.97960866    -0.07561706     1.85210229     0.00002018     0.00020270    -0.00035710
H        -0.99791041     0.04712699    -0.50996606    -0.00061162    -0.00000332    -0.00078315
     6
  Step:     9            Position(A)                                  Velocity(au)
C        -0.03370743     0.01578749    -0.01968167    -0.00001206     0.00005364    -0.00107042
N        -0.04127282    -0.04767332     1.33481148    -0.00004041    -0.00005696     0.00102728
H         0.93971802     0.01139546    -0.55342213     0.00050982     0.00004650    -0.00006801
H         0.80297575    -0.17929022     1.79538032     0.00065511    -0.00004514    -0.00024977
H        -0.97907679    -0.07457682     1.84997215     0.00016392     0.00017252    -0.00040302
H        -1.00135674     0.04705342    -0.51436939    -0.00062359    -0.00002154    -0.00079934
     6
  Step:    10            Position(A)                                  Velocity(au)
C        -0.03376442     0.01610168    -0.02574811    -0.00000873     0.00005859    -0.00110054
N        -0.04157641    -0.04797544     1.34058663    -0.00006719    -0.00005148     0.00103968
H         0.94241665     0.01158019    -0.55375666     0.00045817     0.00002108    -0.00005323
H         0.80737013    -0.17973213     1.79458203     0.00091212    -0.00011025    -0.00004158
H        -0.97778649    -0.07369923     1.84762210     0.00028931     0.00014295    -0.00043263
H        -1.00484255     0.04688750    -0.51885186    -0.00062196    -0.00003653    -0.00080621
     6
  Step:    11            Position(A)                                  Velocity(au)
C        -0.03380485     0.01644106    -0.03195812    -0.00000610     0.00006233    -0.00111504
N        -0.04202228    -0.04824761     1.34640905    -0.00009039    -0.00004595     0.00103800
H         0.94482889     0.01163061    -0.55401595     0.00040513    -0.00000188    -0.00004099
H         0.81315041    -0.18052011     1.79491655     0.00113983    -0.00016764     0.00015275
H        -0.97584952    -0.07298222     1.84514618     0.00039178     0.00011399    -0.00044485
H        -1.00829464     0.04664597    -0.52336265    -0.00060798    -0.00004856    -0.00080437
     6
  Step:    12            Position(A)                                  Velocity(au)
C        -0.03383269     0.01679920    -0.03822706    -0.00000692     0.00010680    -0.00183394
N        -0.04258803    -0.04848973     1.35220334    -0.00017927    -0.00006665     0.00168377
H         0.94695070     0.01155910    -0.55421538     0.00058004    -0.00003713    -0.00005229
H         0.82012651    -0.18160828     1.79629156     0.00218317    -0.00035497     0.00053665
H        -0.97340191    -0.07242357     1.84264361     0.00076940     0.00014082    -0.00072238
H        -1.01164675     0.04634408    -0.52785392    -0.00095902    -0.00009525    -0.00130676
     6
  Step:    13            Position(A)                                  Velocity(au)
C        -0.03386539     0.01737882    -0.04814278    -0.00000506     0.00009737    -0.00165830
N        -0.04362993    -0.04884263     1.36132774    -0.00018417    -0.00005792     0.00152971
H         0.95028877     0.01138517    -0.55482390     0.00059561    -0.00002435    -0.00015967
H         0.83276816    -0.18369877     1.79976640     0.00223798    -0.00037642     0.00066779
H        -0.96898178    -0.07164141     1.83870227     0.00076790     0.00013412    -0.00065440
H        -1.01717880     0.04582342    -0.53541839    -0.00098208    -0.00008876    -0.00135071
     6
  Step:    14            Position(A)                                  Velocity(au)
C        -0.03389014     0.01790587    -0.05707413    -0.00000222     0.00004831    -0.00081395
N        -0.04468114    -0.04914803     1.36958897    -0.00009991    -0.00002732     0.00075505
H         0.95372003     0.01128233    -0.55603007     0.00033445    -0.00000659    -0.00014326
H         0.84556182    -0.18588639     1.80388123     0.00122364    -0.00021292     0.00041732
H        -0.96467448    -0.07089922     1.83520613     0.00039968     0.00006938    -0.00031009
H        -1.02280844     0.04533529    -0.54320514    -0.00054303    -0.00004583    -0.00075734
     6
  Step:    15            Position(A)                                  Velocity(au)
C        -0.03390488     0.01818219    -0.06162828    -0.00000325     0.00004937    -0.00079730
N        -0.04525216    -0.04929046     1.37377604    -0.00010041    -0.00002334     0.00072683
H         0.95546222     0.01119223    -0.55681730     0.00028392    -0.00002467    -0.00013630
H         0.85261317    -0.18714576     1.80652342     0.00125636    -0.00022961     0.00050817
H        -0.96245861    -0.07059238     1.83362585     0.00037534     0.00003978    -0.00024525
H        -1.02570732     0.04506447    -0.54739722    -0.00048167    -0.00004951    -0.00072621
     6
  Step:    16            Position(A)                                  Velocity(au)
C        -0.03392680     0.01846360    -0.06608154    -0.00000477     0.00005069    -0.00078710
N        -0.04581549    -0.04941166     1.37780025    -0.00009840    -0.00002002     0.00070537
H         0.95692754     0.01100368    -0.55756987     0.00023928    -0.00004200    -0.00013251
H         0.85975541    -0.18848035     1.80962222     0.00127051    -0.00024240     0.00058590
H        -0.96043410    -0.07044978     1.83243547     0.00033671     0.00001130    -0.00017471
H        -1.02825007     0.04477592    -0.55140945    -0.00042226    -0.00005273    -0.00070171
     6
  Step:    17            Position(A)                                  Velocity(au)
C        -0.03395851     0.01875158    -0.07046990    -0.00000676     0.00005218    -0.00078118
N        -0.04635749    -0.04951532     1.38169966    -0.00009378    -0.00001723     0.00068860
H         0.95815010     0.01072038    -0.55830582     0.00019942    -0.00005899    -0.00013159
H         0.86688507    -0.18986871     1.81310491     0.00126387    -0.00025114     0.00065107
H        -0.95867630    -0.07046545     1.83166333     0.00028405    -0.00001675    -0.00009797
H        -1.03045062     0.04447210    -0.55527964    -0.00036361    -0.00005546    -0.00068188
     6
  Step:    18            Position(A)                                  Velocity(au)
C        -0.03400237     0.01904710    -0.07481735    -0.00000915     0.00005373    -0.00077737
N        -0.04686424    -0.04960433     1.38550070    -0.00008650    -0.00001486     0.00067448
H         0.95915764     0.01034402    -0.55904139     0.00016356    -0.00007582    -0.00013324
H         0.87388903    -0.19128879     1.81690302     0.00123424    -0.00025551     0.00070359
H        -0.95725761    -0.07063713     1.83133991     0.00021811    -0.00004480    -0.00001515
H        -1.03231630     0.04415567    -0.55903485    -0.00030491    -0.00005761    -0.00066492
     6
  Step:    19            Position(A)                                  Velocity(au)
C        -0.03406047     0.01935056    -0.07913590    -0.00001188     0.00005525    -0.00077396
N        -0.04732179    -0.04968099     1.38921874    -0.00007664    -0.00001283     0.00066155
H         0.95997347     0.00987516    -0.55979118     0.00013131    -0.00009260    -0.00013726
H         0.88064421    -0.19271715     1.82094847     0.00118059    -0.00025533     0.00074337
H        -0.95624482    -0.07096485     1.83149447     0.00014051    -0.00007304     0.00007289
H        -1.03384975     0.04382990    -0.56269210    -0.00024591    -0.00005906    -0.00064953
     6
  Step:    20            Position(A)                                  Velocity(au)
C        -0.03413456     0.01966181    -0.08342819    -0.00001490     0.00005668    -0.00076982
N        -0.04771686    -0.04974713     1.39286087    -0.00006443    -0.00001109     0.00064882
H         0.96061859     0.00931382    -0.56056851     0.00010256    -0.00010937    -0.00014350
H         0.88702392    -0.19412955     1.82517353     0.00110338    -0.00025060     0.00077067
H        -0.95569438    -0.07144976     1.83215092     0.00005374    -0.00010155     0.00016469
H        -1.03505222     0.04349863    -0.56626129    -0.00018686    -0.00005972    -0.00063497
     6
  Step:    21            Position(A)                                  Velocity(au)
C        -0.03422606     0.01998038    -0.08769058    -0.00001814     0.00005796    -0.00076423
N        -0.04803773    -0.04980423     1.39642889    -0.00005024    -0.00000958     0.00063577
H         0.96111318     0.00865974    -0.56138582     0.00007732    -0.00012619    -0.00015184
H         0.89290565    -0.19550201     1.82951259     0.00100428    -0.00024151     0.00078613
H        -0.95564760    -0.07209335     1.83332458    -0.00003895    -0.00013032     0.00025834
H        -1.03592623     0.04316626    -0.56974823    -0.00012832    -0.00005952    -0.00062090
     6
  Step:    22            Position(A)                                  Velocity(au)
C        -0.03433600     0.02030551    -0.09191555    -0.00002152     0.00005908    -0.00075681
N        -0.04827487    -0.04985353     1.39992159    -0.00003456    -0.00000827     0.00062212
H         0.96147734     0.00791241    -0.56225482     0.00005568    -0.00014308    -0.00016218
H         0.89817725    -0.19681170     1.83390407     0.00088591    -0.00022838     0.00079074
H        -0.95612695    -0.07289706     1.83501994    -0.00013386    -0.00015930     0.00035171
H        -1.03647737     0.04283762    -0.57315684    -0.00007106    -0.00005839    -0.00060726
     6
  Step:    23            Position(A)                                  Velocity(au)
C        -0.03446500     0.02063637    -0.09609345    -0.00002497     0.00006003    -0.00074740
N        -0.04842144    -0.04989602     1.40333629    -0.00001789    -0.00000711     0.00060780
H         0.96173137     0.00707108    -0.56318649     0.00003767    -0.00016012    -0.00017440
H         0.90274185    -0.19803773     1.83829217     0.00075152    -0.00021166     0.00078577
H        -0.95713387    -0.07386204     1.83722957    -0.00022708    -0.00018842     0.00044260
H        -1.03671523     0.04251791    -0.57649062    -0.00001589    -0.00005629    -0.00059416
     6
  Step:    24            Position(A)                                  Velocity(au)
C        -0.03461329     0.02097203    -0.10021369    -0.00002843     0.00006081    -0.00073596
N        -0.04847353    -0.04993251     1.40666984    -0.00000079    -0.00000609     0.00059285
H         0.96189563     0.00613469    -0.56419108     0.00002332    -0.00017736    -0.00018836
H         0.90652117    -0.19916168     1.84262828     0.00060479    -0.00019184     0.00077267
H        -0.95864814    -0.07498905     1.83993397    -0.00031473    -0.00021762     0.00052887
H        -1.03665383     0.04221264    -0.57975361     0.00003635    -0.00005316    -0.00058180
     6
  Step:    25            Position(A)                                  Velocity(au)
C        -0.03478068     0.02131156    -0.10426557    -0.00003181     0.00006141    -0.00072258
N        -0.04843023    -0.04996362     1.40991925     0.00001621    -0.00000516     0.00057735
H         0.96199033     0.00510172    -0.56527798     0.00001256    -0.00019490    -0.00020391
H         0.90945740    -0.20016789     1.84687185     0.00044956    -0.00016945     0.00075298
H        -0.96062865    -0.07627850     1.84310218    -0.00039324    -0.00024684     0.00060859
H        -1.03631160     0.04192761    -0.58295091     0.00008489    -0.00004895    -0.00057044
     6
  Step:    26            Position(A)                                  Velocity(au)
C        -0.03496659     0.02165408    -0.10823870    -0.00003506     0.00006186    -0.00070737
N        -0.04829348    -0.04998979     1.41308195     0.00003262    -0.00000429     0.00056144
H         0.96203515     0.00397015    -0.56645566     0.00000528    -0.00021285    -0.00022088
H         0.91151397    -0.20104360     1.85099093     0.00028968    -0.00014502     0.00072831
H        -0.96301550    -0.07773049     1.84669304    -0.00045950    -0.00027605     0.00068008
H        -1.03571109     0.04166897    -0.58608898     0.00012900    -0.00004361    -0.00056036
     6
  Step:    27            Position(A)                                  Velocity(au)
C        -0.03517010     0.02199876    -0.11212343    -0.00003810     0.00006217    -0.00069051
N        -0.04806791    -0.05001129     1.41615600     0.00004798    -0.00000346     0.00054524
H         0.96204894     0.00273726    -0.56773157     0.00000128    -0.00023136    -0.00023908
H         0.91267537    -0.20177885     1.85496229     0.00012892    -0.00011905     0.00070025
H        -0.96573299    -0.07934497     1.85065690    -0.00051101    -0.00030523     0.00074202
H        -1.03487857     0.04144320    -0.58917571     0.00016809    -0.00003705    -0.00055184
     6
  Step:    28            Position(A)                                  Velocity(au)
C        -0.03538993     0.02234483    -0.11591096    -0.00004089     0.00006234    -0.00067217
N        -0.04776041    -0.05002825     1.41914009     0.00006192    -0.00000264     0.00052887
H         0.96204935     0.00139952    -0.56911209     0.00000032    -0.00025059    -0.00025833
H         0.91294636    -0.20236631     1.85877133    -0.00002921    -0.00009197     0.00067033
H        -0.96869337    -0.08112193     1.85493758    -0.00054600    -0.00033444     0.00079343
H        -1.03384346     0.04125727    -0.59222043     0.00020164    -0.00002920    -0.00054513
     6
  Step:    29            Position(A)                                  Velocity(au)
C        -0.03562449     0.02269160    -0.11959341    -0.00004337     0.00006240    -0.00065252
N        -0.04737980    -0.05004064     1.42203343     0.00007413    -0.00000180     0.00051241
H         0.96205255    -0.00004763    -0.57060248     0.00000214    -0.00027076    -0.00027844
H         0.91235076    -0.20280092     1.86241181    -0.00018140    -0.00006416     0.00064004
H        -0.97180081    -0.08306166     1.85947447    -0.00056338    -0.00036375     0.00083373
H        -1.03263771     0.04111874    -0.59523388     0.00022926    -0.00001990    -0.00054049
     6
  Step:    30            Position(A)                                  Velocity(au)
C        -0.03587199     0.02303847    -0.12316380    -0.00004551     0.00006237    -0.00063171
N        -0.04693643    -0.05004828     1.42483559     0.00008438    -0.00000092     0.00049591
H         0.96207315    -0.00161005    -0.57220697     0.00000644    -0.00029214    -0.00029923
H         0.91093006    -0.20307948     1.86588550    -0.00032464    -0.00003591     0.00061081
H        -0.97495547    -0.08516509     1.86420457    -0.00056281    -0.00039335     0.00086267
H        -1.03129518     0.04103607    -0.59822805     0.00025068    -0.00000898    -0.00053815
     6
  Step:    31            Position(A)                                  Velocity(au)
C        -0.03613042     0.02338490    -0.12661582    -0.00004729     0.00006224    -0.00060981
N        -0.04644175    -0.05005088     1.42754627     0.00009251     0.00000003     0.00047935
H         0.96212412    -0.00329521    -0.57392892     0.00001294    -0.00031506    -0.00032058
H         0.90874185    -0.20320007     1.86920188    -0.00045621    -0.00000735     0.00058395
H        -0.97805733    -0.08743432     1.86906439    -0.00054458    -0.00042348     0.00088033
H        -1.02985096     0.04101887    -0.60121624     0.00026573     0.00000382    -0.00053834
     6
  Step:    32            Position(A)                                  Velocity(au)
C        -0.03639772     0.02373043    -0.12994339    -0.00004870     0.00006203    -0.00058684
N        -0.04590792    -0.05004795     1.43016476     0.00009843     0.00000108     0.00046262
H         0.96221701    -0.00511278    -0.57577101     0.00002144    -0.00034001    -0.00034242
H         0.90585810    -0.20316121     1.87237762    -0.00057371     0.00002153     0.00056075
H        -0.98100981    -0.08987319     1.87399166    -0.00050959    -0.00045458     0.00088708
H        -1.02834087     0.04107852    -0.60421305     0.00027433     0.00001889    -0.00054134
     6
  Step:    33            Position(A)                                  Velocity(au)
C        -0.03667182     0.02407459    -0.13314020    -0.00004975     0.00006175    -0.00056267
N        -0.04534745    -0.05003891     1.43268962     0.00010210     0.00000225     0.00044554
H         0.96236246    -0.00707537    -0.57773585     0.00003187    -0.00036763    -0.00036481
H         0.90236343    -0.20296072     1.87543619    -0.00067505     0.00005102     0.00054238
H        -0.98372285    -0.09248831     1.87892679    -0.00045924    -0.00048727     0.00088348
H        -1.02680102     0.04122894    -0.60723476     0.00027642     0.00003683    -0.00054752
     6
  Step:    34            Position(A)                                  Velocity(au)
C        -0.03695084     0.02441694    -0.13619897    -0.00005051     0.00006138    -0.00053704
N        -0.04477281    -0.05002298     1.43511806     0.00010357     0.00000357     0.00042779
H         0.96257133    -0.00919989    -0.57982688     0.00004449    -0.00039889    -0.00038812
H         0.89835322    -0.20259401     1.87840754    -0.00075847     0.00008180     0.00052999
H        -0.98611547    -0.09529043     1.88381388    -0.00039535    -0.00052249     0.00087027
H        -1.02526775     0.04148799    -0.61030015     0.00027190     0.00005855    -0.00055752
     6
  Step:    35            Position(A)                                  Velocity(au)
C        -0.03723328     0.02475698    -0.13911028    -0.00005106     0.00006091    -0.00050921
N        -0.04419610    -0.04999925     1.43744526     0.00010294     0.00000507     0.00040880
H         0.96285705    -0.01150967    -0.58205043     0.00006026    -0.00043528    -0.00041327
H         0.89393172    -0.20205132     1.88132791    -0.00082257     0.00011524     0.00052474
H        -0.98811783    -0.09829672     1.88860133    -0.00032010    -0.00056175     0.00084825
H        -1.02377837     0.04187979    -0.61343259     0.00026034     0.00008554    -0.00057265
     6
  Step:    36            Position(A)                                  Velocity(au)
C        -0.03751842     0.02509396    -0.14185898    -0.00005163     0.00006024    -0.00047727
N        -0.04362860    -0.04996663     1.43966190     0.00010041     0.00000680     0.00038713
H         0.96324113    -0.01403810    -0.58442048     0.00008192    -0.00047905    -0.00044280
H         0.88921023    -0.20131310     1.88424014    -0.00086616     0.00015368     0.00052798
H        -0.98967342    -0.10153441     1.89324231    -0.00023614    -0.00060726     0.00081832
H        -1.02237399     0.04243881    -0.61666522     0.00024020     0.00012024    -0.00059593
     6
  Step:    37            Position(A)                                  Velocity(au)
C        -0.03780702     0.02542645    -0.14441423    -0.00005254     0.00005913    -0.00043603
N        -0.04308022    -0.04992366     1.44174741     0.00009628     0.00000886     0.00035916
H         0.96376739    -0.01683340    -0.58697130     0.00011669    -0.00053212    -0.00048347
H         0.88430603    -0.20034342     1.88719536    -0.00088820     0.00019971     0.00054143
H        -0.99074204    -0.10504518     1.89769538    -0.00014684    -0.00066068     0.00078186
H        -1.02110898     0.04321601    -0.62005512     0.00020647     0.00016529    -0.00063502
     6
  Step:    38            Position(A)                                  Velocity(au)
C        -0.03810218     0.02575095    -0.14670336    -0.00005394     0.00005709    -0.00037624
N        -0.04255889    -0.04986817     1.44365220     0.00009078     0.00001138     0.00031849
H         0.96453755    -0.01995008    -0.58979190     0.00017648    -0.00058753    -0.00054756
H         0.87934218    -0.19909431     1.89025551    -0.00088815     0.00024769     0.00056596
H        -0.99130488    -0.10887471     1.90192891    -0.00005593    -0.00071429     0.00074215
H        -1.02008005     0.04427526    -0.62372044     0.00014881     0.00021570    -0.00070303
     6
  Step:    39            Position(A)                                  Velocity(au)
C        -0.03840612     0.02606054    -0.14859293    -0.00006179     0.00006049    -0.00033228
N        -0.04207195    -0.04979729     1.44528466     0.00009390     0.00001604     0.00029591
H         0.96572743    -0.02335876    -0.59305278     0.00029199    -0.00070223    -0.00071439
H         0.87444182    -0.19759249     1.89348113    -0.00097287     0.00031296     0.00067115
H        -0.99136319    -0.11297841     1.90593803     0.00003952    -0.00083911     0.00078863
H        -1.01945623     0.04561169    -0.62786327     0.00007278     0.00028468    -0.00089794
     6
  Step:    40            Position(A)                                  Velocity(au)
C        -0.03873160     0.02639443    -0.15038226    -0.00005582     0.00006004    -0.00031600
N        -0.04158307    -0.04970331     1.44688710     0.00008180     0.00001788     0.00028364
H         0.96730200    -0.02712205    -0.59703917     0.00026880    -0.00066795    -0.00071505
H         0.86910316    -0.19603372     1.89722810    -0.00094105     0.00026116     0.00068387
H        -0.99083846    -0.11749196     1.91021780     0.00015008    -0.00080168     0.00074888
H        -1.01913225     0.04704525    -0.63284982     0.00005068     0.00024461    -0.00089372
     6
  Step:    41            Position(A)                                  Velocity(au)
C        -0.03902579     0.02672698    -0.15210064    -0.00005043     0.00005987    -0.00030391
N        -0.04116399    -0.04959884     1.44843311     0.00006887     0.00001986     0.00027369
H         0.96871123    -0.03077318    -0.60099000     0.00023655    -0.00065635    -0.00070629
H         0.86399588    -0.19469356     1.90107225    -0.00089082     0.00022908     0.00070589
H        -0.98969726    -0.12187728     1.91425076     0.00026025    -0.00078730     0.00070208
H        -1.01889365     0.04832696    -0.63778379     0.00003799     0.00022511    -0.00088352
     6
  Step:    42            Position(A)                                  Velocity(au)
C        -0.03929127     0.02705884    -0.15375476    -0.00004541     0.00005978    -0.00029242
N        -0.04081887    -0.04948291     1.44992421     0.00005528     0.00002202     0.00026359
H         0.96992695    -0.03440553    -0.60487677     0.00020010    -0.00065798    -0.00069354
H         0.85921781    -0.19349166     1.90506127    -0.00082419     0.00020813     0.00073563
H        -0.98795053    -0.12622857     1.91800871     0.00036741    -0.00078627     0.00065149
H        -1.01871064     0.04954324    -0.64265417     0.00002955     0.00021787    -0.00087208
     6
  Step:    43            Position(A)                                  Velocity(au)
C        -0.03952948     0.02739009    -0.15534446    -0.00004059     0.00005969    -0.00028082
N        -0.04055079    -0.04935462     1.45135718     0.00004126     0.00002432     0.00025288
H         0.97093092    -0.03807223    -0.60868355     0.00016060    -0.00066737    -0.00067825
H         0.85485306    -0.19238474     1.90923270    -0.00074377     0.00019337     0.00077130
H        -0.98562147    -0.13059946     1.92147788     0.00046946    -0.00079315     0.00059929
H        -1.01856580     0.05074384    -0.64745796     0.00002399     0.00021790    -0.00086010
     6
  Step:    44            Position(A)                                  Velocity(au)
C        -0.03974134     0.02772073    -0.15686889    -0.00003592     0.00005959    -0.00026910
N        -0.04036135    -0.04921319     1.45272843     0.00002710     0.00002676     0.00024155
H         0.97170791    -0.04180611    -0.61239800     0.00011855    -0.00068172    -0.00066088
H         0.85096993    -0.19134729     1.91361445    -0.00065254     0.00018249     0.00081119
H        -0.98274460    -0.13502400     1.92465443     0.00056438    -0.00080532     0.00054708
H        -1.01844459     0.05195954    -0.65219199     0.00002101     0.00022257    -0.00084742
     6