     6
  Step:     0            Position(A)                                  Velocity(au)
C        -0.02929949     0.01236559     0.04636062     0.00000100     0.00011838    -0.00018750
N        -0.04810408    -0.06967748     1.27654597    -0.00013477    -0.00001661     0.00022043
H         0.91704870     0.00890621    -0.51782337    -0.00020713    -0.00052857    -0.00011883
H         0.81953581    -0.00192101     1.75808475     0.00081723     0.00003183     0.00037619
H        -0.92863697     0.02483132     1.89887435     0.00107579    -0.00029050    -0.00140805
H        -1.00327970     0.11932005    -0.53886196     0.00017511    -0.00039256     0.00032175
     6
  Step:     1            Position(A)                                  Velocity(au)
C        -0.02938163     0.01376211     0.04310571    -0.00001470     0.00013644    -0.00039776
N        -0.04982600    -0.06996557     1.28002866    -0.00017152    -0.00003577     0.00040730
H         0.91513915     0.00307714    -0.51997048    -0.00013714    -0.00053866    -0.00027661
H         0.83032574    -0.00120845     1.76393364     0.00109893     0.00009389     0.00065897
H        -0.91508971     0.02159315     1.88231418     0.00133389    -0.00029476    -0.00156474
H        -1.00079899     0.11503715    -0.53561492     0.00026306    -0.00038926     0.00026201
     6
  Step:     2            Position(A)                                  Velocity(au)
C        -0.02962101     0.01535053     0.03765889    -0.00002726     0.00015309    -0.00058338
N        -0.05185642    -0.07045999     1.28545655    -0.00018862    -0.00005416     0.00057097
H         0.91404852    -0.00287800    -0.52387466    -0.00005945    -0.00055164    -0.00043819
H         0.84357705     0.00013296     1.77250088     0.00125823     0.00014609     0.00086815
H        -0.89945563     0.01838280     1.86464273     0.00143111    -0.00028288    -0.00159333
H        -0.99752469     0.11080422    -0.53313004     0.00031614    -0.00038323     0.00018041
     6
  Step:     3            Position(A)                                  Velocity(au)
C        -0.02997791     0.01711135     0.03034323    -0.00003582     0.00016769    -0.00073627
N        -0.05395241    -0.07115043     1.29251983    -0.00018188    -0.00007155     0.00070250
H         0.91383848    -0.00899101    -0.52955662     0.00002123    -0.00056743    -0.00059944
H         0.85785188     0.00198765     1.78292605     0.00128624     0.00018776     0.00099954
H        -0.88378149     0.01540468     1.84745705     0.00131931    -0.00025002    -0.00146279
H        -0.99388284     0.10665323    -0.53166801     0.00032753    -0.00037422     0.00007397
     6
  Step:     4            Position(A)                                  Velocity(au)
C        -0.03040456     0.01901918     0.02155158    -0.00003982     0.00017983    -0.00085195
N        -0.05583529    -0.07202538     1.30082497    -0.00014956    -0.00008789     0.00079630
H         0.91451289    -0.01529154    -0.53698855     0.00009922    -0.00058575    -0.00075575
H         0.87171597     0.00424058     1.79436777     0.00119004     0.00021952     0.00105899
H        -0.87059323     0.01291319     1.83264130     0.00096983    -0.00019296    -0.00115896
H        -0.99035938     0.10261734    -0.53151189     0.00029377    -0.00036230    -0.00005806
     6
  Step:     5            Position(A)                                  Velocity(au)
C        -0.03084898     0.02104552     0.01170511    -0.00003909     0.00018935    -0.00092954
N        -0.05722427    -0.07307326     1.30994044    -0.00009367    -0.00010311     0.00085143
H         0.91600904    -0.02180537    -0.54609001     0.00016831    -0.00060622    -0.00090225
H         0.88388622     0.00679012     1.80609338     0.00098767     0.00024306     0.00105867
H        -0.86256451     0.01118323     1.82210253     0.00039560    -0.00011240    -0.00069819
H        -0.98745597     0.09872724    -0.53293825     0.00021597    -0.00034782    -0.00021353
     6
  Step:     6            Position(A)                                  Velocity(au)
C        -0.03125983     0.02316154     0.00121607    -0.00003396     0.00019631    -0.00097115
N        -0.05788439    -0.07428118     1.31945159    -0.00002070    -0.00011698     0.00087172
H         0.91819503    -0.02855374    -0.55672698     0.00022241    -0.00062843    -0.00103416
H         0.89332314     0.00955788     1.81752815     0.00070333     0.00026079     0.00101374
H        -0.86193868     0.01045423     1.81736710    -0.00033396    -0.00001467    -0.00013399
H        -0.98563451     0.09500806    -0.53618335     0.00010063    -0.00033141    -0.00038714
     6
  Step:     7            Position(A)                                  Velocity(au)
C        -0.03159202     0.02534022    -0.00954057    -0.00002525     0.00020095    -0.00098098
N        -0.05767702    -0.07563233     1.32901101     0.00005911    -0.00012903     0.00086463
H         0.92087468    -0.03555341    -0.56871433     0.00025617    -0.00065199    -0.00114708
H         0.89927299     0.01249538     1.82827092     0.00036384     0.00027570     0.00094004
H        -0.86987045     0.01086230     1.81917120    -0.00110027     0.00008859     0.00045180
H        -0.98525446     0.09147703    -0.54140763    -0.00004023    -0.00031381    -0.00057054
     6
  Step:     8            Position(A)                                  Velocity(au)
C        -0.03181223     0.02755777    -0.02024471    -0.00001637     0.00020794    -0.00107362
N        -0.05659116    -0.07710397     1.33836693     0.00013717    -0.00014538     0.00092486
H         0.92379921    -0.04281725    -0.58182157     0.00020248    -0.00073329    -0.00115319
H         0.90128281     0.01558936     1.83809335    -0.00006856     0.00037474     0.00082633
H        -0.88600919     0.01239221     1.82725106    -0.00174050     0.00010771     0.00093135
H        -0.98651454     0.08814297    -0.54866508    -0.00010438    -0.00020672    -0.00066334
     6
  Step:     9            Position(A)                                  Velocity(au)
C        -0.03195013     0.02988937    -0.03302815    -0.00000862     0.00021715    -0.00125144
N        -0.05467627    -0.07881286     1.34924409     0.00020383    -0.00016505     0.00105798
H         0.92530426    -0.05159545    -0.59394264     0.00006763    -0.00084751    -0.00105511
H         0.89777318     0.02069354     1.84634852    -0.00056144     0.00053236     0.00068731
H        -0.90794711     0.01321861     1.83954623    -0.00214987     0.00005347     0.00124167
H        -0.98753787     0.08695469    -0.55591937    -0.00008597    -0.00003240    -0.00066372
     6
  Step:    10            Position(A)                                  Velocity(au)
C        -0.03200077     0.03230842    -0.04762244    -0.00000038     0.00022361    -0.00140096
N        -0.05213209    -0.08071464     1.36151232     0.00024986    -0.00018067     0.00117563
H         0.92527871    -0.06135812    -0.60490416    -0.00007027    -0.00092492    -0.00094897
H         0.88900018     0.02723565     1.85312948    -0.00100636     0.00065380     0.00056930
H        -0.93304166     0.01356207     1.85441497    -0.00231291     0.00000673     0.00140498
H        -0.98839524     0.08743415    -0.56318532    -0.00007810     0.00011052    -0.00066840
     6
  Step:    11            Position(A)                                  Velocity(au)
C        -0.03195837     0.03478129    -0.06367693     0.00000818     0.00022699    -0.00151834
N        -0.04921000    -0.08276541     1.37496333     0.00027210    -0.00019267     0.00127305
H         0.92376700    -0.07182987    -0.61470322    -0.00019765    -0.00098208    -0.00084805
H         0.87575719     0.03499672     1.85880311    -0.00135634     0.00076379     0.00049632
H        -0.95854643     0.01336574     1.87028282    -0.00223772    -0.00004846     0.00143527
H        -0.98924637     0.08937254    -0.57054192    -0.00008678     0.00023927    -0.00068178
     6
  Step:    12            Position(A)                                  Velocity(au)
C        -0.03182187     0.03727430    -0.08083901     0.00001649     0.00022742    -0.00160470
N        -0.04617947    -0.08492959     1.38936282     0.00026975    -0.00020203     0.00134863
H         0.92095467    -0.08284303    -0.62345686    -0.00030222    -0.00102698    -0.00076222
H         0.85932757     0.04394510     1.86398748    -0.00156866     0.00087807     0.00049033
H        -0.98199609     0.01250193     1.88581421    -0.00195966    -0.00011493     0.00135835
H        -0.99029373     0.09266859    -0.57810056    -0.00011448     0.00036137    -0.00070587
     6
  Step:    13            Position(A)                                  Velocity(au)
C        -0.03159756     0.03975663    -0.09878282     0.00002381     0.00022524    -0.00166304
N        -0.04330866    -0.08718527     1.40446724     0.00024363    -0.00021010     0.00140208
H         0.91715543    -0.09429698    -0.63137817    -0.00037316    -0.00106490    -0.00069925
H         0.84143969     0.05420626     1.86952995    -0.00160875     0.00101028     0.00056911
H        -1.00141770     0.01085150     1.89999923    -0.00152656    -0.00019074     0.00120408
H        -0.99175079     0.09727814    -0.58598409    -0.00016078     0.00048101    -0.00074091
     6
  Step:    14            Position(A)                                  Velocity(au)
C        -0.03130090     0.04220194    -0.11722124     0.00002927     0.00022090    -0.00169702
N        -0.04084959    -0.08952598     1.42003605     0.00019606    -0.00021823     0.00143423
H         0.91279116    -0.10613977    -0.63875435    -0.00040211    -0.00109990    -0.00066470
H         0.82413318     0.06604697     1.87643789    -0.00146053     0.00117194     0.00074086
H        -1.01539258     0.00832906     1.91215584    -0.00098817    -0.00027231     0.00100068
H        -0.99381117     0.10319169    -0.59430938    -0.00022247     0.00060066    -0.00078562
     6
  Step:    15            Position(A)                                  Velocity(au)
C        -0.03095716     0.04458915    -0.13590843     0.00003202     0.00021485    -0.00171026
N        -0.03901942    -0.09195944     1.43584373     0.00013144    -0.00022747     0.00144699
H         0.90835846    -0.11835950    -0.64591979    -0.00038438    -0.00113524    -0.00066143
H         0.80948781     0.07984468     1.88573773    -0.00113830     0.00136992     0.00099789
H        -1.02303576     0.00489415     1.92189113    -0.00039154    -0.00035549     0.00077260
H        -0.99661776     0.11041881    -0.60317106    -0.00029373     0.00072161    -0.00083743
     6
  Step:    16            Position(A)                                  Velocity(au)
C        -0.03060041     0.04690226    -0.15463641     0.00003137     0.00020753    -0.00170589
N        -0.03797416    -0.09450232     1.45169168     0.00005668    -0.00023824     0.00144321
H         0.90438215    -0.13097534    -0.65322439    -0.00031998    -0.00117320    -0.00068926
H         0.79923067     0.09601667     1.89826872    -0.00069313     0.00160271     0.00131308
H        -1.02395819     0.00055206     1.92905794     0.00021857    -0.00043607     0.00054112
H        -1.00023716     0.11897839    -0.61262974    -0.00036684     0.00084437    -0.00089293
     6
  Step:    17            Position(A)                                  Velocity(au)
C        -0.03027081     0.04912922    -0.17322802     0.00002700     0.00019921    -0.00168645
N        -0.03777946    -0.09717147     1.46741680    -0.00001898    -0.00025013     0.00142628
H         0.90135823    -0.14402551    -0.66099868    -0.00021456    -0.00121477    -0.00074476
H         0.79432432     0.11490692     1.91446396    -0.00020698     0.00185785     0.00164269
H        -1.01825419    -0.00464566     1.93372924     0.00079679    -0.00050970     0.00032625
H        -1.00464309     0.12889102    -0.62270563    -0.00043309     0.00096879    -0.00094842
     6
  Step:    18            Position(A)                                  Velocity(au)
C        -0.03000984     0.05126037    -0.19153074     0.00001902     0.00019005    -0.00165417
N        -0.03838937    -0.09997449     1.48289419    -0.00008520    -0.00026202     0.00139950
H         0.89968830    -0.15755075    -0.66951738    -0.00007953    -0.00125929    -0.00082139
H         0.79470261     0.13666067     1.93420561     0.00022688     0.00211329     0.00193640
H        -1.00652689    -0.01059871     1.93619537     0.00129402    -0.00057174     0.00014857
H        -1.00971174     0.14017258    -0.63337815    -0.00048389     0.00109421    -0.00100038
     6
  Step:    19            Position(A)                                  Velocity(au)
C        -0.02985480     0.05328702    -0.20941621     0.00000805     0.00018008    -0.00161125
N        -0.03964337    -0.10290371     1.49803358    -0.00013228    -0.00027250     0.00136546
H         0.89961839    -0.17157478    -0.67896818     0.00006893    -0.00130432    -0.00091032
H         0.79928771     0.16113909     1.95682637     0.00052926     0.00234283     0.00215075
H        -0.98994493    -0.01715350     1.93697958     0.00165595    -0.00061713     0.00003023
H        -1.01522919     0.15282903    -0.64459075    -0.00051184     0.00121955    -0.00104591
     6
  Step:    20            Position(A)                                  Velocity(au)
C        -0.02983363     0.05520005    -0.22677983    -0.00000487     0.00016921    -0.00155975
N        -0.04128319    -0.10593603     1.51276623    -0.00015271    -0.00028039     0.00132536
H         0.90119627    -0.18608522    -0.68943243     0.00021207    -0.00134592    -0.00100168
H         0.80628109     0.18791466     1.98125729     0.00065359     0.00252347     0.00225916
H        -0.97029974    -0.02409952     1.93685669     0.00182605    -0.00064082    -0.00000622
H        -1.02090931     0.16685262    -0.65625933    -0.00051146     0.00134346    -0.00108296
     6
  Step:    21            Position(A)                                  Velocity(au)
C        -0.02996145     0.05698875    -0.24353875    -0.00001856     0.00015726    -0.00150154
N        -0.04298410    -0.10903787     1.52702847    -0.00014224    -0.00028505     0.00127921
H         0.90425773    -0.20101926    -0.70088178     0.00033136    -0.00137922    -0.00108600
H         0.81358634     0.21634474     2.00624979     0.00059034     0.00264070     0.00225468
H        -0.94999667    -0.03117267     1.93684361     0.00175576    -0.00063874     0.00005782
H        -1.02641832     0.18221984    -0.66828267    -0.00047958     0.00146447    -0.00111044
     6
  Step:    22            Position(A)                                  Velocity(au)
C        -0.03023966     0.05864041    -0.25962895    -0.00003180     0.00014407    -0.00143817
N        -0.04439496    -0.11217197     1.54075142    -0.00010063    -0.00028635     0.00122663
H         0.90844551    -0.21625840    -0.71319082     0.00041134    -0.00139934    -0.00115559
H         0.81919588     0.24568495     2.03058268     0.00035911     0.00269021     0.00214611
H        -0.93188919    -0.03807313     1.93812156     0.00142240    -0.00060933     0.00022919
H        -1.03140096     0.19889075    -0.68055228    -0.00041541     0.00158102    -0.00112806
     6
  Step:    23            Position(A)                                  Velocity(au)
C        -0.03065720     0.06014052    -0.27500150    -0.00004361     0.00012951    -0.00137085
N        -0.04518554    -0.11530241     1.55386329    -0.00003216    -0.00028453     0.00116797
H         0.91325661    -0.23163249    -0.72616262     0.00044149    -0.00140222    -0.00120528
H         0.82144246     0.27519824     2.05320010    -0.00000387     0.00267625     0.00195146
H        -0.91887895    -0.04450293     1.94185759     0.00084932    -0.00055525     0.00049465
H        -1.03550622     0.21680774    -0.69296122    -0.00032030     0.00169181    -0.00113630
     6
  Step:    24            Position(A)                                  Velocity(au)
C        -0.03119366     0.06147376    -0.28961894    -0.00005328     0.00011358    -0.00130048
N        -0.04509852    -0.11839652     1.56630308     0.00005437    -0.00027985     0.00110506
H         0.91810393    -0.24693456    -0.73955865     0.00041702    -0.00138528    -0.00123262
H         0.81911113     0.30423302     2.07327457    -0.00045678     0.00260878     0.00169205
H        -0.91330876    -0.05022023     1.94894299     0.00011640    -0.00048391     0.00081689
H        -1.03840805     0.23590243    -0.70541098    -0.00019731     0.00179588    -0.00113614
     6
  Step:    25            Position(A)                                  Velocity(au)
C        -0.03182271     0.06262522    -0.30345193    -0.00006043     0.00009636    -0.00122767
N        -0.04399599    -0.12142458     1.57803864     0.00014704    -0.00027259     0.00104099
H         0.92237978    -0.26193810    -0.75312857     0.00033857    -0.00134762    -0.00123762
H         0.81144956     0.33227033     2.09021700    -0.00095897     0.00250105     0.00138904
H        -0.91633254    -0.05508928     1.95972865    -0.00065188    -0.00040606     0.00114046
H        -1.03982281     0.25609607    -0.71781641    -0.00005085     0.00189251    -0.00112895
     6
  Step:    26            Position(A)                                  Velocity(au)
C        -0.03251570     0.06358175    -0.31647653    -0.00006500     0.00007806    -0.00115282
N        -0.04188175    -0.12436003     1.58907678     0.00023345    -0.00026315     0.00097912
H         0.92551078    -0.27641634    -0.76663398     0.00021129    -0.00129008    -0.00122223
H         0.79813194     0.35894832     2.10366258    -0.00147364     0.00236820     0.00106219
H        -0.92756982    -0.05910347     1.97389267    -0.00132106    -0.00033276     0.00140713
H        -1.03952045     0.27730472    -0.73010890     0.00011386     0.00198128    -0.00111624
     6
  Step:    27            Position(A)                                  Velocity(au)
C        -0.03324462     0.06433294    -0.32867212    -0.00006713     0.00005896    -0.00107617
N        -0.03888879    -0.12718144     1.59945879     0.00030369    -0.00025217     0.00092180
H         0.92700226    -0.29016100    -0.77986715     0.00004361    -0.00121493    -0.00118968
H         0.77921077     0.38407921     2.11345441    -0.00196810     0.00222696     0.00073000
H        -0.94523327    -0.06236909     1.99051233    -0.00178683    -0.00027243     0.00157313
H        -1.03733185     0.29944040    -0.74223636     0.00029111     0.00206205    -0.00109955
     6
  Step:    28            Position(A)                                  Velocity(au)
C        -0.03398430     0.06487167    -0.34001974    -0.00006717     0.00003938    -0.00099781
N        -0.03523789    -0.12987672     1.60924302     0.00035199    -0.00024073     0.00086965
H         0.92646489    -0.30299528    -0.79266040    -0.00015414    -0.00112557    -0.00114386
H         0.75507589     0.40766732     2.11963279    -0.00241302     0.00209592     0.00041035
H        -0.96666017    -0.06506343     2.00830789    -0.00199875    -0.00022945     0.00161878
H        -1.03315181     0.32241608    -0.75416376     0.00047511     0.00213513    -0.00108036
     6
  Step:    29            Position(A)                                  Velocity(au)
C        -0.03471418     0.06519446    -0.35050107    -0.00006561     0.00001965    -0.00091777
N        -0.03118840    -0.13244787     1.61848407     0.00037660    -0.00023028     0.00082159
H         0.92363017    -0.31478503    -0.80489117    -0.00037054    -0.00102628    -0.00108900
H         0.72642133     0.42993158     2.12243157    -0.00278219     0.00199581     0.00012074
H        -0.98895973    -0.06738884     2.02592622    -0.00195912    -0.00020472     0.00154721
H        -1.02693785     0.34615040    -0.76587127     0.00066033     0.00220120    -0.00105992
     6
  Step:    30            Position(A)                                  Velocity(au)
C        -0.03541957     0.06530151    -0.36009775    -0.00006301     0.00000010    -0.00083603
N        -0.02699902    -0.13491464     1.62721696     0.00037867    -0.00022250     0.00077553
H         0.91835860    -0.32544705    -0.81648441    -0.00059370    -0.00092198    -0.00102950
H         0.69421006     0.45132938     2.12227420    -0.00305378     0.00194874    -0.00012243
H        -1.00951975    -0.06954213     2.04215598    -0.00170557    -0.00019722     0.00137629
H        -1.01870586     0.37057159    -0.77735152     0.00084176     0.00226130    -0.00103920
     6
  Step:    31            Position(A)                                  Velocity(au)
C        -0.03609264     0.06519660    -0.36879094    -0.00006005    -0.00001895    -0.00075254
N        -0.02290418    -0.13731555     1.63545029     0.00036098    -0.00021897     0.00072912
H         0.91064181    -0.33495508    -0.82741337    -0.00081171    -0.00081808    -0.00096975
H         0.65961415     0.47256392     2.11975316    -0.00321331     0.00197569    -0.00030612
H        -1.02627224    -0.07170344     2.05603517    -0.00129086    -0.00020555     0.00112980
H        -1.00852269     0.39562056    -0.78860583     0.00101523     0.00231666    -0.00101878
     6
  Step:    32            Position(A)                                  Velocity(au)
C        -0.03673330     0.06488695    -0.37656107    -0.00005747    -0.00003719    -0.00066723
N        -0.01910188    -0.13970504     1.64316793     0.00032723    -0.00022075     0.00068049
H         0.90060081    -0.34334415    -0.83769961    -0.00101299    -0.00072031    -0.00091416
H         0.62391274     0.49455141     2.11557732    -0.00325811     0.00209137    -0.00042417
H        -1.03775977    -0.07403896     2.06687250    -0.00076895    -0.00022886     0.00083142
H        -0.99649585     0.42125285    -0.79963933     0.00117758     0.00236862    -0.00099874
     6
  Step:    33            Position(A)                                  Velocity(au)
C        -0.03734983     0.06438305    -0.38338788    -0.00005604    -0.00005432    -0.00058005
N        -0.01574537    -0.14214497     1.65033736     0.00028190    -0.00022788     0.00062866
H         0.88848077    -0.35071322    -0.84741228    -0.00118663    -0.00063452    -0.00086696
H         0.58833669     0.51831657     2.11047359    -0.00320096     0.00229723    -0.00048106
H        -1.04309449    -0.07671008     2.07422413    -0.00018891    -0.00026712     0.00050233
H        -0.98276081     0.44743875    -0.81045514     0.00132693     0.00241847    -0.00097857
     6
  Step:    34            Position(A)                                  Velocity(au)
C        -0.03795925     0.06369850    -0.38925074    -0.00005655    -0.00007009    -0.00049099
N        -0.01293473    -0.14469036     1.65692112     0.00023022    -0.00023890     0.00057368
H         0.87464111    -0.35722546    -0.85666599    -0.00132295    -0.00056643    -0.00083208
H         0.55388555     0.54480778     2.10505329    -0.00307029     0.00257536    -0.00049352
H        -1.04189254    -0.07988279     2.07786193     0.00040535    -0.00032109     0.00016124
H        -0.96746672     0.47416149    -0.82104739     0.00146269     0.00246719    -0.00095710
     6
  Step:    35            Position(A)                                  Velocity(au)
C        -0.03858701     0.06284974    -0.39412925    -0.00005972    -0.00008424    -0.00040013
N        -0.01070894    -0.14737136     1.66288777     0.00017796    -0.00025081     0.00051637
H         0.85953860    -0.36310491    -0.86561564    -0.00141420    -0.00052126    -0.00081279
H         0.52116825     0.57465746     2.09967695    -0.00290489     0.00288695    -0.00048821
H        -1.03422669    -0.08373465     2.07775150     0.00097236    -0.00039196    -0.00017426
H        -0.95076173     0.50141332    -0.83139343     0.00158557     0.00251536    -0.00093239
     6
  Step:    36            Position(A)                                  Velocity(au)
C        -0.03926583     0.06185567    -0.39800443    -0.00006610    -0.00009658    -0.00030769
N        -0.00904162    -0.15017724     1.66821768     0.00013101    -0.00025951     0.00045770
H         0.84370270    -0.36862911    -0.87444743    -0.00145546    -0.00050325    -0.00081120
H         0.49033558     0.60796523     2.09437268    -0.00274406     0.00317847    -0.00049501
H        -1.02062029    -0.08845758     2.07404959     0.00146933    -0.00048099    -0.00048597
H        -0.93277929     0.52918989    -0.84144531     0.00169743     0.00256298    -0.00090177
     6
  Step:    37            Position(A)                                  Velocity(au)
C        -0.04003313     0.06073681    -0.40086050    -0.00007593    -0.00010704    -0.00021407
N        -0.00784290    -0.15304874     1.67290079     0.00009482    -0.00026077     0.00039812
H         0.82769767    -0.37411443    -0.88336213    -0.00144583    -0.00051490    -0.00082745
H         0.46113659     0.64419262     2.08884756    -0.00261739     0.00339420    -0.00053856
H        -1.00208221    -0.09425720     2.06712000     0.00184951    -0.00058939    -0.00075386
H        -0.91362711     0.55748343    -0.85112132     0.00180095     0.00260942    -0.00086174
     6
  Step:    38            Position(A)                                  Velocity(au)
C        -0.04092696     0.05951396    -0.40268762    -0.00008904    -0.00011567    -0.00011998
N        -0.00696726    -0.15588216     1.67692738     0.00007393    -0.00025112     0.00033713
H         0.81207232    -0.37989361    -0.89254955    -0.00138928    -0.00055647    -0.00085908
H         0.43307506     0.68221978     2.08259068    -0.00253874     0.00348964    -0.00063195
H        -0.98015861    -0.10135169     2.05755741     0.00206248    -0.00071853    -0.00095614
H        -0.89337997     0.58627587    -0.86029763     0.00189925     0.00265347    -0.00080812
     6
  Step:    39            Position(A)                                  Velocity(au)
C        -0.04198106     0.05820621    -0.40348528    -0.00010479    -0.00012275    -0.00002646
N        -0.00622548    -0.15854253     1.68027625     0.00007157    -0.00022843     0.00027330
H         0.79730453    -0.38628838    -0.90215611    -0.00129477    -0.00062557    -0.00090037
H         0.40559672     0.72053509     2.07502235    -0.00250634     0.00344005    -0.00077505
H        -0.95696143    -0.10997637     2.04620260     0.00205983    -0.00087082    -0.00107135
H        -0.87207730     0.61553307    -0.86880044     0.00199543     0.00269347    -0.00073594
     6
  Step:    40            Position(A)                                  Velocity(au)
C        -0.04321937     0.05682847    -0.40326640    -0.00012204    -0.00012878     0.00006507
N        -0.00540149    -0.16087951     1.68290642     0.00008900    -0.00019182     0.00020482
H         0.78374671    -0.39357922    -0.91224678    -0.00117568    -0.00071721    -0.00094213
H         0.37824405     0.75747749     2.06563506    -0.00250709     0.00324134    -0.00095683
H        -0.93509579    -0.12040259     2.03411948     0.00180836    -0.00105141    -0.00108325
H        -0.84972604     0.64520069    -0.87639780     0.00209207     0.00272746    -0.00063948
     6
  Step:    41            Position(A)                                  Velocity(au)
C        -0.04465098     0.05538889    -0.40206164    -0.00013928    -0.00013446     0.00015283
N        -0.00427853    -0.16273897     1.68475702     0.00012447    -0.00014117     0.00013026
H         0.77158423    -0.40197866    -0.92276708    -0.00104799    -0.00082437    -0.00097207
H         0.35074935     0.79144561     2.05408989    -0.00252174     0.00290506    -0.00115971
H        -0.91740012    -0.13297796     2.02250446     0.00130915    -0.00126983    -0.00098746
H        -0.82630930     0.67520145    -0.88279021     0.00219057     0.00275311    -0.00051206
     6
  Step:    42            Position(A)                                  Velocity(au)
C        -0.04626631     0.05388701    -0.39992304    -0.00015469    -0.00014056     0.00023478
N        -0.00267838    -0.16396791     1.68575618     0.00017229    -0.00007664     0.00004930
H         0.76081984    -0.41161398    -0.93351265    -0.00092776    -0.00093917    -0.00097581
H         0.32307621     0.82103132     2.04026411    -0.00252816     0.00245149    -0.00136355
H        -0.90645563    -0.14818263     2.01251693     0.00061475    -0.00153966    -0.00079713
H        -0.80180324     0.70543020    -0.88760014     0.00229040     0.00276731    -0.00034624
     6
  Step:    43            Position(A)                                  Velocity(au)
C        -0.04803520     0.05231379    -0.39692535    -0.00016643    -0.00014769     0.00030910
N        -0.00050936    -0.16441557     1.68583546     0.00022277     0.00000124    -0.00003712
H         0.75128774    -0.42252491    -0.94411483    -0.00082848    -0.00105382    -0.00093910
H         0.29544095     0.84507665     2.02425958    -0.00250322     0.00190466    -0.00154903
H        -0.90395129    -0.16666102     2.00506561    -0.00016871    -0.00187324    -0.00054418
H        -0.77620249     0.73574170    -0.89036479     0.00238804     0.00276503    -0.00013509
     6
  Step:    44            Position(A)                                  Velocity(au)
C        -0.04990728     0.05065597    -0.39316098    -0.00017284    -0.00015580     0.00037487
N         0.00219508    -0.16394072     1.68494413     0.00026429     0.00009048    -0.00012689
H         0.74269527    -0.43466822    -0.95405733    -0.00075933    -0.00116099    -0.00085157
H         0.26831346     0.86269944     2.00637610    -0.00242610     0.00129221    -0.00170133
H        -0.91014649    -0.18916333     2.00061199    -0.00090392    -0.00227032    -0.00027463
H        -0.74956031     0.76592060    -0.89055556     0.00247640     0.00273820     0.00012380
     6