     6
  Step:     0            Position(A)                                  Velocity(au)
C        -0.04841149     0.00720403     0.03919076     0.00002619     0.00002893     0.00005271
N        -0.03676061    -0.06775401     1.27854747    -0.00015998    -0.00003482    -0.00004959
H         0.93318545     0.04539544    -0.48459304     0.00046547    -0.00028809    -0.00025759
H         0.77485657    -0.02540384     1.82818990     0.00059528     0.00046589     0.00102519
H        -0.90354579     0.03384482     1.87495442     0.00149333    -0.00018048    -0.00049209
H        -0.92972150     0.13207637    -0.56065448    -0.00064301     0.00014187    -0.00021445
     6
  Step:     1            Position(A)                                  Velocity(au)
C        -0.04822409     0.00735914     0.03901655     0.00004199     0.00002793    -0.00011652
N        -0.03770776    -0.06798949     1.27866688    -0.00018381    -0.00005137     0.00009306
H         0.93580232     0.04395613    -0.48599598     0.00048808    -0.00023862    -0.00025264
H         0.77891080    -0.02266279     1.83414996     0.00086891     0.00053556     0.00114102
H        -0.89529046     0.03296820     1.87206262     0.00150844    -0.00013820    -0.00055579
H        -0.93371899     0.13307554    -0.56190315    -0.00081147     0.00022241    -0.00023733
     6
  Step:     2            Position(A)                                  Velocity(au)
C        -0.04795215     0.00750952     0.03791616     0.00005694     0.00002714    -0.00028493
N        -0.03877132    -0.06831596     1.27956548    -0.00020213    -0.00006802     0.00023441
H         0.93852451     0.04278517    -0.48735670     0.00050355    -0.00018977    -0.00024232
H         0.78436155    -0.01954534     1.84067146     0.00110296     0.00060301     0.00122867
H        -0.88704499     0.03233305     1.86887465     0.00148726    -0.00009181    -0.00059836
H        -0.93859819     0.13450932    -0.56325063    -0.00096330     0.00030050    -0.00025011
     6
  Step:     3            Position(A)                                  Velocity(au)
C        -0.04760109     0.00765606     0.03589884     0.00007070     0.00002644    -0.00045022
N        -0.03991951    -0.06873377     1.28123177    -0.00021423    -0.00008461     0.00037239
H         0.94131217     0.04187970    -0.48864744     0.00051116    -0.00014126    -0.00022712
H         0.79097947    -0.01606458     1.84759411     0.00129237     0.00066723     0.00128542
H        -0.87901681     0.03196357     1.86551531     0.00142560    -0.00004071    -0.00061604
H        -0.94425951     0.13636361    -0.56463988    -0.00109454     0.00037548    -0.00025220
     6
  Step:     4            Position(A)                                  Velocity(au)
C        -0.04717800     0.00779901     0.03298629     0.00008295     0.00002572    -0.00060961
N        -0.04111713    -0.06924240     1.28364307    -0.00021952    -0.00010091     0.00050454
H         0.94412171     0.04123836    -0.48984364     0.00051021    -0.00009296    -0.00020772
H         0.79851288    -0.01223924     1.85474667     0.00143333     0.00072683     0.00130962
H        -0.87143482     0.03188730     1.86212911     0.00131999     0.00001552    -0.00060545
H        -0.95058331     0.13862083    -0.56601217    -0.00120136     0.00044643    -0.00024355
     6
  Step:     5            Position(A)                                  Velocity(au)
C        -0.04669165     0.00793803     0.02921519     0.00009336     0.00002488    -0.00075983
N        -0.04232634    -0.06984009     1.28676346    -0.00021762    -0.00011661     0.00062804
H         0.94690607     0.04086051    -0.49092485     0.00050013    -0.00004492    -0.00018501
H         0.80669429    -0.00809571     1.86195254     0.00152334     0.00078007     0.00130073
H        -0.86454465     0.03213371     1.85887724     0.00116849     0.00007688    -0.00056421
H        -0.95743099     0.14125822    -0.56731008    -0.00128028     0.00051206    -0.00022471
     6
  Step:     6            Position(A)                                  Velocity(au)
C        -0.04615249     0.00807227     0.02463962     0.00010162     0.00002384    -0.00089727
N        -0.04350765    -0.07052336     1.29054200    -0.00020840    -0.00013134     0.00073984
H         0.94961553     0.04074494    -0.49187601     0.00048071     0.00000252    -0.00016016
H         0.81524662    -0.00367022     1.86903507     0.00156139     0.00082493     0.00125944
H        -0.85859907     0.03273177     1.85593128     0.00097163     0.00014282    -0.00049156
H        -0.96464702     0.14424581    -0.56848056    -0.00132857     0.00057080    -0.00019678
     6
  Step:     7            Position(A)                                  Velocity(au)
C        -0.04557247     0.00820059     0.01933302     0.00010749     0.00002257    -0.00101820
N        -0.04462159    -0.07128657     1.29491169    -0.00019214    -0.00014464     0.00083691
H         0.95220037     0.04088830    -0.49268873     0.00045236     0.00004876    -0.00013452
H         0.82389074     0.00098969     1.87582353     0.00154824     0.00085931     0.00118775
H        -0.85384349     0.03370667     1.85346339     0.00073327     0.00021217    -0.00038900
H        -0.97206331     0.14754478    -0.56947736    -0.00134459     0.00062089    -0.00016124
     6
  Step:     8            Position(A)                                  Velocity(au)
C        -0.04496479     0.00832164     0.01338862     0.00011080     0.00002105    -0.00111920
N        -0.04563080    -0.07212162     1.29978974    -0.00016956    -0.00015608     0.00091661
H         0.95461403     0.04128372    -0.49336240     0.00041619     0.00009300    -0.00010962
H         0.83235451     0.00582502     1.88215951     0.00148680     0.00088141     0.00108902
H        -0.85049648     0.03507621     1.85163284     0.00046112     0.00028313    -0.00026075
H        -0.97950458     0.15110656    -0.57026220    -0.00132816     0.00066068    -0.00011977
     6
  Step:     9            Position(A)                                  Velocity(au)
C        -0.04434341     0.00843406     0.00691779     0.00011151     0.00001929    -0.00119772
N        -0.04650246    -0.07301796     1.30507964    -0.00014182    -0.00016528     0.00097717
H         0.95681709     0.04191991    -0.49390471     0.00037405     0.00013441    -0.00008698
H         0.84038377     0.01076707     1.88790401     0.00138238     0.00089012     0.00096811
H        -0.84872831     0.03684737     1.85057092     0.00016653     0.00035348    -0.00011362
H        -0.98679646     0.15487363    -0.57080593    -0.00128104     0.00068901    -0.00007443
     6
  Step:    10            Position(A)                                  Velocity(au)
C        -0.04372243     0.00853655     0.00004505     0.00010976     0.00001733    -0.00125278
N        -0.04721073    -0.07396300     1.31067615    -0.00011048    -0.00017205     0.00101818
H         0.95878122     0.04278110    -0.49433147     0.00032843     0.00017232    -0.00006799
H         0.84775532     0.01574163     1.89294501     0.00124273     0.00088548     0.00083113
H        -0.84864125     0.03901423     1.85036698    -0.00013657     0.00042096     0.00004360
H        -0.99377640     0.15878262    -0.57109137    -0.00120718     0.00070561    -0.00002752
     6
  Step:    11            Position(A)                                  Velocity(au)
C        -0.04311521     0.00862797    -0.00710050     0.00010583     0.00001521    -0.00128545
N        -0.04773874    -0.07494311     1.31647281    -0.00007734    -0.00017642     0.00104099
H         0.96049211     0.04384807    -0.49466550     0.00028212     0.00020642    -0.00005369
H         0.85428962     0.02067544     1.89720418     0.00107746     0.00086893     0.00068500
H        -0.85025648     0.04155780     1.85105876    -0.00043359     0.00048370     0.00020146
H        -1.00030450     0.16276927    -0.57111386    -0.00111232     0.00071138     0.00001880
     6
  Step:    12            Position(A)                                  Velocity(au)
C        -0.04253344     0.00870740    -0.01439641     0.00010018     0.00001298    -0.00129899
N        -0.04807964    -0.07594500     1.32237120    -0.00004414    -0.00017873     0.00104868
H         0.96195069     0.04510015    -0.49493465     0.00023784     0.00023692    -0.00004473
H         0.85986014     0.02550373     1.90064068     0.00089689     0.00084319     0.00053655
H        -0.85351243     0.04444840     1.85263030    -0.00071167     0.00054065     0.00035138
H        -1.00627290     0.16677463    -0.57088019    -0.00100338     0.00070832     0.00006279
     6
  Step:    13            Position(A)                                  Velocity(au)
C        -0.04198633     0.00877418    -0.02173867     0.00009330     0.00001068    -0.00129825
N        -0.04823615    -0.07695717     1.32829030    -0.00001233    -0.00017950     0.00104557
H         0.96317226     0.04651790    -0.49516954     0.00019781     0.00026451    -0.00004132
H         0.86439658     0.03017726     1.90325048     0.00071050     0.00081174     0.00039156
H        -0.85827628     0.04765033     1.85501839    -0.00096154     0.00059170     0.00048687
H        -1.01161153     0.17075126    -0.57040623    -0.00088725     0.00069923     0.00010335
     6
  Step:    14            Position(A)                                  Velocity(au)
C        -0.04148026     0.00882795    -0.02905049     0.00008569     0.00000835    -0.00128845
N        -0.04821882    -0.07797112     1.33417310     0.00001706    -0.00017933     0.00103614
H         0.96418354     0.04808580    -0.49540111     0.00016354     0.00029019    -0.00004333
H         0.86787999     0.03466630     1.90506048     0.00052573     0.00077800     0.00025412
H        -0.86436582     0.05112728     1.85812585    -0.00117786     0.00063744     0.00060397
H        -1.01628774     0.17466721    -0.56971356    -0.00076961     0.00068696     0.00013996
     6
  Step:    15            Position(A)                                  Velocity(au)
C        -0.04101901     0.00886848    -0.03628388     0.00007767     0.00000600    -0.00127375
N        -0.04804351    -0.07898165     1.33998717     0.00004344    -0.00017870     0.00102393
H         0.96501848     0.04979381    -0.49565872     0.00013575     0.00031496    -0.00005041
H         0.87033146     0.03896007     1.90611919     0.00034748     0.00074455     0.00012653
H        -0.87157301     0.05484631     1.86183649    -0.00135813     0.00067853     0.00070063
H        -1.02029960     0.17850627    -0.56882621    -0.00065426     0.00067374     0.00017248
     6
  Step:    16            Position(A)                                  Velocity(au)
C        -0.04060443     0.00889560    -0.04341364     0.00006944     0.00000361    -0.00125647
N        -0.04772901    -0.07998615     1.34571918     0.00006643    -0.00017783     0.00101090
H         0.96571434     0.05163734    -0.49596949     0.00011465     0.00033952    -0.00006219
H         0.87179831     0.04306203     1.90648723     0.00017874     0.00071276     0.00000991
H        -0.87968049     0.05877860     1.86602639    -0.00150090     0.00071522     0.00077581
H        -1.02366535     0.18226448    -0.56776862    -0.00054312     0.00066079     0.00020085
     6
  Step:    17            Position(A)                                  Velocity(au)
C        -0.04023736     0.00890907    -0.05042744     0.00006107     0.00000115    -0.00123724
N        -0.04729568    -0.08098343     1.35136644     0.00008580    -0.00017677     0.00099759
H         0.96630905     0.05361569    -0.49635880     0.00010011     0.00036420    -0.00007835
H         0.87234347     0.04698330     1.90623073     0.00002156     0.00068303    -0.00009506
H        -0.88846800     0.06289718     1.87056942    -0.00160473     0.00074710     0.00082875
H        -1.02641331     0.18594453    -0.56656531    -0.00043698     0.00064842     0.00022488
     6
  Step:    18            Position(A)                                  Velocity(au)
C        -0.03991822     0.00890853    -0.05731629     0.00005259    -0.00000138    -0.00121559
N        -0.04676485    -0.08197246     1.35692888     0.00010133    -0.00017540     0.00098356
H         0.96683928     0.05572981    -0.49684992     0.00009182     0.00038895    -0.00009845
H         0.87204053     0.05073714     1.90541907    -0.00012214     0.00065522    -0.00018762
H        -0.89771261     0.06717359     1.87533888    -0.00166820     0.00077336     0.00085898
H        -1.02857560     0.18955070    -0.56524163    -0.00033619     0.00063637     0.00024423
     6
  Step:    19            Position(A)                                  Velocity(au)
C        -0.03964721     0.00889353    -0.06406861     0.00004405    -0.00000401    -0.00119075
N        -0.04615863    -0.08295169     1.36240381     0.00011282    -0.00017358     0.00096808
H         0.96733940     0.05798041    -0.49746356     0.00008932     0.00041354    -0.00012195
H         0.87097278     0.05433603     1.90412528    -0.00025018     0.00062907    -0.00026681
H        -0.90718823     0.07157566     1.88020875    -0.00169061     0.00079314     0.00086659
H        -1.03018596     0.19308580    -0.56382466    -0.00024120     0.00062422     0.00025844
     6
  Step:    20            Position(A)                                  Velocity(au)
C        -0.03942433     0.00886360    -0.07066847     0.00003551    -0.00000672    -0.00116210
N        -0.04549974    -0.08391890     1.36778419     0.00012020    -0.00017124     0.00095046
H         0.96784083     0.06036689    -0.49821735     0.00009206     0.00043769    -0.00014823
H         0.86923516     0.05779112     1.90242732    -0.00036016     0.00060451    -0.00033153
H        -0.91666982     0.07606729     1.88505621    -0.00167264     0.00080585     0.00085246
H        -1.03128026     0.19655024    -0.56234372    -0.00015269     0.00061162     0.00026711
     6
  Step:    21            Position(A)                                  Velocity(au)
C        -0.03924912     0.00881822    -0.07709656     0.00002709    -0.00000951    -0.00112944
N        -0.04481115    -0.08487139     1.37305907     0.00012346    -0.00016833     0.00093029
H         0.96837148     0.06288716    -0.49912533     0.00009938     0.00046118    -0.00017661
H         0.86693509     0.06111301     1.90040863    -0.00044983     0.00058165    -0.00038082
H        -0.92593968     0.08060979     1.88976539    -0.00161654     0.00081132     0.00081829
H        -1.03189770     0.19994251    -0.56083016    -0.00007148     0.00059843     0.00026996
     6
  Step:    22            Position(A)                                  Velocity(au)
C        -0.03912055     0.00875698    -0.08333237     0.00001892    -0.00001237    -0.00109298
N        -0.04411546    -0.08580635     1.37821513     0.00012275    -0.00016492     0.00090751
H         0.96895515     0.06553789    -0.50019762     0.00011051     0.00048391    -0.00020639
H         0.86419149     0.06431285     1.89815733    -0.00051734     0.00056078    -0.00041404
H        -0.93479535     0.08516418     1.89423135    -0.00152603     0.00080984     0.00076655
H        -1.03208170     0.20326018    -0.55931674     0.00000158     0.00058469     0.00026686
     6
  Step:    23            Position(A)                                  Velocity(au)
C        -0.03903690     0.00867947    -0.08935646     0.00001112    -0.00001529    -0.00105327
N        -0.04343423    -0.08672128     1.38323852     0.00011835    -0.00016110     0.00088229
H         0.96961108     0.06831517    -0.50144034     0.00012463     0.00050592    -0.00023686
H         0.86113212     0.06740322     1.89576433    -0.00056157     0.00054229    -0.00043099
H        -0.94305706     0.08969372     1.89836368    -0.00140592     0.00080216     0.00070015
H        -1.03187999     0.20650089    -0.55783677     0.00006574     0.00057057     0.00025784
     6
  Step:    24            Position(A)                                  Velocity(au)
C        -0.03899573     0.00858536    -0.09515226     0.00000382    -0.00001827    -0.00101104
N        -0.04278737    -0.08761422     1.38811632     0.00011060    -0.00015701     0.00085502
H         0.97035372     0.07121533    -0.50285574     0.00014088     0.00052735    -0.00026742
H         0.85788952     0.07039849     1.89332072    -0.00058217     0.00052654    -0.00043194
H        -0.95057280     0.09416608     1.90208857    -0.00126167     0.00078931     0.00062227
H        -1.03134391     0.20966316    -0.55642322     0.00012049     0.00055633     0.00024306
     6
  Step:    25            Position(A)                                  Velocity(au)
C        -0.03899401     0.00847439    -0.10070722    -0.00000289    -0.00002129    -0.00096715
N        -0.04219254    -0.08848397     1.39283766     0.00009996    -0.00015280     0.00082618
H         0.97119270     0.07423564    -0.50444255     0.00015845     0.00054851    -0.00029748
H         0.85459620     0.07331459     1.89091500    -0.00057966     0.00051379    -0.00041766
H        -0.95722156     0.09855516     1.90534979    -0.00109898     0.00077260     0.00053606
H        -1.03052729     0.21274671    -0.55510803     0.00016553     0.00054224     0.00022276
     6
  Step:    26            Position(A)                                  Velocity(au)
C        -0.03902824     0.00834627    -0.10601324    -0.00000896    -0.00002436    -0.00092239
N        -0.04166478    -0.08933019     1.39739426     0.00008693    -0.00014863     0.00079628
H         0.97213314     0.07737506    -0.50619636     0.00017662     0.00056979    -0.00032656
H         0.85138007     0.07616832     1.88863051    -0.00055525     0.00050411    -0.00038925
H        -0.96291420     0.10284232     1.90810848    -0.00092341     0.00075345     0.00044449
H        -1.02948500     0.21575245    -0.55392171     0.00020085     0.00052848     0.00019721
     6
  Step:    27            Position(A)                                  Velocity(au)
C        -0.03909466     0.00820075    -0.11106646    -0.00001436    -0.00002749    -0.00087744
N        -0.04121626    -0.09015327     1.40178055     0.00007201    -0.00014463     0.00076575
H         0.97317627     0.08063491    -0.50811008     0.00019477     0.00059169    -0.00035424
H         0.84836022     0.07897615     1.88654344    -0.00051084     0.00049728    -0.00034810
H        -0.96759222     0.10701708     1.91034179    -0.00074006     0.00073334     0.00035016
H        -1.02827154     0.21868204    -0.55289319     0.00022665     0.00051511     0.00016666
     6
  Step:    28            Position(A)                                  Velocity(au)
C        -0.03918955     0.00803755    -0.11586658    -0.00001913    -0.00003068    -0.00083280
N        -0.04085615    -0.09095431     1.40599337     0.00005573    -0.00014088     0.00073495
H         0.97432029     0.08401951    -0.51017436     0.00021248     0.00061481    -0.00038016
H         0.84564352     0.08175264     1.88472148    -0.00044883     0.00049278    -0.00029578
H        -0.97122485     0.11107750     1.91204066    -0.00055348     0.00071381     0.00025527
H        -1.02693984     0.22153699    -0.55205016     0.00024329     0.00050199     0.00013125
     6
  Step:    29            Position(A)                                  Velocity(au)
C        -0.03930942     0.00785632    -0.12041574    -0.00002334    -0.00003394    -0.00078874
N        -0.04059058    -0.09173489     1.41003134     0.00003864    -0.00013746     0.00070408
H         0.97556164     0.08753699    -0.51237790     0.00022962     0.00063994    -0.00040400
H         0.84332148     0.08450831     1.88322286    -0.00037212     0.00048962    -0.00023396
H        -0.97380581     0.11503054     1.91320749    -0.00036763     0.00069646     0.00016157
H        -1.02554024     0.22431750    -0.55141975     0.00025129     0.00048869     0.00009092
     6
  Step:    30            Position(A)                                  Velocity(au)
C        -0.03945149     0.00765667    -0.12471730    -0.00002717    -0.00003730    -0.00074526
N        -0.04042252    -0.09249683     1.41389408     0.00002131    -0.00013439     0.00067317
H         0.97689692     0.09120052    -0.51470773     0.00024649     0.00066816    -0.00042549
H         0.84146780     0.08724687     1.88209610    -0.00028398     0.00048623    -0.00016427
H        -0.97535019     0.11889273     1.91385368    -0.00018602     0.00068312     0.00007044
H        -1.02411998     0.22702072    -0.55102988     0.00025118     0.00047444     0.00004529
     6
  Step:    31            Position(A)                                  Velocity(au)
C        -0.03961414     0.00743802    -0.12877383    -0.00003090    -0.00004079    -0.00070190
N        -0.04035161    -0.09324203     1.41758092     0.00000434    -0.00013162     0.00064192
H         0.97832600     0.09503042    -0.51714975     0.00026420     0.00070105    -0.00044455
H         0.84013665     0.08996137     1.88138060    -0.00018791     0.00048018    -0.00008810
H        -0.97589198     0.12269176     1.91399744    -0.00001184     0.00067601    -0.00001713
H        -1.02272322     0.22963837    -0.55091185     0.00024338     0.00045795    -0.00000673
     6
  Step:    32            Position(A)                                  Velocity(au)
C        -0.03979778     0.00719948    -0.13258399    -0.00003500    -0.00004453    -0.00065728
N        -0.04037384    -0.09397204     1.42108858    -0.00001154    -0.00012905     0.00060939
H         0.97985797     0.09905769    -0.51969016     0.00028547     0.00074098    -0.00046166
H         0.83936174     0.09262859     1.88110865    -0.00008751     0.00046781    -0.00000635
H        -0.97548285     0.12646933     1.91366168     0.00015171     0.00067793    -0.00010045
H        -1.02139222     0.23215335    -0.55110535     0.00022776     0.00043729    -0.00006763
     6
  Step:    33            Position(A)                                  Velocity(au)
C        -0.04000612     0.00693930    -0.13613537    -0.00004016    -0.00004877    -0.00060806
N        -0.04048089    -0.09468744     1.42440608    -0.00002554    -0.00012638     0.00057321
H         0.98152331     0.10332939    -0.52232040     0.00031618     0.00079089    -0.00047927
H         0.83915650     0.09520088     1.88130946     0.00001383     0.00044435     0.00008098
H        -0.97419279     0.13028459     1.91287242     0.00030101     0.00069157    -0.00017879
H        -1.02017230     0.23453606    -0.55166930     0.00020234     0.00041057    -0.00014269
     6
  Step:    34            Position(A)                                  Velocity(au)
C        -0.04024720     0.00665362    -0.13938939    -0.00004672    -0.00005405    -0.00054806
N        -0.04065965    -0.09538644     1.42750386    -0.00003705    -0.00012300     0.00052898
H         0.98339665     0.10790925    -0.52505407     0.00036494     0.00085044    -0.00050447
H         0.83951656     0.09760171     1.88201498     0.00011353     0.00040798     0.00017391
H        -0.97211394     0.13420935     1.91166071     0.00043185     0.00071487    -0.00024994
H        -1.01912765     0.23674839    -0.55270228     0.00016121     0.00038006    -0.00023969
     6
  Step:    35            Position(A)                                  Velocity(au)
C        -0.04052857     0.00633486    -0.14226460    -0.00005348    -0.00006077    -0.00047308
N        -0.04089523    -0.09606305     1.43032193    -0.00004644    -0.00011845     0.00047376
H         0.98560466     0.11284028    -0.52796217     0.00043303     0.00091015    -0.00054601
H         0.84042617     0.09976351     1.88325442     0.00020958     0.00036754     0.00026893
H        -0.96936324     0.13827936     1.91007727     0.00054153     0.00073595    -0.00030931
H        -1.01836937     0.23878648    -0.55434988     0.00009842     0.00035656    -0.00035994
     6
  Step:    36            Position(A)                                  Velocity(au)
C        -0.04084479     0.00597457    -0.14467587    -0.00005849    -0.00006866    -0.00038714
N        -0.04117858    -0.09671013     1.43279798    -0.00005457    -0.00011296     0.00041048
H         0.98823565     0.11807991    -0.53115550     0.00050803     0.00095882    -0.00060371
H         0.84185850     0.10170884     1.88502022     0.00029905     0.00033560     0.00035915
H        -0.96606248     0.14243337     1.90820422     0.00063099     0.00074371    -0.00035374
H        -1.01802788     0.24073278    -0.55672453     0.00001724     0.00034975    -0.00049267
     6
  Step:    37            Position(A)                                  Velocity(au)
C        -0.04118161     0.00556828    -0.14658722    -0.00006102    -0.00007707    -0.00029773
N        -0.04150456    -0.09732431     1.43490512    -0.00006169    -0.00010712     0.00034451
H         0.99127705     0.12354592    -0.53470281     0.00057597     0.00099417    -0.00066940
H         0.84376525     0.10351060     1.88726447     0.00037811     0.00031539     0.00043945
H        -0.96231801     0.14658323     1.90612766     0.00070239     0.00073843    -0.00038387
H        -1.01817688     0.24269163    -0.55985080    -0.00007204     0.00035894    -0.00062579
     6
  Step:    38            Position(A)                                  Velocity(au)
C        -0.04152553     0.00511478    -0.14799741    -0.00006137    -0.00008555    -0.00020922
N        -0.04186683    -0.09790514     1.43664134    -0.00006750    -0.00010127     0.00027895
H         0.99466118     0.12917094    -0.53862338     0.00062998     0.00101908    -0.00073619
H         0.84607673     0.10522731     1.88992279     0.00044338     0.00030358     0.00050775
H        -0.95822661     0.15067131     1.90392173     0.00075679     0.00072526    -0.00040158
H        -1.01883156     0.24473717    -0.56370586    -0.00016089     0.00037889    -0.00075334
     6
  Step:    39            Position(A)                                  Velocity(au)
C        -0.04186570     0.00461461    -0.14891934    -0.00005997    -0.00009387    -0.00012331
N        -0.04225695    -0.09845321     1.43801457    -0.00007166    -0.00009554     0.00021499
H         0.99829945     0.13490563    -0.54290914     0.00066739     0.00103606    -0.00080038
H         0.84870765     0.10689460     1.89292440     0.00049248     0.00029667     0.00056309
H        -0.95388207     0.15466770     1.90165124     0.00079449     0.00070812    -0.00040817
H        -1.01997035     0.24691513    -0.56824823    -0.00024388     0.00040538    -0.00087274
     6
  Step:    40            Position(A)                                  Velocity(au)
C        -0.04219351     0.00406925    -0.14937086    -0.00005715    -0.00010186    -0.00004060
N        -0.04266506    -0.09896935     1.43903597    -0.00007399    -0.00008994     0.00015299
H         1.00209494     0.14071117    -0.54753844     0.00068707     0.00104640    -0.00086010
H         0.85156230     0.10853179     1.89619484     0.00052389     0.00029235     0.00060485
H        -0.94937712     0.15855874     1.89937528     0.00081564     0.00068913    -0.00040444
H        -1.02154807     0.24925255    -0.57342696    -0.00031741     0.00043572    -0.00098246
     6
  Step:    41            Position(A)                                  Velocity(au)
C        -0.04250182     0.00348084    -0.14937129    -0.00005310    -0.00010942     0.00003870
N        -0.04308056    -0.09945434     1.43971748    -0.00007442    -0.00008444     0.00009303
H         1.00594732     0.14655313    -0.55248301     0.00068853     0.00105037    -0.00091451
H         0.85453912     0.11014874     1.89965704     0.00053687     0.00028949     0.00063257
H        -0.94480313     0.16233843     1.89714943     0.00082053     0.00066904    -0.00039086
H        -1.02350341     0.25176512    -0.57918410    -0.00037899     0.00046838    -0.00108118
     6
  Step:    42            Position(A)                                  Velocity(au)
C        -0.04278423     0.00285199    -0.14894035    -0.00004786    -0.00011647     0.00011448
N        -0.04349298    -0.09990872     1.44007096    -0.00007305    -0.00007901     0.00003515
H         1.00975461     0.15239623    -0.55771208     0.00067136     0.00104723    -0.00096343
H         0.85753476     0.11175223     1.90323192     0.00053141     0.00028828     0.00064579
H        -0.94024902     0.16600157     1.89502714     0.00080973     0.00064724    -0.00036765
H        -1.02576418     0.25446311    -0.58545469    -0.00042706     0.00050303    -0.00116738
     6
  Step:    43            Position(A)                                  Velocity(au)
C        -0.04303397     0.00218574    -0.14809828    -0.00004109    -0.00012292     0.00018635
N        -0.04389285    -0.10033283     1.44010833    -0.00007024    -0.00007361    -0.00002043
H         1.01341241     0.15819778    -0.56319576     0.00063424     0.00103420    -0.00100735
H         0.86044807     0.11335420     1.90683787     0.00050825     0.00029135     0.00064363
H        -0.93579943     0.16953536     1.89306142     0.00078424     0.00062074    -0.00033444
H        -1.02825204     0.25735856    -0.59216466    -0.00046093     0.00054137    -0.00123845
     6
  Step:    44            Position(A)                                  Velocity(au)
C        -0.04324098     0.00148567    -0.14686904    -0.00003346    -0.00013805     0.00026958
N        -0.04427376    -0.10072691     1.43984386    -0.00007217    -0.00007356    -0.00007667
H         1.01680443     0.16389168    -0.56890914     0.00061151     0.00107631    -0.00112448
H         0.86318408     0.11499071     1.91038607     0.00050387     0.00033279     0.00066899
H        -0.93153197     0.17290136     1.89130973     0.00080209     0.00062320    -0.00031048
H        -1.03088753     0.26048063    -0.59922049    -0.00051575     0.00063498    -0.00138095
     6