|===============================================================================
|
|  DFTB+ release 20.1
|
|  Copyright (C) 2006 - 2020  DFTB+ developers group
|
|===============================================================================
|
|  When publishing results obtained with DFTB+, please cite the following
|  reference:
|
|  * DFTB+, a software package for efficient approximate density functional
|    theory based atomistic simulations, J. Chem. Phys. 152, 124101 (2020).
|    [doi: 10.1063/1.5143190]
|
|  You should also cite additional publications crediting the parametrization
|  data you use. Please consult the documentation of the SK-files for the
|  references.
|
|===============================================================================

Reading input file 'dftb_in.hsd'
Parser version: 8

--------------------------------------------------------------------------------
Reading SK-files:
Done.


Processed input in HSD format written to 'dftb_pin.hsd'

Starting initialization...
--------------------------------------------------------------------------------
OpenMP threads:              1
Chosen random seed:          508634669
Mode:                        Static calculation
Self consistent charges:     Yes
SCC-tolerance:                 0.100000E-05
Max. scc iterations:                   1000
Shell resolved Hubbard:      No
Spin polarisation:           No
Nr. of up electrons:             6.000000
Nr. of down electrons:           6.000000
Periodic boundaries:         No
Electronic solver:           Relatively robust
Maximal SCC-cycles:                    1000
Initial charges:             Set automatically (system chrg:   0.100E+01)
Included shells:             C:  s, p
                             N:  s, p
                             H:  s
Spin coupling constants:     C   1(s)-1(s):  -0.455900E-01
                             C   1(s)-2(p):  -0.293000E-01
                             C   2(p)-1(s):  -0.293000E-01
                             C   2(p)-2(p):  -0.275500E-01
                             N   1(s)-1(s):  -0.468700E-01
                             N   1(s)-2(p):  -0.317000E-01
                             N   2(p)-1(s):  -0.317000E-01
                             N   2(p)-2(p):  -0.307200E-01
                             H   1(s)-1(s):  -0.792500E-01
Range separated hybrid:      Yes
  Screening parameter omega:   0.300000E+00
  Range separated algorithm:   MatrixBased
Extra options:
                             Mulliken analysis
                             Force calculation
Force type                   original
                             Eigenvector printing


REKS Calcuation:             Yes
SSR(2,2) Calcuation:         Yes
Energy Functional:           (PPS+OSS)/2
Number of Core Orbitals:                  5
Number of Active Orbitals:                2
Number of Basis:                         12
Number of States:                         2
State-Averaging Weight:          0.500000
                                 0.500000
State of Interest:                        1
Initial Guess:               Diagonalize H0 matrix
Newton-Raphson for FON opt:  Yes
NR max. Iterations:                      50
Level Shifting:              Yes
Shift Value:                     0.300000
W Scale Factor:              C  =    3.000000
                             N  =    3.000000
                             H  =    3.000000
Transition Dipole:           No
Gradient of Microstate:      No
CP-REKS Solver:              Preconditioned Conjugate-Gradient
CG max. Iterations:                     100
CG Tolerance:                  0.100000E-07
Memory for A and Hxc:        Direct Updating Without Saving
Non-Adiabatic Coupling:      Yes

--------------------------------------------------------------------------------

***  Geometry step: 0

  iSCC       reks energy        Diff energy         x_a       SCC error   
    1       -6.2623228363       0.0000000000     0.999196    1.19406371
    2       -6.2753648088      -0.0130419725     0.999673    0.10106766
    3       -6.2792099009      -0.0038450921     0.999819    0.04492408
    4       -6.2810100777      -0.0018001768     0.999880    0.02216677
    5       -6.2820098894      -0.0009998117     0.999909    0.01139359
    6       -6.2826265288      -0.0006166395     0.999925    0.00643843
    7       -6.2830285530      -0.0004020241     0.999935    0.00551364
    8       -6.2832967819      -0.0002682289     0.999940    0.00472840
    9       -6.2834769928      -0.0001802109     0.999944    0.00416470
   10       -6.2835981167      -0.0001211240     0.999947    0.00370831
   11       -6.2836793975      -0.0000812808     0.999949    0.00325072
   12       -6.2837338501      -0.0000544525     0.999950    0.00281552
   13       -6.2837702893      -0.0000364392     0.999951    0.00241579
   14       -6.2837946637      -0.0000243744     0.999951    0.00205747
   15       -6.2838109701      -0.0000163064     0.999951    0.00174189
   16       -6.2838218848      -0.0000109147     0.999952    0.00146760
   17       -6.2838291961      -0.0000073113     0.999952    0.00123161
   18       -6.2838340977      -0.0000049016     0.999952    0.00103017
   19       -6.2838373866      -0.0000032889     0.999952    0.00085931
   20       -6.2838395951      -0.0000022085     0.999952    0.00071513
   21       -6.2838410792      -0.0000014840     0.999952    0.00059397
   22       -6.2838420770      -0.0000009978     0.999952    0.00049252
   23       -6.2838427482      -0.0000006712     0.999952    0.00040781
   24       -6.2838431999      -0.0000004517     0.999952    0.00033727
   25       -6.2838435039      -0.0000003040     0.999952    0.00027863
   26       -6.2838437086      -0.0000002047     0.999952    0.00022998
   27       -6.2838438465      -0.0000001379     0.999952    0.00018968
   28       -6.2838439393      -0.0000000928     0.999952    0.00015634
   29       -6.2838440018      -0.0000000625     0.999952    0.00012878
   30       -6.2838440440      -0.0000000421     0.999952    0.00010603
   31       -6.2838440723      -0.0000000284     0.999952    0.00008726
   32       -6.2838440914      -0.0000000191     0.999952    0.00007179
   33       -6.2838441043      -0.0000000129     0.999952    0.00005904
   34       -6.2838441130      -0.0000000087     0.999952    0.00004854
   35       -6.2838441188      -0.0000000058     0.999952    0.00003990
   36       -6.2838441228      -0.0000000039     0.999952    0.00003279
   37       -6.2838441254      -0.0000000027     0.999952    0.00002694
   38       -6.2838441272      -0.0000000018     0.999952    0.00002213
   39       -6.2838441284      -0.0000000012     0.999952    0.00001818
   40       -6.2838441292      -0.0000000008     0.999952    0.00001493
   41       -6.2838441298      -0.0000000005     0.999952    0.00001226
   42       -6.2838441301      -0.0000000004     0.999952    0.00001007
   43       -6.2838441304      -0.0000000002     0.999952    0.00000827
   44       -6.2838441306      -0.0000000002     0.999952    0.00000679
   45       -6.2838441307      -0.0000000001     0.999952    0.00000557
   46       -6.2838441307      -0.0000000001     0.999952    0.00000458
   47       -6.2838441308      -0.0000000001     0.999952    0.00000376
   48       -6.2838441308      -0.0000000000     0.999952    0.00000308
   49       -6.2838441308      -0.0000000000     0.999952    0.00000253
   50       -6.2838441309      -0.0000000000     0.999952    0.00000208
   51       -6.2838441309      -0.0000000000     0.999952    0.00000171
   52       -6.2838441309      -0.0000000000     0.999952    0.00000140
   53       -6.2838441309      -0.0000000000     0.999952    0.00000115
   54       -6.2838441309      -0.0000000000     0.999952    0.00000094
  
--------------------------------------------------
 Final SA-REKS(2,2) energy:      -6.28384413
  
 State     Energy      FON(1)    FON(2)   Spin
  PPS   -6.41105609   1.999904  0.000096  0.00
  OSS   -6.15663217   1.000000  1.000000  0.00
 Trip   -6.23782019   1.000000  1.000000  1.00
--------------------------------------------------

 Lagrangian Wab:  -0.00599121 -0.00599100

--------------------------------------------------
 SSR: 2SI-2SA-REKS(2,2) Hamiltonian matrix
               PPS           OSS
   PPS    -6.41105609   -0.00841403
   OSS    -0.00841403   -6.15663217
--------------------------------------------------

----------------------------------------------------------------
 SSR: 2SI-2SA-REKS(2,2) states
                    E_n       C_{PPS}    C_{OSS}
 SSR state  1   -6.41133405  -0.999455  -0.033017
 SSR state  2   -6.15635421   0.033017  -0.999455
----------------------------------------------------------------

 unrelaxed SSR FONs for S0:  1.998814  0.001186

Total Energy:                       -6.4113340499 H         -174.4613 eV
Extrapolated to 0:                  -6.4113340499 H         -174.4613 eV

----------------------------------------------------------------------------------
 Solving CP-REKS equation for  1 state vector...
----------------------------------------------------------------------------------
  CG solver: Constructing Y initial guess
  CG solver: Iteration    1    eps =    0.000113918014
  CG solver: Iteration    2    eps =    0.000055613650
  CG solver: Iteration    3    eps =    0.000003052401
  CG solver: Iteration    4    eps =    0.000000657795
  CG solver: Iteration    5    eps =    0.000000011346
  CG solver: Iteration    6    eps =    0.000000003217
  Convergence reached in CG solver after    6 iterations
  CG solver: Calculating converged R, Z, Q2 matrix
----------------------------------------------------------------------------------

----------------------------------------------------------------------------------
 Solving CP-REKS equation for SI between  1 and  2 state vectors...
----------------------------------------------------------------------------------
  CG solver: Constructing Y initial guess
  CG solver: Iteration    1    eps =    0.002154317140
  CG solver: Iteration    2    eps =    0.002590100357
  CG solver: Iteration    3    eps =    0.000444311582
  CG solver: Iteration    4    eps =    0.000004895146
  CG solver: Iteration    5    eps =    0.000000639789
  CG solver: Iteration    6    eps =    0.000000010337
  CG solver: Iteration    7    eps =    0.000000000405
  Convergence reached in CG solver after    7 iterations
  CG solver: Calculating converged R, Z, Q2 matrix
----------------------------------------------------------------------------------

--------------------------------------------------
 Gradient Information
--------------------------------------------------
           1 st state (SSR)
     0.00148404    -0.00316370     0.01951397
     0.00303505    -0.00161270    -0.01832659
     0.01042057     0.00522114    -0.00036793
     0.01247244     0.00335856    -0.00539331
    -0.01452519     0.00028362    -0.00085488
    -0.01288691    -0.00408692     0.00542873

           2 st state (SSR)
    -0.00259214    -0.00338322     0.12651842
     0.00048687     0.01004799    -0.14412577
    -0.01240900     0.01203775     0.01804918
    -0.00918984    -0.00399093    -0.01408850
     0.01163564     0.00282052    -0.00848678
     0.01206847    -0.01753212     0.02213344
--------------------------------------------------
 Coupling Information
--------------------------------------------------
 between  1 and  2 states
--------------------------------------------------
 g vector - difference gradient
     0.00205443     0.00015194    -0.05454954
     0.00138069    -0.00593903     0.06376469
     0.01218251    -0.00332755    -0.00911810
     0.01166373     0.00354929     0.00443205
    -0.01395565    -0.00109685     0.00382737
    -0.01332572     0.00666220    -0.00835647

 h vector - derivative coupling
    -0.00017977    -0.00063404     0.01406693
    -0.00156963     0.00145061    -0.01100162
    -0.01123023    -0.00133356    -0.00167169
    -0.01223011     0.00201814    -0.00113331
     0.01280057    -0.00263637    -0.00004655
     0.01240917     0.00113523    -0.00021377

 G vector - GDV
     0.00203809     0.00010976    -0.05350223
     0.00127409    -0.00583034     0.06289959
     0.01141479    -0.00340830    -0.00920855
     0.01083114     0.00367474     0.00434760
    -0.01308041    -0.00126845     0.00381595
    -0.01247769     0.00672260    -0.00835236

 H vector - DCV - non-adiabatic coupling
    -0.00123527    -0.00252053     0.06916783
    -0.00649983     0.00721393    -0.05955743
    -0.04710082    -0.00435738    -0.00418180
    -0.05087940     0.00697896    -0.00558219
     0.05370503    -0.01003308    -0.00117281
     0.05201030     0.00271811     0.00132640
--------------------------------------------------


--------------------------------------------------------------------------------
DFTB+ running times                          cpu [s]             wall clock [s]
--------------------------------------------------------------------------------
SCC                                    +     0.03  ( 63.6%)      0.03  ( 58.7%)
Post-SCC processing                    +     0.01  ( 32.4%)      0.01  ( 28.3%)
  Force calculation                          0.01  ( 31.5%)      0.01  ( 26.1%)
--------------------------------------------------------------------------------
Missing                                +     0.00  (  4.0%)      0.01  ( 13.0%)
Total                                  =     0.04  (100.0%)      0.05  (100.0%)
--------------------------------------------------------------------------------
