 Fermi distribution function

Calculation with static geometry


********************************************************************************
 iSCC Total electronic   Diff electronic      SCC error    
   12   -0.53454907E+01   -0.21420394E-08    0.26115091E-06
********************************************************************************

 Total charge:     1.00000000

 Atomic gross charges (e)
 Atom           Charge
    1       0.35403183
    2      -0.24752957
    3       0.15752778
    4       0.27128325
    5       0.30526176
    6       0.15942494

Nr. of electrons (up):     12.00000000
Atom populations (up)
 Atom       Population
    1       3.64596817
    2       5.24752957
    3       0.84247222
    4       0.72871675
    5       0.69473824
    6       0.84057506

l-shell populations (up)
 Atom Sh.   l       Population
    1   1   0       1.33261605
    1   2   1       2.31335212
    2   1   0       1.44627406
    2   2   1       3.80125551
    3   1   0       0.84247222
    4   1   0       0.72871675
    5   1   0       0.69473824
    6   1   0       0.84057506

Orbital populations (up)
 Atom Sh.   l   m       Population  Label
    1   1   0   0       1.33261605  s
    1   2   1  -1       0.52267052  p_y
    1   2   1   0       0.89464918  p_z
    1   2   1   1       0.89603242  p_x
    2   1   0   0       1.44627406  s
    2   2   1  -1       1.34693103  p_y
    2   2   1   0       1.09812626  p_z
    2   2   1   1       1.35619822  p_x
    3   1   0   0       0.84247222  s
    4   1   0   0       0.72871675  s
    5   1   0   0       0.69473824  s
    6   1   0   0       0.84057506  s

Fermi level:                        -0.4951060871 H          -13.4725 eV
Band energy:                        -8.7709343576 H         -238.6693 eV
TS:                                  0.0000000000 H            0.0000 eV
Band free energy (E-TS):            -8.7709343576 H         -238.6693 eV
Extrapolated E(0K):                 -8.7709343576 H         -238.6693 eV
Input / Output electrons (q):     12.0000000000     12.0000000000

Energy H0:                          -5.4805143735 H         -149.1324 eV
Energy SCC:                          0.1350236667 H            3.6742 eV
Total Electronic energy:            -5.3454907069 H         -145.4582 eV
Repulsive energy:                    0.1693906341 H            4.6094 eV
Total energy:                       -5.1761000728 H         -140.8488 eV
Extrapolated to 0:                  -5.1761000728 H         -140.8488 eV
Total Mermin free energy:           -5.1761000728 H         -140.8488 eV
Force related energy:               -5.1761000728 H         -140.8488 eV

SCC converged

Excitation Energy:                   0.0791914724 H            2.1549 eV

Total Forces
    1      0.003425568060     -0.010302572564      0.057904227803
    2     -0.011938232631     -0.006386147302     -0.060622222485
    3     -0.010177698321     -0.012704577204     -0.000695825554
    4     -0.006432842371      0.018357715206      0.001570907249
    5      0.017213463675     -0.007921984157     -0.002712635365
    6      0.007909741588      0.018957566021      0.004555548352

Maximal derivative component:        0.606222E-01 au


