|===============================================================================
|
|  DFTB+ release 20.1
|
|  Copyright (C) 2006 - 2020  DFTB+ developers group
|
|===============================================================================
|
|  When publishing results obtained with DFTB+, please cite the following
|  reference:
|
|  * DFTB+, a software package for efficient approximate density functional
|    theory based atomistic simulations, J. Chem. Phys. 152, 124101 (2020).
|    [doi: 10.1063/1.5143190]
|
|  You should also cite additional publications crediting the parametrization
|  data you use. Please consult the documentation of the SK-files for the
|  references.
|
|===============================================================================

Reading input file 'dftb_in.hsd'
Parser version: 8

--------------------------------------------------------------------------------
Reading SK-files:
Done.


Processed input in HSD format written to 'dftb_pin.hsd'

Starting initialization...
--------------------------------------------------------------------------------
WARNING!
-> Excited state forces are not implemented yet for fractional occupations, kT=  0.3158E-02K
OpenMP threads:              1
Chosen random seed:          508097540
Mode:                        Static calculation
Self consistent charges:     Yes
SCC-tolerance:                 0.100000E-05
Max. scc iterations:                    100
Shell resolved Hubbard:      No
Spin polarisation:           No
Nr. of up electrons:             6.000000
Nr. of down electrons:           6.000000
Periodic boundaries:         No
Electronic solver:           Relatively robust
Mixer:                       Broyden mixer
Mixing parameter:                  0.200000
Maximal SCC-cycles:                     100
Nr. of chrg. vec. in memory:              0
Electronic temperature:        0.100000E-07 H      0.272114E-06 eV
Initial charges:             Set automatically (system chrg:   0.100E+01)
Included shells:             C:  s, p
                             N:  s, p
                             H:  s
Extra options:
                             Mulliken analysis
                             Force calculation
Force type                   original
                             Eigenvector printing

--------------------------------------------------------------------------------

***  Geometry step: 0

 iSCC Total electronic   Diff electronic      SCC error    
    1   -0.54272801E+01    0.00000000E+00    0.72429633E+00
    2   -0.54313726E+01   -0.40924881E-02    0.50306363E+00
    3   -0.54345981E+01   -0.32255196E-02    0.60211152E-01
    4   -0.54347879E+01   -0.18975119E-03    0.38529186E-01
    5   -0.54348329E+01   -0.44987898E-04    0.92596713E-02
    6   -0.54348334E+01   -0.55939846E-06    0.12714071E-02
    7   -0.54348335E+01   -0.20335321E-07    0.12404061E-03
    8   -0.54348335E+01   -0.46658766E-09    0.26588886E-04
    9   -0.54348335E+01   -0.22550850E-10    0.20605723E-05
   10   -0.54348335E+01   -0.14654944E-12    0.29361723E-06
>> Charges saved for restart in charges.bin

Total Energy:                       -5.0935749125 H         -138.6032 eV
Extrapolated to 0:                  -5.2091617604 H         -141.7485 eV
Total Mermin free energy:           -5.0935749125 H         -138.6032 eV
Force related energy:               -5.2091617604 H         -141.7485 eV

--------------------------------------------------------------------------------
DFTB+ running times                          cpu [s]             wall clock [s]
--------------------------------------------------------------------------------
SCC                                    +     0.01  ( 54.1%)      0.03  ( 62.0%)
Post-SCC processing                    +     0.01  ( 37.9%)      0.01  ( 30.0%)
--------------------------------------------------------------------------------
Missing                                +     0.00  (  7.9%)      0.00  (  8.0%)
Total                                  =     0.02  (100.0%)      0.05  (100.0%)
--------------------------------------------------------------------------------
