     6
  Step:     0            Position(A)                                  Velocity(au)
C        -0.04369972     0.00428967     0.01600342    -0.00005209    -0.00007401     0.00035102
N        -0.03971919    -0.04765359     1.29604374     0.00018238    -0.00004698    -0.00027976
H         0.93356829     0.05569535    -0.52010554     0.00037240     0.00024995    -0.00045704
H         0.84042850    -0.15033721     1.93159225    -0.00180648     0.00064840    -0.00048035
H        -0.91072483    -0.07002252     1.80776798    -0.00055418     0.00012388     0.00058207
H        -1.00352943     0.10598145    -0.52819059     0.00007448     0.00051261     0.00006029
     6
  Step:     1            Position(A)                                  Velocity(au)
C        -0.04397329     0.00388503     0.01778189    -0.00004780    -0.00007382     0.00029719
N        -0.03867422    -0.04791544     1.29466796     0.00019781    -0.00004872    -0.00022178
H         0.93557928     0.05709536    -0.52277438     0.00035806     0.00026150    -0.00051508
H         0.83006583    -0.14675894     1.92859957    -0.00196700     0.00065799    -0.00060458
H        -0.91402078    -0.06936857     1.81119899    -0.00063820     0.00011566     0.00066281
H        -1.00314368     0.10881015    -0.52803362     0.00006787     0.00052153    -0.00000237
     6
  Step:     2            Position(A)                                  Velocity(au)
C        -0.04422278     0.00348189     0.01925547    -0.00004327    -0.00007335     0.00023948
N        -0.03755465    -0.04818668     1.29361682     0.00020909    -0.00005030    -0.00016124
H         0.93748645     0.05855690    -0.52574188     0.00033424     0.00027198    -0.00056536
H         0.81890417    -0.14313697     1.92497652    -0.00209238     0.00066306    -0.00070733
H        -0.91770849    -0.06875691     1.81502087    -0.00069591     0.00010822     0.00072342
H        -1.00278677     0.11168846    -0.52821657     0.00006396     0.00052985    -0.00006371
     6
  Step:     3            Position(A)                                  Velocity(au)
C        -0.04444719     0.00308168     0.02040466    -0.00003862    -0.00007263     0.00017874
N        -0.03638427    -0.04846628     1.29290212     0.00021581    -0.00005165    -0.00009919
H         0.93923980     0.06007405    -0.52896609     0.00030175     0.00028130    -0.00060789
H         0.80715063    -0.13949725     1.92085306    -0.00217658     0.00066310    -0.00078363
H        -0.92164216    -0.06818343     1.81912173    -0.00072692     0.00010148     0.00076336
H        -1.00244322     0.11461291    -0.52873134     0.00006294     0.00053740    -0.00012323
     6
  Step:     4            Position(A)                                  Velocity(au)
C        -0.04464609     0.00268579     0.02121471    -0.00003394    -0.00007166     0.00011589
N        -0.03518910    -0.04875286     1.29252955     0.00021759    -0.00005272    -0.00003683
H         0.94079411     0.06164041    -0.53240530     0.00026158     0.00028940    -0.00064281
H         0.79504557    -0.13586841     1.91638674    -0.00221395     0.00065771    -0.00082862
H        -0.92567660    -0.06764451     1.82338850    -0.00073192     0.00009537     0.00078285
H        -1.00209681     0.11757919    -0.52956731     0.00006489     0.00054408    -0.00018048
     6
  Step:     5            Position(A)                                  Velocity(au)
C        -0.04481958     0.00229545     0.02167616    -0.00002933    -0.00007049     0.00005195
N        -0.03399688    -0.04904468     1.29249805     0.00021424    -0.00005344     0.00002460
H         0.94210979     0.06324928    -0.53601878     0.00021484     0.00029626    -0.00067042
H         0.78285978    -0.13228099     1.91176161    -0.00219973     0.00064671    -0.00083796
H        -0.92967263    -0.06713702     1.82771094    -0.00071253     0.00008979     0.00078281
H        -1.00173129     0.12058239    -0.53071156     0.00006973     0.00054983    -0.00023511
     6
  Step:     6            Position(A)                                  Velocity(au)
C        -0.04496819     0.00191173     0.02178518    -0.00002486    -0.00006915    -0.00001207
N        -0.03283638    -0.04933972     1.29279965     0.00020565    -0.00005378     0.00008386
H         0.94315348     0.06489386    -0.53976772     0.00016273     0.00030190    -0.00069121
H         0.77088835    -0.12876628     1.90718432    -0.00213059     0.00063014    -0.00080822
H        -0.93350147    -0.06665841     1.83198523    -0.00067106     0.00008465     0.00076480
H        -1.00133101     0.12361736    -0.53214930     0.00007731     0.00055468    -0.00028684
     6
  Step:     7            Position(A)                                  Velocity(au)
C        -0.04509278     0.00153544     0.02154350    -0.00002057    -0.00006769    -0.00007519
N        -0.03173657    -0.04963579     1.29341981     0.00019190    -0.00005372     0.00013988
H         0.94389841     0.06656750    -0.54361606     0.00010645     0.00030639    -0.00070582
H         0.75944181    -0.12535495     1.90287820    -0.00200504     0.00060829    -0.00073731
H        -0.93704843    -0.06620662     1.83611707    -0.00061039     0.00007985     0.00073084
H        -1.00088156     0.12667907    -0.53386435     0.00008736     0.00055874    -0.00033553
     6
  Step:     8            Position(A)                                  Velocity(au)
C        -0.04519445     0.00116714     0.02095816    -0.00001650    -0.00006619    -0.00013654
N        -0.03072563    -0.04993064     1.29433826     0.00017324    -0.00005328     0.00019176
H         0.94432436     0.06826400    -0.54753133     0.00004715     0.00030987    -0.00071501
H         0.74883414    -0.12207547     1.89907441    -0.00182386     0.00058174    -0.00062484
H        -0.94021539    -0.06578011     1.84002406    -0.00053370     0.00007531     0.00068330
H        -1.00037015     0.12976310    -0.53583988     0.00009954     0.00056216    -0.00038114
     6
  Step:     9            Position(A)                                  Velocity(au)
C        -0.04527440     0.00080704     0.02004079    -0.00001266    -0.00006468    -0.00019540
N        -0.02982994    -0.05022211     1.29553028     0.00015010    -0.00005247     0.00023889
H         0.94441733     0.06997778    -0.55148520    -0.00001411     0.00031246    -0.00071961
H         0.73936925    -0.11895258     1.89600145    -0.00159026     0.00055129    -0.00047244
H        -0.94292207    -0.06537775     1.84363716    -0.00044422     0.00007096     0.00062464
H        -0.99978608     0.13286594    -0.53805905     0.00011347     0.00056516    -0.00042379
     6
  Step:    10            Position(A)                                  Velocity(au)
C        -0.04533383     0.00045508     0.01880687    -0.00000903    -0.00006322    -0.00025118
N        -0.02907304    -0.05050829     1.29696834     0.00012308    -0.00005135     0.00028092
H         0.94416901     0.07170409    -0.55545390    -0.00007639     0.00031432    -0.00072042
H         0.73132609    -0.11600596     1.89387302    -0.00130997     0.00051794    -0.00028386
H        -0.94510610    -0.06499883     1.84690111    -0.00034512     0.00006672     0.00055734
H        -0.99912093     0.13598525    -0.54050567     0.00012871     0.00056794    -0.00046365
     6
  Step:    11            Position(A)                                  Velocity(au)
C        -0.04537382     0.00011091     0.01727489    -0.00000558    -0.00006185    -0.00030341
N        -0.02847469    -0.05078752     1.29862365     0.00009290    -0.00004997     0.00031777
H         0.94357618     0.07343894    -0.55941811    -0.00013884     0.00031556    -0.00071818
H         0.72494440    -0.11324931     1.89287570    -0.00099113     0.00048275    -0.00006500
H        -0.94672238    -0.06464303     1.84977429    -0.00023938     0.00006252     0.00048373
H        -0.99836873     0.13911982    -0.54316452     0.00014483     0.00057066    -0.00050089
     6
  Step:    12            Position(A)                                  Velocity(au)
C        -0.04539531    -0.00022604     0.01546568    -0.00000229    -0.00006060    -0.00035169
N        -0.02805000    -0.05105854     1.30046767     0.00006048    -0.00004840     0.00034957
H         0.94264009     0.07517900    -0.56336251    -0.00020070     0.00031623    -0.00071348
H         0.72041174    -0.11068986     1.89315724    -0.00064404     0.00044686     0.00017619
H        -0.94774211    -0.06431041     1.85222797    -0.00012980     0.00005826     0.00040601
H        -0.99752610     0.14226934    -0.54602148     0.00016131     0.00057337    -0.00053566
     6
  Step:    13            Position(A)                                  Velocity(au)
C        -0.04539899    -0.00055645     0.01340204     0.00000091    -0.00005948    -0.00039562
N        -0.02780872    -0.05132044     1.30247317     0.00002682    -0.00004668     0.00037656
H         0.94136611     0.07692128    -0.56727498    -0.00026118     0.00031633    -0.00070672
H         0.71785222    -0.10832850     1.89481587    -0.00028090     0.00041130     0.00042993
H        -0.94815170    -0.06400144     1.85424534    -0.00001908     0.00005388     0.00032623
H        -0.99659233     0.14543383    -0.54906318     0.00017765     0.00057601    -0.00056795
     6
  Step:    14            Position(A)                                  Velocity(au)
C        -0.04538534    -0.00088104     0.01110872     0.00000403    -0.00005846    -0.00043475
N        -0.02775466    -0.05157266     1.30461473    -0.00000695    -0.00004488     0.00039901
H         0.93976371     0.07866270    -0.57114549    -0.00031945     0.00031574    -0.00069805
H         0.71731817    -0.10616026     1.89789196     0.00008467     0.00037701     0.00068504
H        -0.94795223    -0.06371703     1.85582070     0.00009008     0.00004928     0.00024633
H        -0.99556960     0.14861290    -0.55227626     0.00019328     0.00057833    -0.00059758
     6
  Step:    15            Position(A)                                  Velocity(au)
C        -0.04535463    -0.00120046     0.00861277     0.00000710    -0.00005753    -0.00046850
N        -0.02788531    -0.05181486     1.30686877    -0.00003964    -0.00004302     0.00041713
H         0.93784692     0.08039961    -0.57496489    -0.00037452     0.00031429    -0.00068746
H         0.71878493    -0.10417527     1.90236249     0.00043824     0.00034474     0.00092953
H        -0.94715941    -0.06345857     1.85695899     0.00019486     0.00004437     0.00016827
H        -0.99446311     0.15180486    -0.55564632     0.00020758     0.00057992    -0.00062415
     6
  Step:    16            Position(A)                                  Velocity(au)
C        -0.04530702    -0.00151519     0.00594406     0.00001015    -0.00005663    -0.00049625
N        -0.02819166    -0.05204686     1.30921307    -0.00007004    -0.00004111     0.00043103
H         0.93563507     0.08212732    -0.57872387    -0.00042524     0.00031170    -0.00067476
H         0.72214924    -0.10235998     1.90813883     0.00076536     0.00031503     0.00115128
H        -0.94580418    -0.06322788     1.85767568     0.00029226     0.00003909     0.00009406
H        -0.99328132     0.15500579    -0.55915668     0.00021991     0.00058024    -0.00064701
     6
  Step:    17            Position(A)                                  Velocity(au)
C        -0.04524262    -0.00182543     0.00313585     0.00001315    -0.00005571    -0.00051728
N        -0.02865830    -0.05226854     1.31162598    -0.00009698    -0.00003915     0.00044071
H         0.93315367     0.08383974    -0.58241207    -0.00047032     0.00030770    -0.00065972
H         0.72723196    -0.10069840     1.91506884     0.00105250     0.00028822     0.00133906
H        -0.94393380    -0.06302718     1.85799707     0.00037912     0.00003337     0.00002578
H        -0.99203607     0.15820881    -0.56278721     0.00022963     0.00057868    -0.00066540
     6
  Step:    18            Position(A)                                  Velocity(au)
C        -0.04516162    -0.00213110     0.00022501     0.00001608    -0.00005472    -0.00053097
N        -0.02926390    -0.05247973     1.31408559    -0.00011945    -0.00003714     0.00044606
H         0.93043520     0.08552925    -0.58601774    -0.00050843     0.00030203    -0.00064211
H         0.73378578    -0.09917343     1.92294362     0.00128827     0.00026443     0.00148356
H        -0.94161258    -0.06285897     1.85796074     0.00045226     0.00002719    -0.00003444
H        -0.99074247     0.16140368    -0.56651342     0.00023620     0.00057463    -0.00067850
     6
  Step:    19            Position(A)                                  Velocity(au)
C        -0.04506443    -0.00243182    -0.00274835     0.00001889    -0.00005362    -0.00053692
N        -0.02998207    -0.05268017     1.31656922    -0.00013667    -0.00003508     0.00044701
H         0.92751926     0.08718682    -0.58952797    -0.00053838     0.00029454    -0.00062193
H         0.74150856    -0.09776795     1.93150957     0.00146453     0.00024364     0.00157840
H        -0.93892182    -0.06272589     1.85761544     0.00050879     0.00002056    -0.00008462
H        -0.98941846     0.16457686    -0.57030634     0.00023921     0.00056766    -0.00068564
     6
  Step:    20            Position(A)                                  Velocity(au)
C        -0.04495173    -0.00272698    -0.00574203     0.00002152    -0.00005239    -0.00053510
N        -0.03078281    -0.05286954     1.31905342    -0.00014820    -0.00003294     0.00044359
H         0.92445185     0.08880260    -0.59292962    -0.00055935     0.00028524    -0.00059945
H         0.75006190    -0.09646568     1.94048518     0.00157736     0.00022572     0.00162098
H        -0.93595808    -0.06263046     1.85702036     0.00054648     0.00001354    -0.00012310
H        -0.98808399     0.16771235    -0.57413327     0.00023849     0.00055760    -0.00068648
     6
  Step:    21            Position(A)                                  Velocity(au)
C        -0.04482452    -0.00301587    -0.00871390     0.00002393    -0.00005104    -0.00052600
N        -0.03163430    -0.05304744     1.32151466    -0.00015400    -0.00003076     0.00043612
H         0.92128332     0.09036680    -0.59621096    -0.00057107     0.00027435    -0.00057532
H         0.75909390    -0.09525154     1.94958124     0.00162762     0.00021048     0.00161288
H        -0.93282932    -0.06257493     1.85624306     0.00056414     0.00000621    -0.00014879
H        -0.98675963     0.17079329    -0.57795963     0.00023418     0.00054471    -0.00068124
     6
  Step:    22            Position(A)                                  Velocity(au)
C        -0.04468414    -0.00329783    -0.01162465     0.00002608    -0.00004964    -0.00051070
N        -0.03250508    -0.05321354     1.32393077    -0.00015444    -0.00002856     0.00042520
H         0.91806523     0.09187085    -0.59936375    -0.00057401     0.00026235    -0.00055061
H         0.76826456    -0.09411176     1.95852305     0.00162076     0.00019778     0.00155956
H        -0.92964893    -0.06256107     1.85535632     0.00056188    -0.00000136    -0.00016134
H        -0.98546495     0.17380414    -0.58175195     0.00022676     0.00052969    -0.00067074
     6
  Step:    23            Position(A)                                  Velocity(au)
C        -0.04453207    -0.00357256    -0.01444091     0.00002798    -0.00004828    -0.00049072
N        -0.03336621    -0.05336769     1.32628286    -0.00015025    -0.00002639     0.00041179
H         0.91484634     0.09330874    -0.60238548    -0.00056935     0.00024986    -0.00052669
H         0.77726910    -0.09303358     1.96707016     0.00156582     0.00018754     0.00146936
H        -0.92652835    -0.06259015     1.85443384     0.00054110    -0.00000908    -0.00016113
H        -0.98421674     0.17673323    -0.58548134     0.00021696     0.00051366    -0.00065643
     6
  Step:    24            Position(A)                                  Velocity(au)
C        -0.04436985    -0.00384019    -0.01713774     0.00002964    -0.00004705    -0.00046781
N        -0.03419307    -0.05350998     1.32855712    -0.00014233    -0.00002429     0.00039701
H         0.91166872     0.09467792    -0.60528093    -0.00055875     0.00023760    -0.00050503
H         0.78585605    -0.09200479     1.97503085     0.00147365     0.00017971     0.00135187
H        -0.92356989    -0.06266307     1.85354603     0.00050409    -0.00001694    -0.00014920
H        -0.98302751     0.17957494    -0.58912671     0.00020566     0.00049794    -0.00064006
     6
  Step:    25            Position(A)                                  Velocity(au)
C        -0.04419883    -0.00410150    -0.01969985     0.00003113    -0.00004608    -0.00044362
N        -0.03496627    -0.05364079     1.33074585    -0.00013163    -0.00002232     0.00038192
H         0.90856516     0.09597975    -0.60806279    -0.00054394     0.00022622    -0.00048694
H         0.79383523    -0.09101338     1.98226732     0.00135485     0.00017425     0.00121612
H        -0.92086159    -0.06278056     1.85275657     0.00045352    -0.00002497    -0.00012687
H        -0.98190483     0.18233090    -0.59267663     0.00019373     0.00048381    -0.00062339
     6
  Step:    26            Position(A)                                  Velocity(au)
C        -0.04402013    -0.00435782    -0.02212096     0.00003249    -0.00004544    -0.00041939
N        -0.03567167    -0.05376071     1.33284728    -0.00011893    -0.00002049     0.00036736
H         0.90555862     0.09721909    -0.61075072    -0.00052640     0.00021618    -0.00047335
H         0.80107515    -0.09004739     1.98869156     0.00121821     0.00017111     0.00106926
H        -0.91847550    -0.06294356     1.85212084     0.00039183    -0.00003326    -0.00009552
H        -0.98085139     0.18500964    -0.59612923     0.00018187     0.00047224    -0.00060776
     6
  Step:    27            Position(A)                                  Velocity(au)
C        -0.04383457    -0.00461093    -0.02440153     0.00003375    -0.00004518    -0.00039584
N        -0.03629958    -0.05387050     1.33486417    -0.00010483    -0.00001880     0.00035375
H         0.90266386     0.09840329    -0.61336933    -0.00050706     0.00020770    -0.00046471
H         0.80749217    -0.08909515     1.99425447     0.00106996     0.00017013     0.00091610
H        -0.91646885    -0.06315344     1.85168578     0.00032105    -0.00004192    -0.00005638
H        -0.97986598     0.18762500    -0.59949007     0.00017057     0.00046375    -0.00059396
     6
  Step:    28            Position(A)                                  Velocity(au)
C        -0.04364281    -0.00486287    -0.02654594     0.00003582    -0.00004118    -0.00041983
N        -0.03684353    -0.05397087     1.33680177    -0.00009142    -0.00001918     0.00037753
H         0.89989030     0.09954093    -0.61594560    -0.00051297     0.00013359    -0.00042775
H         0.81303586    -0.08814558     1.99893236     0.00090783     0.00023402     0.00074490
H        -0.91488656    -0.06341216     1.85149062     0.00026187    -0.00011224    -0.00002618
H        -0.97894465     0.19019373    -0.60276890     0.00018678     0.00050192    -0.00053445
     6
  Step:    29            Position(A)                                  Velocity(au)
C        -0.04343535    -0.00506983    -0.02907998     0.00003847    -0.00003320    -0.00049474
N        -0.03731834    -0.05408423     1.33907119    -0.00007871    -0.00002194     0.00044191
H         0.89694746     0.09989193    -0.61813600    -0.00054328     0.00001131    -0.00035785
H         0.81760874    -0.08648733     2.00255540     0.00073151     0.00034417     0.00055137
H        -0.91355071    -0.06440420     1.85139408     0.00021723    -0.00022204    -0.00000953
H        -0.97778457     0.19321818    -0.60544585     0.00022989     0.00056719    -0.00042951
     6
  Step:    30            Position(A)                                  Velocity(au)
C        -0.04321535    -0.00523186    -0.03204396     0.00004052    -0.00002531    -0.00057262
N        -0.03771819    -0.05421472     1.34171267    -0.00006491    -0.00002516     0.00050957
H         0.89385285     0.09966666    -0.61992241    -0.00056806    -0.00008494    -0.00028774
H         0.82116512    -0.08432089     2.00505975     0.00054811     0.00042956     0.00035007
H        -0.91247249    -0.06587972     1.85138469     0.00016790    -0.00030122     0.00000804
H        -0.97638989     0.19649691    -0.60754202     0.00027128     0.00060781    -0.00032801
     6
  Step:    31            Position(A)                                  Velocity(au)
C        -0.04298597    -0.00535054    -0.03543090     0.00004194    -0.00001767    -0.00064757
N        -0.03803831    -0.05436323     1.34472275    -0.00005027    -0.00002842     0.00057506
H         0.89064714     0.09894984    -0.62132733    -0.00058376    -0.00016898    -0.00022219
H         0.82368778    -0.08172310     2.00643799     0.00036208     0.00050344     0.00014846
H        -0.91168850    -0.06774502     1.85148325     0.00011142    -0.00036683     0.00002986
H        -0.97477583     0.19995935    -0.60908382     0.00030901     0.00063794    -0.00023079
     6
  Step:    32            Position(A)                                  Velocity(au)
C        -0.04275071    -0.00542760    -0.03921838     0.00004265    -0.00001031    -0.00071694
N        -0.03827508    -0.05452963     1.34808370    -0.00003504    -0.00003159     0.00063596
H         0.88738538     0.09779451    -0.62238407    -0.00058782    -0.00024455    -0.00016303
H         0.82517657    -0.07874336     2.00670456     0.00017722     0.00056887    -0.00004911
H        -0.91123811    -0.06994380     1.85171546     0.00004794    -0.00042339     0.00005626
H        -0.97296638     0.20356461    -0.61009887     0.00034132     0.00066107    -0.00013852
     6
  Step:    33            Position(A)                                  Velocity(au)
C        -0.04251350    -0.00546480    -0.04337242     0.00004259    -0.00000329    -0.00077855
N        -0.03842646    -0.05471320     1.35176726    -0.00001961    -0.00003455     0.00069030
H         0.88413589     0.09624095    -0.62313326    -0.00057801    -0.00031310    -0.00011169
H         0.82565089    -0.07542171     2.00589397    -0.00000209     0.00062679    -0.00023827
H        -0.91115748    -0.07243486     1.85210646    -0.00002135    -0.00047273     0.00008680
H        -0.97099506     0.20728200    -0.61061819     0.00036641     0.00067850    -0.00005225
     6
  Step:    34            Position(A)                                  Velocity(au)
C        -0.04227859    -0.00546410    -0.04784840     0.00004171     0.00000333    -0.00083052
N        -0.03849248    -0.05491266     1.35573551    -0.00000444    -0.00003721     0.00073637
H         0.88097829     0.09432389    -0.62362216    -0.00055268    -0.00037513    -0.00006943
H         0.82515345    -0.07179557     2.00406346    -0.00017085     0.00067729    -0.00041421
H        -0.91147473    -0.07518390     1.85267765    -0.00009446    -0.00051565     0.00012052
H        -0.96890479     0.21108553    -0.61067803     0.00038265     0.00069086     0.00002674
     6
  Step:    35            Position(A)                                  Velocity(au)
C        -0.04205045    -0.00542779    -0.05259210     0.00004000     0.00000949    -0.00087127
N        -0.03847577    -0.05512626     1.35994183     0.00000993    -0.00003948     0.00077274
H         0.87800049     0.09207657    -0.62390397    -0.00051090    -0.00043066    -0.00003724
H         0.82375420    -0.06790307     2.00129572    -0.00032366     0.00072012    -0.00057199
H        -0.91220605    -0.07815911     1.85344439    -0.00016879    -0.00055237     0.00015610
H        -0.96674721     0.21495133    -0.61032137     0.00038865     0.00069853     0.00009704
     6
  Step:    36            Position(A)                                  Velocity(au)
C        -0.04183358    -0.00535857    -0.05754135     0.00003750     0.00001508    -0.00089979
N        -0.03838197    -0.05535187     1.36433228     0.00002294    -0.00004132     0.00079843
H         0.87529449     0.08953282    -0.62403650    -0.00045269    -0.00047953    -0.00001578
H         0.82155270    -0.06378426     1.99770005    -0.00045508     0.00075508    -0.00070685
H        -0.91335256    -0.08132898     1.85441422    -0.00024137    -0.00058295     0.00019198
H        -0.96458109     0.21885665    -0.60959842     0.00038348     0.00070184     0.00015736
     6
  Step:    37            Position(A)                                  Velocity(au)
C        -0.04163219    -0.00525956    -0.06262886     0.00003429     0.00002006    -0.00091576
N        -0.03821985    -0.05558711     1.36884796     0.00003404    -0.00004270     0.00081309
H         0.87295094     0.08672769    -0.62408001    -0.00037909    -0.00052168    -0.00000520
H         0.81867801    -0.05948056     1.99341115    -0.00056020     0.00078225    -0.00081482
H        -0.91489844    -0.08466159     1.85558589    -0.00030916    -0.00060749     0.00022663
H        -0.96246968     0.22278007    -0.60856604     0.00036682     0.00070135     0.00020670
     6
  Step:    38            Position(A)                                  Velocity(au)
C        -0.04144995    -0.00513421    -0.06778611     0.00003053     0.00002437    -0.00091973
N        -0.03800120    -0.05582956     1.37342844     0.00004274    -0.00004366     0.00081710
H         0.87105355     0.08369674    -0.62409471    -0.00029211    -0.00055737    -0.00000514
H         0.81528567    -0.05503314     1.98858460    -0.00063519     0.00080223    -0.00089322
H        -0.91681120    -0.08812507     1.85694951    -0.00036948    -0.00062638     0.00025865
H        -0.96047740     0.22670270    -0.60728602     0.00033901     0.00069784     0.00024454
     6
  Step:    39            Position(A)                                  Velocity(au)
C        -0.04128967    -0.00498609    -0.07294793     0.00002639     0.00002804    -0.00091306
N        -0.03774030    -0.05607699     1.37801559     0.00004872    -0.00004427     0.00081157
H         0.86967352     0.08047421    -0.62413766    -0.00019454    -0.00058724    -0.00001467
H         0.81155134    -0.05047977     1.98338954    -0.00067776     0.00081619    -0.00094100
H        -0.91904386    -0.09168938     1.85848782    -0.00042022    -0.00064030     0.00028700
H        -0.95866606     0.23060965    -0.60582241     0.00030104     0.00069242     0.00027098
     6
  Step:    40            Position(A)                                  Velocity(au)
C        -0.04115314    -0.00481880    -0.07805694     0.00002206     0.00003109    -0.00089777
N        -0.03745316    -0.05632751     1.38255757     0.00005179    -0.00004461     0.00079815
H         0.86886517     0.07709096    -0.62425978    -0.00008956    -0.00061236    -0.00003248
H         0.80766175    -0.04585201     1.97799953    -0.00068724     0.00082575    -0.00095876
H        -0.92153822    -0.09532770     1.86017788    -0.00046010    -0.00065025     0.00031105
H        -0.95709105     0.23449154    -0.60423786     0.00025437     0.00068633     0.00028673
     6
  Step:    41            Position(A)                                  Velocity(au)
C        -0.04104102    -0.00463567    -0.08306704     0.00001775     0.00003360    -0.00087612
N        -0.03715659    -0.05657981     1.38701183     0.00005191    -0.00004481     0.00077875
H         0.86866407     0.07357205    -0.62450374     0.00001967    -0.00063403    -0.00005697
H         0.80380511    -0.04117233     1.97258297    -0.00066449     0.00083284    -0.00094846
H        -0.92422985    -0.09901859     1.86199382    -0.00048861    -0.00065739     0.00033062
H        -0.95579898     0.23834561    -0.60259061     0.00020065     0.00068087     0.00029291
     6
  Step:    42            Position(A)                                  Velocity(au)
C        -0.04095287    -0.00443956    -0.08794467     0.00001361     0.00003568    -0.00085029
N        -0.03686735    -0.05683321     1.39134642     0.00004917    -0.00004498     0.00075522
H         0.86908720     0.06993537    -0.62490278     0.00013024    -0.00065363    -0.00008650
H         0.80016243    -0.03645277     1.96729539    -0.00061141     0.00083930    -0.00091289
H        -0.92705263    -0.10274688     1.86390920    -0.00050589    -0.00066287     0.00034583
H        -0.95482658     0.24217574    -0.60093218     0.00014154     0.00067711     0.00029087
     6
  Step:    43            Position(A)                                  Velocity(au)
C        -0.04088730    -0.00423282    -0.09266824     0.00000981     0.00003741    -0.00082204
N        -0.03660139    -0.05708767     1.39553954     0.00004375    -0.00004521     0.00072905
H         0.87013473     0.06619145    -0.62548045     0.00023959    -0.00067234    -0.00011941
H         0.79690127    -0.03169521     1.96227483    -0.00053066     0.00084670    -0.00085522
H        -0.92994217    -0.10650357     1.86589882    -0.00051239    -0.00066763     0.00035697
H        -0.95420077     0.24599138    -0.59930616     0.00007859     0.00067580     0.00028202
     6
  Step:    44            Position(A)                                  Velocity(au)
C        -0.04084217    -0.00401720    -0.09722590     0.00000643     0.00003889    -0.00079266
N        -0.03637335    -0.05734366     1.39957775     0.00003591    -0.00004559     0.00070135
H         0.87179224     0.06234434    -0.62625095     0.00034543    -0.00069108    -0.00015415
H         0.79417105    -0.02689313     1.95763953    -0.00042550     0.00085616    -0.00077875
H        -0.93283773    -0.11028472     1.86793960    -0.00050878    -0.00067229     0.00036441
H        -0.95393929     0.24980578    -0.59774809     0.00001322     0.00067725     0.00026763
     6