     6
  Step:     0            Position(A)                                  Velocity(au)
C        -0.04074009     0.00243101     0.00289241     0.00006678     0.00005280     0.00026658
N        -0.05227118    -0.05093629     1.30577645     0.00009367    -0.00009945    -0.00019571
H         0.94540707     0.05458798    -0.49581663    -0.00037315    -0.00022621     0.00005229
H         0.87704744    -0.14396646     1.87520933    -0.00119055     0.00057610    -0.00000840
H        -0.85957476    -0.01863927     1.85571192     0.00025224     0.00038570    -0.00003746
H        -0.96397689     0.11710037    -0.52305837    -0.00078600     0.00001724    -0.00046331
     6
  Step:     1            Position(A)                                  Velocity(au)
C        -0.04034480     0.00271541     0.00428967     0.00007673     0.00005141     0.00024296
N        -0.05167557    -0.05148838     1.30478485     0.00012334    -0.00010250    -0.00016623
H         0.94341371     0.05339411    -0.49574047    -0.00035374    -0.00021039    -0.00002595
H         0.87001647    -0.14078619     1.87487840    -0.00137150     0.00058607    -0.00010845
H        -0.85886872    -0.01649638     1.85602512     0.00000733     0.00039867     0.00014999
H        -0.96864594     0.11725419    -0.52598681    -0.00091046     0.00003749    -0.00060072
     6
  Step:     2            Position(A)                                  Velocity(au)
C        -0.03990086     0.00299326     0.00554966     0.00008452     0.00005042     0.00021649
N        -0.05092222    -0.05205735     1.30395843     0.00015096    -0.00010563    -0.00013533
H         0.94153827     0.05228691    -0.49610042    -0.00033043    -0.00019459    -0.00010703
H         0.86204743    -0.13755660     1.87402322    -0.00153198     0.00059416    -0.00019872
H        -0.85949459    -0.01427908     1.85735232    -0.00023064     0.00041282     0.00033032
H        -0.97393458     0.11751035    -0.52962839    -0.00101187     0.00005457    -0.00072363
     6
  Step:     3            Position(A)                                  Velocity(au)
C        -0.03942055     0.00326682     0.00665706     0.00008998     0.00004983     0.00018719
N        -0.05002480    -0.05264343     1.30330497     0.00017556    -0.00010870    -0.00010297
H         0.93980037     0.05126619    -0.49691090    -0.00030369    -0.00017874    -0.00019044
H         0.85326368    -0.13428888     1.87270528    -0.00166684     0.00059971    -0.00027607
H        -0.86139084    -0.01198205     1.85963733    -0.00045332     0.00042746     0.00049734
H        -0.97971110     0.11785092    -0.53389993    -0.00108805     0.00006829    -0.00083046
     6
  Step:     4            Position(A)                                  Velocity(au)
C        -0.03891678     0.00353825     0.00759691     0.00009302     0.00004960     0.00015519
N        -0.04900210    -0.05324616     1.30283230     0.00019622    -0.00011158    -0.00006923
H         0.93821684     0.05033202    -0.49818325    -0.00027411    -0.00016281    -0.00027542
H         0.84381724    -0.13099762     1.87100386    -0.00177054     0.00060209    -0.00033706
H        -0.86445249    -0.00960397     1.86279167    -0.00065299     0.00044180     0.00064527
H        -0.98583451     0.11825723    -0.53871114    -0.00113753     0.00007853    -0.00091996
     6
  Step:     5            Position(A)                                  Velocity(au)
C        -0.03840274     0.00380950     0.00835514     0.00009363     0.00004968     0.00012077
N        -0.04787778    -0.05386437     1.30254746     0.00021207    -0.00011415    -0.00003439
H         0.93680106     0.04948469    -0.49992456    -0.00024242    -0.00014681    -0.00036100
H         0.83389033    -0.12770077     1.86901721    -0.00183759     0.00060075    -0.00037817
H        -0.86853584    -0.00714790     1.86669793    -0.00082306     0.00045503     0.00076923
H        -0.99215800     0.11871022    -0.54396612    -0.00115966     0.00008527    -0.00099121
     6
  Step:     6            Position(A)                                  Velocity(au)
C        -0.03789149     0.00408228     0.00891936     0.00009188     0.00005004     0.00008433
N        -0.04667983    -0.05449613     1.30245574     0.00022242    -0.00011627     0.00000112
H         0.93556226     0.04872444    -0.50213639    -0.00020948    -0.00013077    -0.00044604
H         0.82369476    -0.12441917     1.86686273    -0.00186301     0.00059526    -0.00039606
H        -0.87346541    -0.00462120     1.87121510    -0.00095854     0.00046641     0.00086553
H        -0.99853337     0.11919095    -0.54956540    -0.00115471     0.00008857    -0.00104385
     6
  Step:     7            Position(A)                                  Velocity(au)
C        -0.03739553     0.00435803     0.00927958     0.00008794     0.00005063     0.00004642
N        -0.04543969    -0.05513891     1.30255972     0.00022678    -0.00011786     0.00003671
H         0.93450481     0.04805122    -0.50481398    -0.00017627    -0.00011480    -0.00052932
H         0.81346850    -0.12117568     1.86467571    -0.00184296     0.00058545    -0.00038789
H        -0.87904308    -0.00203521     1.87618560    -0.00105630     0.00047534     0.00093195
H        -1.00481559     0.11968109    -0.55540847    -0.00112378     0.00008860    -0.00107798
     6
  Step:     8            Position(A)                                  Velocity(au)
C        -0.03692641     0.00463792     0.00942879     0.00008201     0.00005140     0.00000763
N        -0.04419092    -0.05578967     1.30285867     0.00022494    -0.00011887     0.00007175
H         0.93362774     0.04746451    -0.50794572    -0.00014381    -0.00009902    -0.00060964
H         0.80346829    -0.11799388     1.86260559    -0.00177527     0.00057139    -0.00035172
H        -0.88505830     0.00059563     1.88144321    -0.00111522     0.00048138     0.00096782
H        -1.01086683     0.12016328    -0.56139624    -0.00106880     0.00008559    -0.00109432
     6
  Step:     9            Position(A)                                  Velocity(au)
C        -0.03649433     0.00492287     0.00936338     0.00007439     0.00005232    -0.00003140
N        -0.04296777    -0.05644516     1.30334816     0.00021697    -0.00011927     0.00010557
H         0.93292442     0.04696309    -0.51151344    -0.00011315    -0.00008357    -0.00068593
H         0.79395972    -0.11489655     1.86081063    -0.00165985     0.00055346    -0.00028674
H        -0.89129847     0.00325477     1.88682121    -0.00113610     0.00048433     0.00097399
H        -1.01656088     0.12062162    -0.56743413    -0.00099241     0.00007986    -0.00109410
     6
  Step:    10            Position(A)                                  Velocity(au)
C        -0.03610791     0.00521358     0.00908325     0.00006539     0.00005335    -0.00007006
N        -0.04180358    -0.05710208     1.30402026     0.00020322    -0.00011912     0.00013761
H         0.93238272     0.04654494    -0.51549312    -0.00008524    -0.00006862    -0.00075733
H         0.78520464    -0.11190410     1.85945058    -0.00149894     0.00053227    -0.00019358
H        -0.89755905     0.00592483     1.89216021    -0.00112140     0.00048421     0.00095256
H        -1.02178648     0.12104196    -0.57343482    -0.00089764     0.00007175    -0.00107900
     6
  Step:    11            Position(A)                                  Velocity(au)
C        -0.03577397     0.00551058     0.00859160     0.00005535     0.00005448    -0.00010780
N        -0.04072918    -0.05775737     1.30486403     0.00018428    -0.00011847     0.00016743
H         0.93198541     0.04620724    -0.51985611    -0.00006093    -0.00005428    -0.00082325
H         0.77744765    -0.10903314     1.85867822    -0.00129701     0.00050865    -0.00007434
H        -0.90365157     0.00858872     1.89731442    -0.00107471     0.00048119     0.00090652
H        -1.02644917     0.12141206    -0.57932024    -0.00078772     0.00006165    -0.00105096
     6
  Step:    12            Position(A)                                  Velocity(au)
C        -0.03549757     0.00581427     0.00789456     0.00004459     0.00005568    -0.00014418
N        -0.03977169    -0.05840842     1.30586640     0.00016093    -0.00011743     0.00019477
H         0.93171089     0.04594642    -0.52457054    -0.00004090    -0.00004068    -0.00088329
H         0.77090336    -0.10629549     1.85863092    -0.00106056     0.00048354     0.00006744
H        -0.90940920     0.01123063     1.90215586    -0.00100038     0.00047560     0.00083942
H        -1.03047222     0.12172171    -0.58502309    -0.00066585     0.00004990    -0.00101204
     6
  Step:    13            Position(A)                                  Velocity(au)
C        -0.03528201     0.00612498     0.00700068     0.00003339     0.00005695    -0.00017883
N        -0.03895340    -0.05905313     1.30701316     0.00013411    -0.00011609     0.00021953
H         0.93153411     0.04575836    -0.52960265    -0.00002567    -0.00002789    -0.00093728
H         0.76574508    -0.10369762     1.85942235    -0.00079777     0.00045788     0.00022688
H        -0.91469010     0.01383665     1.90657689    -0.00090302     0.00046781     0.00075498
H        -1.03379637     0.12196263    -0.59048736    -0.00053499     0.00003684    -0.00096423
     6
  Step:    14            Position(A)                                  Velocity(au)
C        -0.03512901     0.00644294     0.00592031     0.00002201     0.00005826    -0.00021149
N        -0.03829119    -0.05969000     1.30828994     0.00010479    -0.00011455     0.00024177
H         0.93142750     0.04563849    -0.53491779    -0.00001559    -0.00001597    -0.00098509
H         0.76209619    -0.10124066     1.86113557    -0.00051799     0.00043256     0.00039805
H        -0.91937822     0.01639511     1.91049063    -0.00078713     0.00045820     0.00065681
H        -1.03637834     0.12212836    -0.59566787    -0.00039777     0.00002276    -0.00090934
     6
  Step:    15            Position(A)                                  Velocity(au)
C        -0.03503896     0.00676834     0.00466525     0.00001068     0.00005960    -0.00024191
N        -0.03779623    -0.06031805     1.30968297     0.00007399    -0.00011288     0.00026163
H         0.93136195     0.04558202    -0.54048086    -0.00001085    -0.00000493    -0.00102660
H         0.76002494    -0.09892095     1.86381796    -0.00023125     0.00040831     0.00057424
H        -0.92338229     0.01889655     1.91383002    -0.00065695     0.00044712     0.00054828
H        -1.03818887     0.12221396    -0.60052915    -0.00025648     0.00000793    -0.00084892
     6
  Step:    16            Position(A)                                  Velocity(au)
C        -0.03501106     0.00710122     0.00324846    -0.00000041     0.00006094    -0.00026988
N        -0.03747393    -0.06093675     1.31117954     0.00004273    -0.00011114     0.00027929
H         0.93130762     0.04558406    -0.54625635    -0.00001151     0.00000520    -0.00106161
H         0.75954203    -0.09673093     1.86747791     0.00005212     0.00038571     0.00074825
H        -0.92663417     0.02133350     1.91654634    -0.00051639     0.00043484     0.00043247
H        -1.03921110     0.12221590    -0.60504408    -0.00011320    -0.00000742    -0.00078427
     6
  Step:    17            Position(A)                                  Velocity(au)
C        -0.03504347     0.00744150     0.00168406    -0.00001108     0.00006224    -0.00029515
N        -0.03732419    -0.06154580     1.31276810     0.00001197    -0.00010936     0.00029492
H         0.93123484     0.04563950    -0.55220795    -0.00001747     0.00001443    -0.00108980
H         0.76060073    -0.09466025     1.87208351     0.00032208     0.00036510     0.00091280
H        -0.92908659     0.02370005     1.91860736    -0.00036911     0.00042158     0.00031225
H        -1.03943936     0.12213202    -0.60919257     0.00003012    -0.00002305    -0.00071646
     6
  Step:    18            Position(A)                                  Velocity(au)
C        -0.03513347     0.00778889    -0.00001270    -0.00002117     0.00006345    -0.00031747
N        -0.03734165    -0.06214505     1.31443811    -0.00001737    -0.00010752     0.00030863
H         0.93111458     0.04574348    -0.55829763    -0.00002854     0.00002276    -0.00111068
H         0.76310070    -0.09269696     1.87756351     0.00056926     0.00034664     0.00106089
H        -0.93071244     0.02599159     1.91999647    -0.00021866     0.00040751     0.00019038
H        -1.03887834     0.12196118    -0.61296030     0.00017154    -0.00003878    -0.00064643
     6
  Step:    19            Position(A)                                  Velocity(au)
C        -0.03527746     0.00814282    -0.00182513    -0.00003052     0.00006451    -0.00033652
N        -0.03751619    -0.06273431     1.31617960    -0.00004446    -0.00010561     0.00032045
H         0.93091933     0.04589113    -0.56448506    -0.00004437     0.00003021    -0.00112371
H         0.76689310    -0.09082862     1.88381019     0.00078540     0.00033031     0.00118620
H        -0.93150359     0.02820451     1.92071173    -0.00006857     0.00039277     0.00006954
H        -1.03754321     0.12170341    -0.61633803     0.00030903    -0.00005435    -0.00057508
     6
  Step:    20            Position(A)                                  Velocity(au)
C        -0.03547103     0.00850244    -0.00373497    -0.00003897     0.00006537    -0.00035199
N        -0.03783344    -0.06331324     1.31798262    -0.00006857    -0.00010359     0.00033030
H         0.93062379     0.04607763    -0.57072711    -0.00006445     0.00003676    -0.00112834
H         0.77178806    -0.08904339     1.89068421     0.00096378     0.00031593     0.00128353
H        -0.93147086     0.03033602     1.92076570     0.00007759     0.00037751    -0.00004752
H        -1.03546016     0.12135997    -0.61932130     0.00044039    -0.00006954    -0.00050331
     6
  Step:    21            Position(A)                                  Velocity(au)
C        -0.03570897     0.00886656    -0.00572231    -0.00004639     0.00006596    -0.00036357
N        -0.03827542    -0.06388129     1.31983667    -0.00008910    -0.00010143     0.00033805
H         0.93020570     0.04629812    -0.57697794    -0.00008815     0.00004241    -0.00112415
H         0.77756404    -0.08733068     1.89802131     0.00109964     0.00030323     0.00134912
H        -0.93064453     0.03238430     1.92018561     0.00021613     0.00036195    -0.00015804
H        -1.03266729     0.12093345    -0.62191063     0.00056332    -0.00008408    -0.00043213
     6
  Step:    22            Position(A)                                  Velocity(au)
C        -0.03598528     0.00923366    -0.00776562    -0.00005262     0.00006623    -0.00037105
N        -0.03882126    -0.06443767     1.32173026    -0.00010561    -0.00009908     0.00034350
H         0.92964657     0.04654776    -0.58318960    -0.00011468     0.00004716    -0.00111096
H         0.78397888    -0.08568173     1.90564079     0.00119044     0.00029189     0.00138099
H        -0.92907479     0.03434868     1.91901359     0.00034339     0.00034636    -0.00025930
H        -1.02921511     0.12042784    -0.62411198     0.00067553    -0.00009771    -0.00036266
     6
  Step:    23            Position(A)                                  Velocity(au)
C        -0.03629328     0.00960196    -0.00984222    -0.00005758     0.00006616    -0.00037430
N        -0.03944808    -0.06498147     1.32365070    -0.00011783    -0.00009656     0.00034650
H         0.92893241     0.04682171    -0.58931343    -0.00014317     0.00005102    -0.00108899
H         0.79078204    -0.08408972     1.91335508     0.00123602     0.00028159     0.00137906
H        -0.92683174     0.03623008     1.91730647     0.00045587     0.00033111    -0.00034874
H        -1.02516663     0.11984851    -0.62593743     0.00077488    -0.00011020    -0.00029612
     6
  Step:    24            Position(A)                                  Velocity(au)
C        -0.03662577     0.00996953    -0.01192889    -0.00006120     0.00006573    -0.00037341
N        -0.04013187    -0.06551171     1.32558424    -0.00012569    -0.00009389     0.00034694
H         0.92805409     0.04711529    -0.59530209    -0.00017276     0.00005406    -0.00105890
H         0.79772670    -0.08254970     1.92097963     0.00123848     0.00027207     0.00134509
H        -0.92400428     0.03803152     1.91513472     0.00055052     0.00031668    -0.00042416
H        -1.02059631     0.11920210    -0.62740564     0.00085967    -0.00012136    -0.00023376
     6
  Step:    25            Position(A)                                  Velocity(au)
C        -0.03697524     0.01033436    -0.01400284    -0.00006347     0.00006497    -0.00036861
N        -0.04084854    -0.06602759     1.32751648    -0.00012930    -0.00009112     0.00034487
H         0.92700747     0.04742403    -0.60111205    -0.00020259     0.00005633    -0.00102183
H         0.80458162    -0.08105817     1.92834262     0.00120198     0.00026318     0.00128253
H        -0.92069763     0.03975863     1.91258035     0.00062497     0.00030362    -0.00048394
H        -1.01558781     0.11849626    -0.62854203     0.00092878    -0.00013108    -0.00017678
     6
  Step:    26            Position(A)                                  Velocity(au)
C        -0.03733416     0.01069459    -0.01604275    -0.00006443     0.00006392    -0.00036036
N        -0.04157492    -0.06652863     1.32943313    -0.00012896    -0.00008835     0.00034044
H         0.92579306     0.04774390    -0.60670621    -0.00023197     0.00005794    -0.00097935
H         0.81114137    -0.07961253     1.93529331     0.00113215     0.00025483     0.00119601
H        -0.91702930     0.04142010     1.90973367     0.00067775     0.00029256    -0.00052718
H        -1.01023065     0.11773922    -0.62937856     0.00098180    -0.00013933    -0.00012626
     6
  Step:    27            Position(A)                                  Velocity(au)
C        -0.03769520     0.01104865    -0.01802979    -0.00006415     0.00006266    -0.00034924
N        -0.04228960    -0.06701484     1.33132083    -0.00012507    -0.00008569     0.00033397
H         0.92441524     0.04807146    -0.61205613    -0.00026038     0.00005903    -0.00093331
H         0.81723312    -0.07821046     1.94170775     0.00103541     0.00024708     0.00109078
H        -0.91312393     0.04302795     1.90668926     0.00070832     0.00028413    -0.00055368
H        -1.00461635     0.11693931    -0.62995302     0.00101907    -0.00014618    -0.00008309
     6
  Step:    28            Position(A)                                  Velocity(au)
C        -0.03805155     0.01139536    -0.01994836    -0.00006276     0.00006128    -0.00033590
N        -0.04297359    -0.06748689     1.33316790    -0.00011812    -0.00008327     0.00032583
H         0.92288116     0.04840401    -0.61714351    -0.00028753     0.00005975    -0.00088559
H         0.82272042    -0.07684936     1.94749164     0.00091826     0.00024004     0.00097213
H        -0.90910807     0.04459761     1.90354185     0.00071699     0.00027895    -0.00056391
H        -0.99883426     0.11610444    -0.63030773     0.00104152    -0.00015180    -0.00004784
     6
  Step:    29            Position(A)                                  Velocity(au)
C        -0.03839705     0.01173402    -0.02178646    -0.00006037     0.00005986    -0.00032095
N        -0.04361065    -0.06794613     1.33496487    -0.00010860    -0.00008121     0.00031644
H         0.92119958     0.04873965    -0.62196041    -0.00031328     0.00006025    -0.00083791
H         0.82750284    -0.07552594     1.95257990     0.00078663     0.00023382     0.00084476
H        -0.90510524     0.04614770     1.90038256     0.00070469     0.00027755    -0.00055883
H        -0.99296817     0.11524161    -0.63048807     0.00105042    -0.00015638    -0.00002086
     6
  Step:    30            Position(A)                                  Velocity(au)
C        -0.03872626     0.01206442    -0.02353547    -0.00005710     0.00005848    -0.00030491
N        -0.04418732    -0.06839456     1.33670457    -0.00009694    -0.00007961     0.00030615
H         0.91937983     0.04907735    -0.62650832    -0.00033763     0.00006067    -0.00079166
H         0.83151213    -0.07423608     1.95693306     0.00064541     0.00022856     0.00071249
H        -0.90123217     0.04769958     1.89729612     0.00067273     0.00028035    -0.00053965
H        -0.98709432     0.11435663    -0.63054090     0.00104708    -0.00016016    -0.00000228
     6
  Step:    31            Position(A)                                  Velocity(au)
C        -0.03903438     0.01238676    -0.02518959    -0.00005373     0.00005989    -0.00033228
N        -0.04469267    -0.06883469     1.33838190    -0.00008330    -0.00008168     0.00032915
H         0.91743121     0.04941685    -0.63079625    -0.00038067     0.00012346    -0.00070228
H         0.83470643    -0.07297494     1.96053218     0.00048398     0.00016314     0.00056728
H        -0.89759671     0.04927671     1.89435940     0.00064106     0.00036386    -0.00052224
H        -0.98128145     0.11345404    -0.63051357     0.00105335    -0.00022910     0.00004274
     6
  Step:    32            Position(A)                                  Velocity(au)
C        -0.03932485     0.01273168    -0.02723746    -0.00004981     0.00006432    -0.00040905
N        -0.04511533    -0.06930454     1.34037167    -0.00006814    -0.00008735     0.00039101
H         0.91513876     0.05045287    -0.63433246    -0.00044481     0.00022435    -0.00056882
H         0.83690425    -0.07241852     1.96325318     0.00030365     0.00006279     0.00040367
H        -0.89409000     0.05175337     1.89147776     0.00061103     0.00049874    -0.00051359
H        -0.97535878     0.11180417    -0.63006469     0.00107054    -0.00033849     0.00011944
     6
  Step:    33            Position(A)                                  Velocity(au)
C        -0.03958831     0.01310207    -0.02973863    -0.00004444     0.00006895    -0.00049035
N        -0.04545045    -0.06980609     1.34273029    -0.00005197    -0.00009328     0.00045735
H         0.91248446     0.05191184    -0.63712209    -0.00050863     0.00029304    -0.00043791
H         0.83808336    -0.07227669     1.96502143     0.00012168    -0.00000328     0.00023305
H        -0.89080147     0.05482321     1.88864770     0.00056357     0.00059893    -0.00050017
H        -0.96937599     0.10968965    -0.62918524     0.00107518    -0.00041401     0.00019264
     6
  Step:    34            Position(A)                                  Velocity(au)
C        -0.03981835     0.01349735    -0.03268278    -0.00003792     0.00007335    -0.00056837
N        -0.04569251    -0.07034043     1.34545049    -0.00003485    -0.00009932     0.00052106
H         0.90949042     0.05370712    -0.63919544    -0.00056689     0.00034938    -0.00031251
H         0.83825547    -0.07245492     1.96584117    -0.00005683    -0.00005593     0.00006481
H        -0.88783156     0.05840441     1.88592345     0.00049770     0.00068792    -0.00047586
H        -0.96341900     0.10720656    -0.62792545     0.00106220    -0.00047526     0.00025543
     6
  Step:    35            Position(A)                                  Velocity(au)
C        -0.04000900     0.01391585    -0.03604450    -0.00003031     0.00007733    -0.00064066
N        -0.04583715    -0.07090797     1.34851131    -0.00001706    -0.00010530     0.00057998
H         0.90619504     0.05578808    -0.64058931    -0.00061665     0.00039792    -0.00019396
H         0.83745287    -0.07289717     1.96574046    -0.00022776    -0.00010014    -0.00009687
H        -0.88527968     0.06245544     1.88336817     0.00041409     0.00077055    -0.00043977
H        -0.95759123     0.10441680    -0.62635133     0.00102858    -0.00052643     0.00030524
     6
  Step:    36            Position(A)                                  Velocity(au)
C        -0.04015450     0.01435500    -0.03978843    -0.00002168     0.00008073    -0.00070545
N        -0.04588177    -0.07150836     1.35188305     0.00000098    -0.00011109     0.00063255
H         0.90265111     0.05812049    -0.64134670    -0.00065524     0.00044076    -0.00008374
H         0.83572940    -0.07356558     1.96476681    -0.00038667    -0.00013836    -0.00024815
H        -0.88323880     0.06695066     1.88104587     0.00031455     0.00084861    -0.00039225
H        -0.95201092     0.10136788    -0.62453998     0.00097199    -0.00056933     0.00034020
     6
  Step:    37            Position(A)                                  Velocity(au)
C        -0.04024947     0.01481152    -0.04387092    -0.00001214     0.00008344    -0.00076126
N        -0.04582626    -0.07214040     1.35552896     0.00001875    -0.00011650     0.00067755
H         0.89892567     0.06067800    -0.64151837    -0.00068019     0.00047895     0.00001649
H         0.83316308    -0.07443217     1.96298742    -0.00052880    -0.00017196    -0.00038518
H        -0.88179002     0.07187013     1.87901648     0.00020197     0.00092251    -0.00033454
H        -0.94680771     0.09810054    -0.62257713     0.00089104    -0.00060483     0.00035894
     6
  Step:    38            Position(A)                                  Velocity(au)
C        -0.04028927     0.01528145    -0.04824112    -0.00000187     0.00008534    -0.00080693
N        -0.04567354    -0.07280192     1.35940630     0.00003563    -0.00012138     0.00071404
H         0.89509860     0.06343859    -0.64116365    -0.00068938     0.00051314     0.00010500
H         0.82985778    -0.07547494     1.96048995    -0.00064931    -0.00020174    -0.00050413
H        -0.88099620     0.07719386     1.87733122     0.00008038     0.00099191    -0.00026874
H        -0.94211721     0.09465213    -0.62055441     0.00078548    -0.00063346     0.00036077
     6
  Step:    39            Position(A)                                  Velocity(au)
C        -0.04027030     0.01576034    -0.05284250     0.00000887     0.00008638    -0.00084169
N        -0.04543010    -0.07348994     1.36346775     0.00005095    -0.00012559     0.00074140
H         0.89126104     0.06638321    -0.64035097    -0.00068119     0.00054378     0.00018016
H         0.82594388    -0.07667517     1.95738241    -0.00074360    -0.00022819    -0.00060148
H        -0.88089636     0.08289840     1.87602857    -0.00004535     0.00105608    -0.00019754
H        -0.93807460     0.09105764    -0.61856598     0.00065646    -0.00065568     0.00034576
     6
  Step:    40            Position(A)                                  Velocity(au)
C        -0.04019049     0.01624345    -0.05761490     0.00001978     0.00008655    -0.00086529
N        -0.04510617    -0.07420064     1.36766314     0.00006404    -0.00012903     0.00075945
H         0.88751237     0.06949456    -0.63915719    -0.00065466     0.00057127     0.00024065
H         0.82157650    -0.07801629     1.95379143    -0.00080768    -0.00025168    -0.00067428
H        -0.88150129     0.08895521     1.87513130    -0.00016986     0.00111420    -0.00012402
H        -0.93480631     0.08734991    -0.61670380     0.00050664    -0.00067206     0.00031488
     6
  Step:    41            Position(A)                                  Velocity(au)
C        -0.04004962     0.01672602    -0.06249724     0.00003050     0.00008587    -0.00087798
N        -0.04471559    -0.07492963     1.37194157     0.00007431    -0.00013162     0.00076842
H         0.88395648     0.07275739    -0.63766579    -0.00060965     0.00059603     0.00028565
H         0.81693189    -0.07948334     1.94985895    -0.00083864    -0.00027250    -0.00072047
H        -0.88279168     0.09533046     1.87464481    -0.00028777     0.00116555    -0.00005136
H        -0.93242163     0.08355892    -0.61505256     0.00033999    -0.00068329     0.00027003
     6
  Step:    42            Position(A)                                  Velocity(au)
C        -0.03984952     0.01720349    -0.06743037     0.00004067     0.00008444    -0.00088056
N        -0.04427541    -0.07567213     1.37625376     0.00008130    -0.00013335     0.00076896
H         0.88069668     0.07615800    -0.63596368    -0.00054688     0.00061853     0.00031498
H         0.81220081    -0.08106272     1.94573681    -0.00083491    -0.00029097    -0.00073914
H        -0.88471842     0.10198567     1.87455706    -0.00039413     0.00120969     0.00001745
H        -0.93100539     0.07971103    -0.61368496     0.00016152    -0.00069025     0.00021381
     6
  Step:    43            Position(A)                                  Velocity(au)
C        -0.03959413     0.01767175    -0.07235987     0.00004993     0.00008235    -0.00087425
N        -0.04380499    -0.07642326     1.38055421     0.00008471    -0.00013426     0.00076206
H         0.87783116     0.07968521    -0.63413785    -0.00046776     0.00063938     0.00032907
H         0.80758050    -0.08274238     1.94158021    -0.00079640    -0.00030747    -0.00073056
H        -0.88720608     0.10887950     1.87484023    -0.00048490     0.00124651     0.00007992
H        -0.93061251     0.07582777    -0.61265779    -0.00002314    -0.00069402     0.00014935
     6
  Step:    44            Position(A)                                  Velocity(au)
C        -0.03928935     0.01812733    -0.07723833     0.00005798     0.00007974    -0.00086056
N        -0.04332505    -0.07717830     1.38480306     0.00008443    -0.00013439     0.00074893
H         0.87544905     0.08333099    -0.63227190    -0.00037425     0.00065924     0.00032894
H         0.80326620    -0.08451215     1.93754089    -0.00072447    -0.00032240    -0.00069612
H        -0.89015841     0.11596991     1.87545368    -0.00055717     0.00127627     0.00013420
H        -0.93126497     0.07192507    -0.61200939    -0.00020823    -0.00069568     0.00008002
     6