 Fermi distribution function

Calculation with static geometry


********************************************************************************
 iSCC Total electronic   Diff electronic      SCC error    
   10   -0.53918875E+01   -0.63238303E-12    0.43832663E-06
********************************************************************************

 Total charge:     1.00000000

 Atomic gross charges (e)
 Atom           Charge
    1       0.18639850
    2      -0.08903249
    3       0.13760754
    4       0.28663798
    5       0.27630172
    6       0.20208674

Nr. of electrons (up):     12.00000000
Atom populations (up)
 Atom       Population
    1       3.81360150
    2       5.08903249
    3       0.86239246
    4       0.71336202
    5       0.72369828
    6       0.79791326

l-shell populations (up)
 Atom Sh.   l       Population
    1   1   0       1.31414968
    1   2   1       2.49945181
    2   1   0       1.42038354
    2   2   1       3.66864895
    3   1   0       0.86239246
    4   1   0       0.71336202
    5   1   0       0.72369828
    6   1   0       0.79791326

Orbital populations (up)
 Atom Sh.   l   m       Population  Label
    1   1   0   0       1.31414968  s
    1   2   1  -1       0.57385640  p_y
    1   2   1   0       0.88452029  p_z
    1   2   1   1       1.04107513  p_x
    2   1   0   0       1.42038354  s
    2   2   1  -1       1.28444541  p_y
    2   2   1   0       1.11063885  p_z
    2   2   1   1       1.27356468  p_x
    3   1   0   0       0.86239246  s
    4   1   0   0       0.71336202  s
    5   1   0   0       0.72369828  s
    6   1   0   0       0.79791326  s

Fermi level:                        -0.4931053873 H          -13.4181 eV
Band energy:                        -8.8953472668 H         -242.0547 eV
TS:                                  0.0000000000 H            0.0000 eV
Band free energy (E-TS):            -8.8953472668 H         -242.0547 eV
Extrapolated E(0K):                 -8.8953472668 H         -242.0547 eV
Input / Output electrons (q):     12.0000000000     12.0000000000

Energy H0:                          -5.5249463043 H         -150.3414 eV
Energy SCC:                          0.1330588151 H            3.6207 eV
Total Electronic energy:            -5.3918874892 H         -146.7207 eV
Repulsive energy:                    0.1890846080 H            5.1453 eV
Total energy:                       -5.2028028811 H         -141.5755 eV
Extrapolated to 0:                  -5.2028028811 H         -141.5755 eV
Total Mermin free energy:           -5.2028028811 H         -141.5755 eV
Force related energy:               -5.2028028811 H         -141.5755 eV

SCC converged

Excitation Energy:                   0.1108343725 H            3.0160 eV

Total Forces
    1     -0.006113963970     -0.017419289908      0.038419929030
    2     -0.001862852487      0.007646062774     -0.041373147351
    3      0.000295111183      0.010649681771     -0.000270330358
    4     -0.009264672770     -0.004564905637     -0.000591739647
    5      0.009907236015      0.006304759901      0.004894521410
    6      0.007039142030     -0.002616308900     -0.001079233085

Maximal derivative component:        0.413731E-01 au


