     6
  Step:     0            Position(A)                                  Velocity(au)
C        -0.04273253     0.01256404     0.00765403    -0.00006012     0.00011075     0.00017583
N        -0.03639215    -0.06541919     1.30453810     0.00021409    -0.00006897    -0.00024976
H         0.90970336    -0.02210147    -0.49627257     0.00002034    -0.00033466    -0.00016409
H         0.82287924    -0.06915384     1.85961394    -0.00152120     0.00012395     0.00006453
H        -0.94984933     0.02810166     1.84245669    -0.00122787     0.00047175     0.00096376
H        -0.98074982     0.15275051    -0.53328296     0.00047011    -0.00062239     0.00051136
     6
  Step:     1            Position(A)                                  Velocity(au)
C        -0.04306723     0.01316808     0.00829829    -0.00006146     0.00011018     0.00005923
N        -0.03526085    -0.06582823     1.30346061     0.00019732    -0.00008057    -0.00014348
H         0.91006853    -0.02381575    -0.49732775     0.00011050    -0.00029245    -0.00022060
H         0.81475051    -0.06835214     1.86004115    -0.00143532     0.00016955     0.00010005
H        -0.95628986     0.03076846     1.84759802    -0.00111182     0.00050123     0.00090616
H        -0.97827796     0.14948231    -0.53050017     0.00042711    -0.00057171     0.00050252
     6
  Step:     2            Position(A)                                  Velocity(au)
C        -0.04340486     0.01376928     0.00830188    -0.00006115     0.00010972    -0.00005795
N        -0.03423375    -0.06630052     1.30296861     0.00017625    -0.00009207    -0.00003624
H         0.91091205    -0.02530052    -0.49868559     0.00019436    -0.00025087    -0.00027439
H         0.80717872    -0.06729915     1.86070834    -0.00131830     0.00021570     0.00015235
H        -0.96201113     0.03358441     1.85236882    -0.00096754     0.00052636     0.00083007
H        -0.97607786     0.14649677    -0.52778606     0.00037096    -0.00051932     0.00048604
     6
  Step:     3            Position(A)                                  Velocity(au)
C        -0.04373610     0.01436826     0.00766443    -0.00005912     0.00010940    -0.00017474
N        -0.03333299    -0.06683530     1.30306426     0.00015143    -0.00010342     0.00007089
H         0.91219452    -0.02655983    -0.50032907     0.00027035    -0.00021018    -0.00032483
H         0.80033066    -0.06599281     1.86170759    -0.00117219     0.00026213     0.00022124
H        -0.96687304     0.03652590     1.85667751    -0.00080023     0.00054735     0.00073902
H        -0.97422038     0.14380185    -0.52518376     0.00030225    -0.00046585     0.00046166
     6
  Step:     4            Position(A)                                  Velocity(au)
C        -0.04405145     0.01496573     0.00639086    -0.00005536     0.00010920    -0.00029020
N        -0.03257760    -0.06743154     1.30374389     0.00012342    -0.00011456     0.00017690
H         0.91386867    -0.02759915    -0.50223802     0.00033720    -0.00017056    -0.00037138
H         0.79435915    -0.06443243     1.86312787    -0.00099975     0.00030858     0.00030571
H        -0.97076281     0.03957044     1.86045104    -0.00061453     0.00056432     0.00063612
H        -0.97277233     0.14140204    -0.52273712     0.00022175    -0.00041180     0.00042930
     6
  Step:     5            Position(A)                                  Velocity(au)
C        -0.04434145     0.01556235     0.00449124    -0.00004988     0.00010910    -0.00040335
N        -0.03198346    -0.06808789     1.30499861     0.00009279    -0.00012540     0.00028085
H         0.91588159    -0.02842481    -0.50438984     0.00039404    -0.00013211    -0.00041362
H         0.78939900    -0.06261866     1.86505030    -0.00080457     0.00035478     0.00040384
H        -0.97359260     0.04269646     1.86363306    -0.00041484     0.00057739     0.00052423
H        -0.97179571     0.13929903    -0.52048967     0.00013038    -0.00035759     0.00038904
     6
  Step:     6            Position(A)                                  Velocity(au)
C        -0.04459684     0.01615855     0.00198101    -0.00004274     0.00010902    -0.00051304
N        -0.03156308    -0.06880256     1.30681447     0.00006019    -0.00013584     0.00038172
H         0.91817675    -0.02904357    -0.50676019     0.00044030    -0.00009488    -0.00045124
H         0.78556258    -0.06055356     1.86754318    -0.00059116     0.00040038     0.00051276
H        -0.97529831     0.04588319     1.86618255    -0.00020546     0.00058661     0.00040606
H        -0.97134691     0.13749240    -0.51848361     0.00002930    -0.00030354     0.00034124
     6
  Step:     7            Position(A)                                  Velocity(au)
C        -0.04480876     0.01675436    -0.00111832    -0.00003403     0.00010885    -0.00061798
N        -0.03132537    -0.06957320     1.30917237     0.00002631    -0.00014575     0.00047844
H         0.92069578    -0.02946226    -0.50932367     0.00047570    -0.00005888    -0.00048403
H         0.78293522    -0.05824092     1.87065682    -0.00036499     0.00044495     0.00062858
H        -0.97583908     0.04911047     1.86807296     0.00000913     0.00059203     0.00028429
H        -0.97147539     0.13598016    -0.51675854    -0.00007998    -0.00024989     0.00028647
     6
  Step:     8            Position(A)                                  Velocity(au)
C        -0.04496900     0.01734919    -0.00477834    -0.00002390     0.00010847    -0.00071663
N        -0.03127527    -0.07039676     1.31204755    -0.00000802    -0.00015495     0.00056975
H         0.92337993    -0.02968757    -0.51205445     0.00050023    -0.00002410    -0.00051189
H         0.78157034    -0.05568677     1.87441855    -0.00013251     0.00048792     0.00074653
H        -0.97519839     0.05235870     1.86929212     0.00022408     0.00059367     0.00016171
H        -0.97222177     0.13475918    -0.51535020    -0.00019549    -0.00019686     0.00022561
     6
  Step:     9            Position(A)                                  Velocity(au)
C        -0.04507033     0.01794172    -0.00896258    -0.00001257     0.00010772    -0.00080725
N        -0.03141320    -0.07126932     1.31540886    -0.00004191    -0.00016325     0.00065426
H         0.92617126    -0.02972600    -0.51492679     0.00051404     0.00000945    -0.00053479
H         0.78148480    -0.05290015     1.87882835     0.00009895     0.00052855     0.00086108
H        -0.97338631     0.05560881     1.86984308     0.00043391     0.00059161     0.00004138
H        -0.97361522     0.13382530    -0.51428903    -0.00031466    -0.00014472     0.00015981
     6
  Step:    10            Position(A)                                  Velocity(au)
C        -0.04510681     0.01852977    -0.01362537    -0.00000036     0.00010644    -0.00088793
N        -0.03173453    -0.07218589     1.31921781    -0.00007431    -0.00017042     0.00073040
H         0.92901354    -0.02958403    -0.51791538     0.00051753     0.00004168    -0.00055275
H         0.78265482    -0.04989418     1.88385551     0.00032139     0.00056591     0.00096629
H        -0.97044304     0.05884240     1.86974567     0.00063245     0.00058598    -0.00007329
H        -0.97567027     0.13317310    -0.51359876    -0.00043432    -0.00009379     0.00009054
     6
  Step:    11            Position(A)                                  Velocity(au)
C        -0.04507429     0.01911030    -0.01871104     0.00001236     0.00010447    -0.00095671
N        -0.03222906    -0.07314030     1.32342776    -0.00010414    -0.00017622     0.00079653
H         0.93185313    -0.02926846    -0.52099536     0.00051124     0.00007243    -0.00056578
H         0.78501324    -0.04668712     1.88943707     0.00052653     0.00059890     0.00105616
H        -0.96644278     0.06204213     1.86903848     0.00081291     0.00057701    -0.00017857
H        -0.97838354     0.13279554    -0.51329495    -0.00055071    -0.00004452     0.00001956
     6
  Step:    12            Position(A)                                  Velocity(au)
C        -0.04497074     0.01967946    -0.02415379     0.00002515     0.00010170    -0.00101178
N        -0.03288062    -0.07412515     1.32798345    -0.00013028    -0.00018044     0.00085106
H         0.93463962    -0.02878691    -0.52414172     0.00049587     0.00010149    -0.00057377
H         0.78844920    -0.04330339     1.89547842     0.00070646     0.00062634     0.00112524
H        -0.96149714     0.06519233     1.86778056     0.00096818     0.00056515    -0.00027056
H        -0.98173074     0.13268316    -0.51338354    -0.00065967     0.00000253    -0.00005116
     6
  Step:    13            Position(A)                                  Velocity(au)
C        -0.04479668     0.02023280    -0.02987842     0.00003751     0.00009805    -0.00105171
N        -0.03366707    -0.07513188     1.33282124    -0.00015169    -0.00018292     0.00089264
H         0.93732626    -0.02814832    -0.52732829     0.00047227     0.00012854    -0.00057645
H         0.79281072    -0.03977398     1.90185681     0.00085429     0.00064712     0.00116918
H        -0.95575663     0.06827993     1.86605222     0.00109140     0.00055106    -0.00034546
H        -0.98566452     0.13282346    -0.51385964    -0.00075690     0.00004668    -0.00011945
     6
  Step:    14            Position(A)                                  Velocity(au)
C        -0.04455529     0.02076549    -0.03580239     0.00004895     0.00009353    -0.00107578
N        -0.03456074    -0.07615110     1.33787019    -0.00016752    -0.00018359     0.00092041
H         0.93987043    -0.02736327    -0.53052639     0.00044160     0.00015329    -0.00057373
H         0.79791121    -0.03613602     1.90842808     0.00096500     0.00066041     0.00118537
H        -0.94940901     0.07129574     1.86395430     0.00117661     0.00053570    -0.00039991
H        -0.99011403     0.13320019    -0.51470655    -0.00083848     0.00008722    -0.00018308
     6
  Step:    15            Position(A)                                  Velocity(au)
C        -0.04425243     0.02127276    -0.04183948     0.00009687     0.00014474    -0.00177884
N        -0.03552967    -0.07717313     1.34305486    -0.00029083    -0.00029949     0.00153292
H         0.94223619    -0.02644401    -0.53370729     0.00066524     0.00028798    -0.00092868
H         0.80354014    -0.03243119     1.91503634     0.00169994     0.00109251     0.00192511
H        -0.94267452     0.07423612     1.86160579     0.00200097     0.00085376    -0.00070786
H        -0.99498713     0.13379322    -0.51589518    -0.00147886     0.00020265    -0.00039376
     6
  Step:    16            Position(A)                                  Velocity(au)
C        -0.04369944     0.02205693    -0.05144271     0.00009794     0.00013222    -0.00161247
N        -0.03715118    -0.07880825     1.35138771    -0.00027840    -0.00027833     0.00140865
H         0.94610677    -0.02488636    -0.53914315     0.00069720     0.00026278    -0.00098715
H         0.81310841    -0.02642749     1.92571060     0.00165642     0.00102768     0.00182974
H        -0.93159472     0.07887047     1.85767462     0.00188576     0.00078868    -0.00066417
H        -1.00356156     0.13497488    -0.51856615    -0.00153770     0.00021299    -0.00053934
     6
  Step:    17            Position(A)                                  Velocity(au)
C        -0.04314237     0.02277123    -0.06011457     0.00009706     0.00011865    -0.00143302
N        -0.03868491    -0.08032756     1.35902000    -0.00025693    -0.00025545     0.00127036
H         0.95013802    -0.02346574    -0.54489531     0.00071224     0.00023662    -0.00102706
H         0.82231331    -0.02078386     1.93577392     0.00155520     0.00095321     0.00169054
H        -0.92130199     0.08317476     1.85407835     0.00170327     0.00072825    -0.00058359
H        -1.01241481     0.13620718    -0.52200781    -0.00155682     0.00021770    -0.00065736
     6
  Step:    18            Position(A)                                  Velocity(au)
C        -0.04259225     0.02341042    -0.06778911     0.00004647     0.00005153    -0.00061459
N        -0.04008199    -0.08172212     1.36587868    -0.00011235    -0.00011412     0.00055355
H         0.95423127    -0.02218719    -0.55085885     0.00034956     0.00010358    -0.00051624
H         0.83084858    -0.01555421     1.94499453     0.00069334     0.00042927     0.00074761
H        -0.91216555     0.08717766     1.85101763     0.00072161     0.00033214    -0.00023277
H        -1.02132018     0.13745819    -0.52606461    -0.00075695     0.00010682    -0.00036753
     6
  Step:    19            Position(A)                                  Velocity(au)
C        -0.04231737     0.02368522    -0.07122792     0.00005035     0.00004593    -0.00060241
N        -0.04067556    -0.08236325     1.36898092    -0.00009687    -0.00011297     0.00054397
H         0.95603637    -0.02154059    -0.55370426     0.00028994     0.00012477    -0.00049124
H         0.83454905    -0.01315451     1.94892758     0.00061163     0.00041982     0.00064355
H        -0.90848713     0.08910164     1.84991095     0.00057381     0.00035106    -0.00015499
H        -1.02553097     0.13812266    -0.52817853    -0.00072908     0.00012698    -0.00037821
     6
  Step:    20            Position(A)                                  Velocity(au)
C        -0.04202349     0.02392924    -0.07459439     0.00005392     0.00004117    -0.00059704
N        -0.04117636    -0.08299836     1.37202381    -0.00008090    -0.00011348     0.00053988
H         0.95750669    -0.02077771    -0.55640825     0.00023464     0.00014674    -0.00047271
H         0.83775804    -0.01081160     1.95226453     0.00052812     0.00041482     0.00054492
H        -0.90568330     0.09114353     1.84926674     0.00042018     0.00037849    -0.00007147
H        -1.02955648     0.13889264    -0.53033719    -0.00070123     0.00014626    -0.00038883
     6
  Step:    21            Position(A)                                  Velocity(au)
C        -0.04171242     0.02414712    -0.07792607     0.00005706     0.00003698    -0.00059617
N        -0.04158318    -0.08363637     1.37503787    -0.00006434    -0.00011517     0.00053934
H         0.95866885    -0.01989431    -0.55900757     0.00018239     0.00016949    -0.00045881
H         0.84047402    -0.00850063     1.95504110     0.00044196     0.00041278     0.00044937
H        -0.90377311     0.09334789     1.84910911     0.00026060     0.00041270     0.00001713
H        -1.03339812     0.13976357    -0.53254083    -0.00067087     0.00016475    -0.00039856
     6
  Step:    22            Position(A)                                  Velocity(au)
C        -0.04138663     0.02434195    -0.08124788     0.00005962     0.00003314    -0.00059776
N        -0.04189438    -0.08428367     1.37804304    -0.00004727    -0.00011761     0.00054063
H         0.95954227    -0.01888616    -0.56152874     0.00013252     0.00019282    -0.00044804
H         0.84269047    -0.00620485     1.95727966     0.00035304     0.00041240     0.00035556
H        -0.90277492     0.09574946     1.84945796     0.00009682     0.00045181     0.00010925
H        -1.03704360     0.14073128    -0.53478524    -0.00063587     0.00018231    -0.00040652
     6
  Step:    23            Position(A)                                  Velocity(au)
C        -0.04104942     0.02451568    -0.08457345     0.00006146     0.00002952    -0.00060032
N        -0.04210887    -0.08494421     1.38104985    -0.00003000    -0.00012046     0.00054252
H         0.96014250    -0.01775008    -0.56399000     0.00008492     0.00021650    -0.00043944
H         0.84440000    -0.00391453     1.95899511     0.00026222     0.00041283     0.00026333
H        -0.90269642     0.09837225     1.85032406    -0.00006765     0.00049395     0.00020253
H        -1.04046926     0.14179092    -0.53706149    -0.00059498     0.00019879    -0.00041211
     6
  Step:    24            Position(A)                                  Velocity(au)
C        -0.04070476     0.02466949    -0.08790821     0.00006249     0.00002603    -0.00060282
N        -0.04222717    -0.08562008     1.38406217    -0.00001293    -0.00012345     0.00054426
H         0.96048439    -0.01648421    -0.56640418     0.00003986     0.00024030    -0.00043245
H         0.84559976    -0.00162464     1.96020118     0.00017108     0.00041355     0.00017328
H        -0.90352545     0.10122971     1.85170500    -0.00022821     0.00053734     0.00029417
H        -1.04364474     0.14293679    -0.53935743    -0.00054771     0.00021407    -0.00041500
     6
  Step:    25            Position(A)                                  Velocity(au)
C        -0.04035709     0.02480411    -0.09125202     0.00006267     0.00002263    -0.00060462
N        -0.04225209    -0.08631190     1.38707964     0.00000344    -0.00012640     0.00054539
H         0.96058406    -0.01508787    -0.56878108    -0.00000221     0.00026404    -0.00042682
H         0.84629533     0.00066712     1.96091481     0.00008161     0.00041433     0.00008650
H        -0.90522472     0.10432538     1.85358315    -0.00037983     0.00058032     0.00038125
H        -1.04653720     0.14416256    -0.54165922    -0.00049412     0.00022808    -0.00041512
     6
  Step:    26            Position(A)                                  Velocity(au)
C        -0.04001105     0.02491999    -0.09460114     0.00006197     0.00001928    -0.00060528
N        -0.04218908    -0.08701924     1.39009939     0.00001860    -0.00012914     0.00054563
H         0.96045997    -0.01356138    -0.57112894    -0.00004074     0.00028757    -0.00042244
H         0.84650313     0.00296183     1.96115867    -0.00000397     0.00041510     0.00000430
H        -0.90772998     0.10765362     1.85592532    -0.00051753     0.00062134     0.00046098
H        -1.04911446     0.14546157    -0.54395269    -0.00043471     0.00024080    -0.00041256
     6
  Step:    27            Position(A)                                  Velocity(au)
C        -0.03967139     0.02501741    -0.09794951     0.00006041     0.00001596    -0.00060454
N        -0.04204623    -0.08774081     1.39311709     0.00003209    -0.00013155     0.00054486
H         0.96013328    -0.01190591    -0.57345534    -0.00007522     0.00031075    -0.00041927
H         0.84625143     0.00526027     1.96096235    -0.00008339     0.00041593    -0.00007194
H        -0.91095117     0.11120049     1.85868395    -0.00063683     0.00065902     0.00053091
H        -1.05134726     0.14682704    -0.54622424    -0.00037024     0.00025224    -0.00040754
     6
  Step:    28            Position(A)                                  Velocity(au)
C        -0.03934272     0.02509653    -0.10128954     0.00005802     0.00001266    -0.00060222
N        -0.04183409    -0.08847471     1.39612751     0.00004347    -0.00013356     0.00054298
H         0.95962778    -0.01012336    -0.57576757    -0.00010517     0.00033347    -0.00041733
H         0.84558055     0.00756359     1.96036274    -0.00015446     0.00041695    -0.00014086
H        -0.91477571     0.11494477     1.86179915    -0.00073407     0.00069218     0.00058905
H        -1.05321073     0.14825232    -0.54846154    -0.00030171     0.00026246    -0.00040035
     6
  Step:    29            Position(A)                                  Velocity(au)
C        -0.03902945     0.02515748    -0.10461277     0.00005485     0.00000938    -0.00059824
N        -0.04156525    -0.08921855     1.39912498     0.00005242    -0.00013508     0.00053998
H         0.95896966    -0.00821619    -0.57807289    -0.00013019     0.00035565    -0.00041664
H         0.84454237     0.00987366     1.95940381    -0.00021517     0.00041834    -0.00020122
H        -0.91907334     0.11885920     1.86520159    -0.00080654     0.00071990     0.00063401
H        -1.05468551     0.14973101    -0.55065396    -0.00023021     0.00027151    -0.00039137
     6
  Step:    30            Position(A)                                  Velocity(au)
C        -0.03873565     0.02520031    -0.10791026     0.00005099     0.00000611    -0.00059258
N        -0.04125391    -0.08996968     1.40210356     0.00005871    -0.00013610     0.00053586
H         0.95818696    -0.00618731    -0.58037851    -0.00015001     0.00037723    -0.00041720
H         0.84319925     0.01219339     1.95813587    -0.00026374     0.00042032    -0.00025196
H        -0.92370179     0.12291196     1.86881575    -0.00085267     0.00074151     0.00066497
H        -1.05575845     0.15125713    -0.55279289    -0.00015695     0.00027950    -0.00038102
     6
  Step:    31            Position(A)                                  Velocity(au)
C        -0.03846496     0.02522508    -0.11117300     0.00004652     0.00000285    -0.00058529
N        -0.04091534    -0.09072531     1.40505722     0.00006218    -0.00013661     0.00053062
H         0.95730897    -0.00403997    -0.58269156    -0.00016446     0.00039818    -0.00041902
H         0.84162256     0.01452681     1.95661451    -0.00029876     0.00042310    -0.00029226
H        -0.92851292     0.12706819     1.87256318    -0.00087194     0.00075664     0.00068171
H        -1.05642305     0.15282524    -0.55487205    -0.00008318     0.00028654    -0.00036973
     6
  Step:    32            Position(A)                                  Velocity(au)
C        -0.03822049     0.02523182    -0.11439220     0.00004154    -0.00000041    -0.00057645
N        -0.04056530    -0.09148262     1.40798000     0.00006281    -0.00013662     0.00052432
H         0.95636559    -0.00177754    -0.58501900    -0.00017352     0.00041850    -0.00042205
H         0.83989057     0.01687914     1.95489919    -0.00031920     0.00042692    -0.00032159
H        -0.93335830     0.13129157     1.87636556    -0.00086486     0.00076520     0.00068458
H        -1.05667960     0.15443054    -0.55688755    -0.00001012     0.00029278    -0.00035797
     6
  Step:    33            Position(A)                                  Velocity(au)
C        -0.03800477     0.02522054    -0.11755956     0.00003616    -0.00000366    -0.00056620
N        -0.04021951    -0.09223894     1.41086614     0.00006065    -0.00013617     0.00051702
H         0.95538653     0.00059662    -0.58736742    -0.00017729     0.00043823    -0.00042623
H         0.83808608     0.01925670     1.95305160    -0.00032454     0.00043197    -0.00033973
H        -0.93809473     0.13554585     1.88014762    -0.00083283     0.00076736     0.00067435
H        -1.05653514     0.15606897    -0.55883804     0.00006103     0.00029836    -0.00034621
     6
  Step:    34            Position(A)                                  Velocity(au)
C        -0.03781971     0.02519124    -0.12066750     0.00003051    -0.00000691    -0.00055469
N        -0.03989315    -0.09299184     1.41371022     0.00005585    -0.00013532     0.00050882
H         0.95440065     0.00307939    -0.58974294    -0.00017600     0.00045743    -0.00043146
H         0.83629363     0.02166673     1.95113385    -0.00031473     0.00043840    -0.00034681
H        -0.94258873     0.13979631     1.88383951    -0.00077796     0.00076353     0.00065220
H        -1.05600320     0.15773727    -0.56072469     0.00012914     0.00030342    -0.00033491
     6
  Step:    35            Position(A)                                  Velocity(au)
C        -0.03766656     0.02514390    -0.12370934     0.00002469    -0.00001017    -0.00054210
N        -0.03960035    -0.09373919     1.41650732     0.00004863    -0.00013412     0.00049981
H         0.95343528     0.00566808    -0.59215101    -0.00016998     0.00047622    -0.00043764
H         0.83459668     0.02411713     1.94920661    -0.00029024     0.00044629    -0.00034324
H        -0.94671990     0.14401098     1.88737849    -0.00070287     0.00075431     0.00061954
H        -1.05510335     0.15943299    -0.56255114     0.00019320     0.00030813    -0.00032451
     6
  Step:    36            Position(A)                                  Velocity(au)
C        -0.03754592     0.02507848    -0.12667936     0.00001882    -0.00001344    -0.00052862
N        -0.03935390    -0.09447924     1.41925308     0.00003926    -0.00013266     0.00049012
H         0.95251564     0.00836061    -0.59459627    -0.00015966     0.00049474    -0.00044458
H         0.83307488     0.02661606     1.94732739    -0.00025203     0.00045566    -0.00032977
H        -0.95038347     0.14816158     1.89071019    -0.00061053     0.00074048     0.00057797
H        -1.05386060     0.16115444    -0.56432344     0.00025231     0.00031262    -0.00031542
     6
  Step:    37            Position(A)                                  Velocity(au)
C        -0.03745777     0.02499487    -0.12957281     0.00001302    -0.00001672    -0.00051438
N        -0.03916483    -0.09521062     1.42194373     0.00002809    -0.00013099     0.00047983
H         0.95166435     0.01115581    -0.59708233    -0.00014553     0.00051319    -0.00045210
H         0.83180119     0.02917141     1.94554880    -0.00020152     0.00046640    -0.00030742
H        -0.95349194     0.15222447     1.89378936    -0.00050412     0.00072293     0.00052914
H        -1.05230474     0.16290057    -0.56604986     0.00030568     0.00031697    -0.00030805
     6
  Step:    38            Position(A)                                  Velocity(au)
C        -0.03740152     0.02489294    -0.13238564     0.00000736    -0.00002005    -0.00049953
N        -0.03904224    -0.09593232     1.42457601     0.00001549    -0.00012918     0.00046904
H         0.95090121     0.01405364    -0.59961160    -0.00012812     0.00053182    -0.00045996
H         0.83083938     0.03179008     1.94391708    -0.00014057     0.00047825    -0.00027744
H        -0.95597592     0.15618130     1.89658015    -0.00038691     0.00070268     0.00047473
H        -1.05046956     0.16467073    -0.56774081     0.00035269     0.00032122    -0.00030277
     6
  Step:    39            Position(A)                                  Velocity(au)
C        -0.03737611     0.02477248    -0.13511455     0.00000193    -0.00002341    -0.00048417
N        -0.03899302    -0.09664370     1.42714715     0.00000185    -0.00012729     0.00045782
H         0.95024305     0.01705569    -0.60218510    -0.00010790     0.00055099    -0.00046790
H         0.83024170     0.03447702     1.94247095    -0.00007142     0.00049070    -0.00024123
H        -0.95778428     0.16001989     1.89905598    -0.00026212     0.00068094     0.00041636
H        -1.04839208     0.16646411    -0.56940869     0.00039284     0.00032523    -0.00029993
     6
  Step:    40            Position(A)                                  Velocity(au)
C        -0.03738016     0.02463321    -0.13775675    -0.00000327    -0.00002683    -0.00046838
N        -0.03902175    -0.09734443     1.42965485    -0.00001239    -0.00012538     0.00044628
H         0.94970417     0.02016606    -0.60480217    -0.00008523     0.00057139    -0.00047557
H         0.83004713     0.03723365     1.94124098     0.00000345     0.00050283    -0.00020025
H        -0.95888371     0.16373528     1.90119901    -0.00013284     0.00065926     0.00035548
H        -1.04611164     0.16827870    -0.57106801     0.00042581     0.00032856    -0.00029998
     6
  Step:    41            Position(A)                                  Velocity(au)
C        -0.03741240     0.02447484    -0.14031001    -0.00000836    -0.00003031    -0.00045214
N        -0.03913046    -0.09803444     1.43209737    -0.00002672    -0.00012347     0.00043440
H         0.94929765     0.02339369    -0.60746023    -0.00005978     0.00059463    -0.00048259
H         0.83027998     0.04005455     1.94024976     0.00008131     0.00051240    -0.00015566
H        -0.95925782     0.16733256     1.90299906    -0.00000199     0.00064033     0.00029321
H        -1.04366884     0.17010864    -0.57273616     0.00045151     0.00032965    -0.00030381
     6
  Step:    42            Position(A)                                  Velocity(au)
C        -0.03747291     0.02429704    -0.14277121    -0.00001450    -0.00003389    -0.00043294
N        -0.03931813    -0.09871382     1.43447256    -0.00004017    -0.00012145     0.00042050
H         0.94904122     0.02676087    -0.61015434    -0.00002490     0.00062920    -0.00049003
H         0.83094885     0.04291644     1.93951462     0.00015920     0.00050807    -0.00010592
H        -0.95890583     0.17083691     1.90445086     0.00012765     0.00063521     0.00022900
H        -1.04110416     0.17193476    -0.57443748     0.00046904     0.00031909    -0.00031759
     6
  Step:    43            Position(A)                                  Velocity(au)
C        -0.03757316     0.02409903    -0.14511057    -0.00002161    -0.00004116    -0.00040105
N        -0.03957588    -0.09938112     1.43676003    -0.00005589    -0.00012501     0.00040632
H         0.94902160     0.03037048    -0.61289391     0.00006073     0.00070023    -0.00058876
H         0.83204528     0.04568826     1.93907528     0.00025645     0.00052899    -0.00004972
H        -0.95784241     0.17437597     1.90553834     0.00025799     0.00067186     0.00018538
H        -1.03846795     0.17364678    -0.57625766     0.00045905     0.00032654    -0.00041427
     6
  Step:    44            Position(A)                                  Velocity(au)
C        -0.03769057     0.02386087    -0.14728806    -0.00002137    -0.00004477    -0.00038583
N        -0.03992774    -0.10006875     1.43897870    -0.00007012    -0.00012325     0.00039508
H         0.94938564     0.03422469    -0.61619010     0.00007145     0.00069836    -0.00059622
H         0.83367684     0.04874712     1.93889726     0.00032832     0.00056599    -0.00001432
H        -0.95608161     0.17794755     1.90642733     0.00037463     0.00062675     0.00013507
H        -1.03593570     0.17555552    -0.57855688     0.00045466     0.00035503    -0.00041715
     6