 Fermi distribution function

Calculation with static geometry


********************************************************************************
 iSCC Total electronic   Diff electronic      SCC error    
   13   -0.53088638E+01   -0.57402971E-10    0.23282521E-06
********************************************************************************

 Total charge:     1.00000000

 Atomic gross charges (e)
 Atom           Charge
    1       0.31383272
    2      -0.20812906
    3       0.17041777
    4       0.26325609
    5       0.28452821
    6       0.17609427

Nr. of electrons (up):     12.00000000
Atom populations (up)
 Atom       Population
    1       3.68616728
    2       5.20812906
    3       0.82958223
    4       0.73674391
    5       0.71547179
    6       0.82390573

l-shell populations (up)
 Atom Sh.   l       Population
    1   1   0       1.37410772
    1   2   1       2.31205956
    2   1   0       1.48526209
    2   2   1       3.72286696
    3   1   0       0.82958223
    4   1   0       0.73674391
    5   1   0       0.71547179
    6   1   0       0.82390573

Orbital populations (up)
 Atom Sh.   l   m       Population  Label
    1   1   0   0       1.37410772  s
    1   2   1  -1       0.50248777  p_y
    1   2   1   0       0.87075863  p_z
    1   2   1   1       0.93881316  p_x
    2   1   0   0       1.48526209  s
    2   2   1  -1       1.37839562  p_y
    2   2   1   0       1.08794817  p_z
    2   2   1   1       1.25652317  p_x
    3   1   0   0       0.82958223  s
    4   1   0   0       0.73674391  s
    5   1   0   0       0.71547179  s
    6   1   0   0       0.82390573  s

Fermi level:                        -0.5040625872 H          -13.7162 eV
Band energy:                        -8.7023370536 H         -236.8026 eV
TS:                                  0.0000000000 H            0.0000 eV
Band free energy (E-TS):            -8.7023370536 H         -236.8026 eV
Extrapolated E(0K):                 -8.7023370536 H         -236.8026 eV
Input / Output electrons (q):     12.0000000000     12.0000000000

Energy H0:                          -5.4429774934 H         -148.1110 eV
Energy SCC:                          0.1341137278 H            3.6494 eV
Total Electronic energy:            -5.3088637656 H         -144.4615 eV
Repulsive energy:                    0.1479102724 H            4.0248 eV
Total energy:                       -5.1609534932 H         -140.4367 eV
Extrapolated to 0:                  -5.1609534932 H         -140.4367 eV
Total Mermin free energy:           -5.1609534932 H         -140.4367 eV
Force related energy:               -5.1609534932 H         -140.4367 eV

SCC converged

Excitation Energy:                   0.0993015392 H            2.7021 eV

Total Forces
    1      0.000571366150     -0.005699034433      0.078317820824
    2     -0.001066015287      0.002022993594     -0.074480150539
    3     -0.005182552918     -0.012895749862     -0.000580121320
    4     -0.008653904538      0.013830501307     -0.002237924867
    5      0.010225227740     -0.010964319327     -0.003631963598
    6      0.004105878853      0.013705608721      0.002612339500

Maximal derivative component:        0.783178E-01 au


