|===============================================================================
|
|  DFTB+ release 20.1
|
|  Copyright (C) 2006 - 2020  DFTB+ developers group
|
|===============================================================================
|
|  When publishing results obtained with DFTB+, please cite the following
|  reference:
|
|  * DFTB+, a software package for efficient approximate density functional
|    theory based atomistic simulations, J. Chem. Phys. 152, 124101 (2020).
|    [doi: 10.1063/1.5143190]
|
|  You should also cite additional publications crediting the parametrization
|  data you use. Please consult the documentation of the SK-files for the
|  references.
|
|===============================================================================

Reading input file 'dftb_in.hsd'
Parser version: 8

--------------------------------------------------------------------------------
Reading SK-files:
Done.


Processed input in HSD format written to 'dftb_pin.hsd'

Starting initialization...
--------------------------------------------------------------------------------
WARNING!
-> Excited state forces are not implemented yet for fractional occupations, kT=  0.3158E-02K
OpenMP threads:              1
Chosen random seed:          506121101
Mode:                        Static calculation
Self consistent charges:     Yes
SCC-tolerance:                 0.100000E-05
Max. scc iterations:                    100
Shell resolved Hubbard:      No
Spin polarisation:           No
Nr. of up electrons:             6.000000
Nr. of down electrons:           6.000000
Periodic boundaries:         No
Electronic solver:           Relatively robust
Mixer:                       Broyden mixer
Mixing parameter:                  0.200000
Maximal SCC-cycles:                     100
Nr. of chrg. vec. in memory:              0
Electronic temperature:        0.100000E-07 H      0.272114E-06 eV
Initial charges:             Set automatically (system chrg:   0.100E+01)
Included shells:             C:  s, p
                             N:  s, p
                             H:  s
Extra options:
                             Mulliken analysis
                             Force calculation
Force type                   original
                             Eigenvector printing

--------------------------------------------------------------------------------

***  Geometry step: 0

 iSCC Total electronic   Diff electronic      SCC error    
    1   -0.52787235E+01    0.00000000E+00    0.10574420E+01
    2   -0.52974833E+01   -0.18759850E-01    0.67639341E+00
    3   -0.53053140E+01   -0.78306428E-02    0.25777041E+00
    4   -0.50721567E+01    0.23315733E+00    0.15913691E+01
    5   -0.53084242E+01   -0.23626750E+00    0.71043372E-01
    6   -0.53088541E+01   -0.42998313E-03    0.14223529E-01
    7   -0.53088513E+01    0.28507566E-05    0.14628661E-01
    8   -0.53088615E+01   -0.10206054E-04    0.54794791E-02
    9   -0.53088623E+01   -0.77432425E-06    0.44199451E-02
   10   -0.53088637E+01   -0.14227236E-05    0.96369806E-03
   11   -0.53088637E+01   -0.55593079E-07    0.45934906E-03
   12   -0.53088638E+01   -0.16116593E-07    0.27072530E-04
   13   -0.53088638E+01   -0.57402971E-10    0.23282521E-06
>> Charges saved for restart in charges.bin

Total Energy:                       -5.0616519540 H         -137.7346 eV
Extrapolated to 0:                  -5.1609534932 H         -140.4367 eV
Total Mermin free energy:           -5.0616519540 H         -137.7346 eV
Force related energy:               -5.1609534932 H         -140.4367 eV

--------------------------------------------------------------------------------
DFTB+ running times                          cpu [s]             wall clock [s]
--------------------------------------------------------------------------------
SCC                                    +     0.01  ( 57.7%)      0.08  ( 70.0%)
Post-SCC processing                    +     0.01  ( 36.1%)      0.02  ( 20.9%)
--------------------------------------------------------------------------------
Missing                                +     0.00  (  6.1%)      0.01  (  9.1%)
Total                                  =     0.02  (100.0%)      0.11  (100.0%)
--------------------------------------------------------------------------------
