 Fermi distribution function

Calculation with static geometry


********************************************************************************
 iSCC Total electronic   Diff electronic      SCC error    
   10   -0.54252189E+01   -0.69277917E-13    0.20986074E-07
********************************************************************************

 Total charge:     1.00000000

 Atomic gross charges (e)
 Atom           Charge
    1       0.14857402
    2      -0.02847374
    3       0.17244977
    4       0.27078233
    5       0.27450154
    6       0.16216608

Nr. of electrons (up):     12.00000000
Atom populations (up)
 Atom       Population
    1       3.85142598
    2       5.02847374
    3       0.82755023
    4       0.72921767
    5       0.72549846
    6       0.83783392

l-shell populations (up)
 Atom Sh.   l       Population
    1   1   0       1.31058058
    1   2   1       2.54084540
    2   1   0       1.41932151
    2   2   1       3.60915224
    3   1   0       0.82755023
    4   1   0       0.72921767
    5   1   0       0.72549846
    6   1   0       0.83783392

Orbital populations (up)
 Atom Sh.   l   m       Population  Label
    1   1   0   0       1.31058058  s
    1   2   1  -1       0.61796494  p_y
    1   2   1   0       0.87835177  p_z
    1   2   1   1       1.04452869  p_x
    2   1   0   0       1.41932151  s
    2   2   1  -1       1.33560382  p_y
    2   2   1   0       1.12587971  p_z
    2   2   1   1       1.14766870  p_x
    3   1   0   0       0.82755023  s
    4   1   0   0       0.72921767  s
    5   1   0   0       0.72549846  s
    6   1   0   0       0.83783392  s

Fermi level:                        -0.4953670421 H          -13.4796 eV
Band energy:                        -8.9584359527 H         -243.7714 eV
TS:                                  0.0000000000 H            0.0000 eV
Band free energy (E-TS):            -8.9584359527 H         -243.7714 eV
Extrapolated E(0K):                 -8.9584359527 H         -243.7714 eV
Input / Output electrons (q):     12.0000000000     12.0000000000

Energy H0:                          -5.5593627851 H         -151.2780 eV
Energy SCC:                          0.1341438882 H            3.6502 eV
Total Electronic energy:            -5.4252188970 H         -147.6277 eV
Repulsive energy:                    0.1902370899 H            5.1766 eV
Total energy:                       -5.2349818070 H         -142.4511 eV
Extrapolated to 0:                  -5.2349818070 H         -142.4511 eV
Total Mermin free energy:           -5.2349818070 H         -142.4511 eV
Force related energy:               -5.2349818070 H         -142.4511 eV

SCC converged

Excitation Energy:                   0.1629966369 H            4.4354 eV

Total Forces
    1      0.001759138115      0.002666009276      0.002853159646
    2      0.011056437029     -0.007812994455     -0.023668901201
    3     -0.009211106459     -0.001502314747      0.004883893442
    4     -0.011559230712      0.006286260079      0.001891557066
    5     -0.000384472212     -0.002393924840      0.007476910029
    6      0.008339234239      0.002756964688      0.006563381018

Maximal derivative component:        0.236689E-01 au


