     6
  Step:   120            Position(A)                                  Velocity(au)
C        -0.03214172    -0.07549093    -0.02422447     0.00003486    -0.00016136    -0.00036711
N        -0.04730767    -0.05583444     1.34377070     0.00003772     0.00016439     0.00019676
H         0.81579875     0.53653670    -0.55105439     0.00011787     0.00093474     0.00078850
H         0.87045949    -0.12143693     1.83826805    -0.00027458    -0.00118299    -0.00001418
H        -0.92737602     0.21943057     1.81378462    -0.00031230     0.00014892     0.00046971
H        -0.93141300     0.37112628    -0.59378527    -0.00047055    -0.00026234     0.00039624
