 Fermi distribution function

Calculation with static geometry


********************************************************************************
 iSCC Total electronic   Diff electronic      SCC error    
   13   -0.52658849E+01   -0.20683197E-08    0.91077021E-06
********************************************************************************

 Total charge:     1.00000000

 Atomic gross charges (e)
 Atom           Charge
    1       0.30973514
    2      -0.19315513
    3       0.17612171
    4       0.25653662
    5       0.26665276
    6       0.18410889

Nr. of electrons (up):     12.00000000
Atom populations (up)
 Atom       Population
    1       3.69026486
    2       5.19315513
    3       0.82387829
    4       0.74346338
    5       0.73334724
    6       0.81589111

l-shell populations (up)
 Atom Sh.   l       Population
    1   1   0       1.40778466
    1   2   1       2.28248020
    2   1   0       1.53177230
    2   2   1       3.66138283
    3   1   0       0.82387829
    4   1   0       0.74346338
    5   1   0       0.73334724
    6   1   0       0.81589111

Orbital populations (up)
 Atom Sh.   l   m       Population  Label
    1   1   0   0       1.40778466  s
    1   2   1  -1       0.40652262  p_y
    1   2   1   0       0.86718051  p_z
    1   2   1   1       1.00877706  p_x
    2   1   0   0       1.53177230  s
    2   2   1  -1       1.34993820  p_y
    2   2   1   0       1.08067548  p_z
    2   2   1   1       1.23076915  p_x
    3   1   0   0       0.82387829  s
    4   1   0   0       0.74346338  s
    5   1   0   0       0.73334724  s
    6   1   0   0       0.81589111  s

Fermi level:                        -0.5190885997 H          -14.1251 eV
Band energy:                        -8.6723730318 H         -235.9873 eV
TS:                                  0.0000000000 H            0.0000 eV
Band free energy (E-TS):            -8.6723730318 H         -235.9873 eV
Extrapolated E(0K):                 -8.6723730318 H         -235.9873 eV
Input / Output electrons (q):     12.0000000000     12.0000000000

Energy H0:                          -5.4032402825 H         -147.0296 eV
Energy SCC:                          0.1373554098 H            3.7376 eV
Total Electronic energy:            -5.2658848727 H         -143.2920 eV
Repulsive energy:                    0.1344879603 H            3.6596 eV
Total energy:                       -5.1313969124 H         -139.6324 eV
Extrapolated to 0:                  -5.1313969124 H         -139.6324 eV
Total Mermin free energy:           -5.1313969124 H         -139.6324 eV
Force related energy:               -5.1313969124 H         -139.6324 eV

SCC converged

Excitation Energy:                   0.0972646387 H            2.6467 eV

Total Forces
    1     -0.005156949607     -0.002840301287      0.037592937459
    2     -0.013179777683      0.023713308980     -0.045312599266
    3     -0.000525287723      0.008192374727      0.001857619945
    4      0.002906197951     -0.011095140461      0.008325438235
    5      0.015084447829     -0.006676746791      0.000403167070
    6      0.000871369233     -0.011293495168     -0.002866563443

Maximal derivative component:        0.453126E-01 au


