     6
  Step:   300            Position(A)                                  Velocity(au)
C        -0.05255961    -0.00087724     0.03069830    -0.00000104     0.00004728    -0.00002050
N        -0.05468951    -0.04425897     1.28480412    -0.00001786     0.00004362     0.00006199
H         0.02363691     0.98778550    -0.40589075    -0.00147501    -0.00009539    -0.00074581
H        -0.03328849    -0.89276349     1.86552408    -0.00123669     0.00016885    -0.00002195
H         0.35727173     0.72686868     1.82874511     0.00156480    -0.00109131     0.00008395
H        -0.17426846    -0.86620323    -0.61619527     0.00140750    -0.00015174     0.00006672
