     6
  Step:   120            Position(A)                                  Velocity(au)
C        -0.03495574     0.05605490    -0.02227123     0.00006791    -0.00003139     0.00051175
N        -0.05276998    -0.01141377     1.35032717    -0.00006767    -0.00005025    -0.00047509
H         0.67709879    -0.66591752    -0.52901578    -0.00098334    -0.00108632     0.00041447
H         0.81818586     0.03400829     1.94132221    -0.00030374     0.00168075    -0.00018331
H        -0.65312249    -0.80821418     1.67581834     0.00096866    -0.00088011    -0.00025968
H        -0.90525916     0.26100780    -0.69532835     0.00044952     0.00135799     0.00053244
