     6
  Step:   120            Position(A)                                  Velocity(au)
C        -0.03394793     0.07087907    -0.21566496    -0.00000377     0.00006668    -0.00002924
N        -0.04507116     0.01826929     1.52447058    -0.00005114     0.00003640     0.00005397
H         0.87272542    -0.41871407    -0.59444667    -0.00004306    -0.00095085     0.00077792
H         0.79869695    -0.52848990     1.78693894     0.00042727     0.00000153    -0.00026011
H        -0.84856151    -0.60898300     1.74474165     0.00071324    -0.00038535    -0.00120164
H        -1.00493331    -0.21205402    -0.65988775    -0.00034174     0.00003428     0.00028223
