 Fermi distribution function

Calculation with static geometry


********************************************************************************
 iSCC Total electronic   Diff electronic      SCC error    
   13   -0.52806727E+01   -0.61220362E-10    0.10346984E-07
********************************************************************************

 Total charge:     1.00000000

 Atomic gross charges (e)
 Atom           Charge
    1       0.31135839
    2      -0.20094819
    3       0.18218203
    4       0.27798569
    5       0.25951363
    6       0.16990844

Nr. of electrons (up):     12.00000000
Atom populations (up)
 Atom       Population
    1       3.68864161
    2       5.20094819
    3       0.81781797
    4       0.72201431
    5       0.74048637
    6       0.83009156

l-shell populations (up)
 Atom Sh.   l       Population
    1   1   0       1.39270420
    1   2   1       2.29593741
    2   1   0       1.50764755
    2   2   1       3.69330064
    3   1   0       0.81781797
    4   1   0       0.72201431
    5   1   0       0.74048637
    6   1   0       0.83009156

Orbital populations (up)
 Atom Sh.   l   m       Population  Label
    1   1   0   0       1.39270420  s
    1   2   1  -1       0.43555345  p_y
    1   2   1   0       0.87401192  p_z
    1   2   1   1       0.98637204  p_x
    2   1   0   0       1.50764755  s
    2   2   1  -1       1.31659077  p_y
    2   2   1   0       1.10995098  p_z
    2   2   1   1       1.26675889  p_x
    3   1   0   0       0.81781797  s
    4   1   0   0       0.72201431  s
    5   1   0   0       0.74048637  s
    6   1   0   0       0.83009156  s

Fermi level:                        -0.5119506566 H          -13.9309 eV
Band energy:                        -8.6850333303 H         -236.3318 eV
TS:                                  0.0000000000 H            0.0000 eV
Band free energy (E-TS):            -8.6850333303 H         -236.3318 eV
Extrapolated E(0K):                 -8.6850333303 H         -236.3318 eV
Input / Output electrons (q):     12.0000000000     12.0000000000

Energy H0:                          -5.4166757065 H         -147.3952 eV
Energy SCC:                          0.1360029615 H            3.7008 eV
Total Electronic energy:            -5.2806727450 H         -143.6944 eV
Repulsive energy:                    0.1382796800 H            3.7628 eV
Total energy:                       -5.1423930650 H         -139.9316 eV
Extrapolated to 0:                  -5.1423930650 H         -139.9316 eV
Total Mermin free energy:           -5.1423930650 H         -139.9316 eV
Force related energy:               -5.1423930650 H         -139.9316 eV

SCC converged

Excitation Energy:                   0.0926543456 H            2.5213 eV

Total Forces
    1     -0.005541134482     -0.011916908694      0.057071558156
    2      0.017607563562     -0.011990086947     -0.067113611040
    3     -0.003089725658      0.014595059317      0.002977125930
    4     -0.017071934488      0.002880506597     -0.001319080436
    5     -0.000630354887      0.011184587034      0.005701689490
    6      0.008725585953     -0.004753157308      0.002682317901

Maximal derivative component:        0.671136E-01 au


