     6
  Step:     0            Position(A)                                  Velocity(au)
C        -0.03884545     0.02198792     0.02516928     0.00011524    -0.00009663     0.00031621
N        -0.04682180    -0.06192476     1.29153550     0.00019158     0.00002590    -0.00025345
H         0.95208725    -0.02632645    -0.53318763    -0.00089964     0.00050723     0.00007753
H         0.81841329    -0.06445139     1.86373710    -0.00138150    -0.00015641    -0.00066025
H        -0.87390099    -0.01336002     1.85271018    -0.00126631     0.00028693     0.00064035
H        -0.99600015     0.03287893    -0.53876853    -0.00048803     0.00015380    -0.00030358
     6
  Step:     1            Position(A)                                  Velocity(au)
C        -0.03819995     0.02147672     0.02671616     0.00011983    -0.00009016     0.00024771
N        -0.04574539    -0.06180163     1.29030402     0.00019930     0.00001913    -0.00019517
H         0.94699766    -0.02355671    -0.53282988    -0.00095583     0.00050533     0.00005046
H         0.81084007    -0.06528479     1.86012060    -0.00137127    -0.00014852    -0.00065104
H        -0.88121744    -0.01174323     1.85648702    -0.00138737     0.00030311     0.00072516
H        -0.99867095     0.03370624    -0.54060617    -0.00048299     0.00014858    -0.00036410
     6
  Step:     2            Position(A)                                  Velocity(au)
C        -0.03753447     0.02100151     0.02787924     0.00012245    -0.00008345     0.00017621
N        -0.04464142    -0.06171542     1.28940027     0.00020150     0.00001242    -0.00013394
H         0.94163020    -0.02079804    -0.53263558    -0.00100008     0.00050290     0.00001745
H         0.80341125    -0.06607620     1.85661461    -0.00132719    -0.00014101    -0.00061875
H        -0.88907910    -0.01004388     1.86064364    -0.00146486     0.00031689     0.00077891
H        -1.00128416     0.03450444    -0.54275183    -0.00046701     0.00014306    -0.00041603
     6
  Step:     3            Position(A)                                  Velocity(au)
C        -0.03685997     0.02056350     0.02864447     0.00012306    -0.00007656     0.00010269
N        -0.04354032    -0.06166574     1.28883825     0.00019820     0.00000581    -0.00007067
H         0.93605333    -0.01805319    -0.53263895    -0.00103139     0.00050007    -0.00002206
H         0.79631598    -0.06682795     1.85334929    -0.00124853    -0.00013400    -0.00056245
H        -0.89724812    -0.00827532     1.86501095    -0.00149985     0.00032826     0.00080253
H        -1.00378166     0.03527179    -0.54515897    -0.00044090     0.00013723    -0.00045961
     6
  Step:     4            Position(A)                                  Velocity(au)
C        -0.03618744     0.02016347     0.02900333     0.00012170    -0.00006958     0.00002818
N        -0.04247191    -0.06165181     1.28862667     0.00018962    -0.00000062    -0.00000633
H         0.93034056    -0.01532429    -0.53287709    -0.00104898     0.00049694    -0.00006855
H         0.78974473    -0.06754295     1.85045802    -0.00113571    -0.00012757    -0.00048199
H        -0.90549654    -0.00645072     1.86942818    -0.00149479     0.00033730     0.00079802
H        -1.00611028     0.03600661    -0.54778281    -0.00040566     0.00013112    -0.00049527
     6
  Step:     5            Position(A)                                  Velocity(au)
C        -0.03552766     0.01980177     0.02895295     0.00011840    -0.00006258    -0.00004634
N        -0.04146442    -0.06167257     1.28876895     0.00017611    -0.00000684     0.00005816
H         0.92456925    -0.01261272    -0.53338945    -0.00105229     0.00049369    -0.00012240
H         0.78388241    -0.06822454     1.84807250    -0.00099037    -0.00012179    -0.00037819
H        -0.91361288    -0.00458264     1.87374760    -0.00145311     0.00034415     0.00076808
H        -1.00822276     0.03670731    -0.55058117    -0.00036241     0.00012475    -0.00052357
     6
  Step:     6            Position(A)                                  Velocity(au)
C        -0.03489107     0.01947829     0.02849601     0.00011326    -0.00005564    -0.00011988
N        -0.04054373    -0.06172671     1.28926346     0.00015817    -0.00001280     0.00012194
H         0.91881932    -0.00991903    -0.53421725    -0.00104095     0.00049044    -0.00018389
H         0.77890139    -0.06887638     1.84631730    -0.00081545    -0.00011670    -0.00025284
H        -0.92140635    -0.00268270     1.87783769    -0.00137882     0.00034901     0.00071580
H        -1.01007827     0.03737245    -0.55351522    -0.00031235     0.00011813    -0.00054514
     6
  Step:     7            Position(A)                                  Velocity(au)
C        -0.03428756     0.01919254     0.02764039     0.00010638    -0.00004883    -0.00019155
N        -0.03973268    -0.06181268     1.29010408     0.00013638    -0.00001846     0.00018426
H         0.91317200    -0.00724297    -0.53540279    -0.00101482     0.00048733    -0.00025314
H         0.77495408    -0.06950227     1.84530423    -0.00061522    -0.00011231    -0.00010875
H        -0.92870941    -0.00076141     1.88158487    -0.00127615     0.00035207     0.00064449
H        -1.01164269     0.03800072    -0.55654986    -0.00025669     0.00011130    -0.00056070
     6
  Step:     8            Position(A)                                  Velocity(au)
C        -0.03372640     0.01894365     0.02639885     0.00009787    -0.00004221    -0.00026050
N        -0.03905053    -0.06192878     1.29128085     0.00011145    -0.00002380     0.00024449
H         0.90770869    -0.00458354    -0.53698867    -0.00097396     0.00048448    -0.00033010
H         0.77216578    -0.07010594     1.84512671    -0.00039515    -0.00010857     0.00005027
H        -0.93537807     0.00117192     1.88489378    -0.00114931     0.00035355     0.00055740
H        -1.01288861     0.03859096    -0.55965395    -0.00019661     0.00010426    -0.00057094
     6
  Step:     9            Position(A)                                  Velocity(au)
C        -0.03321609     0.01873040     0.02478853     0.00008789    -0.00003584    -0.00032596
N        -0.03851256    -0.06207319     1.29278064     0.00008411    -0.00002879     0.00030209
H         0.90250952    -0.00193911    -0.53901661    -0.00091871     0.00048195    -0.00041449
H         0.77062821    -0.07069085     1.84585461    -0.00016182    -0.00010542     0.00021954
H        -0.94129152     0.00310912     1.88768698    -0.00100239     0.00035364     0.00045770
H        -1.01379512     0.03914212    -0.56280025    -0.00013328     0.00009704    -0.00057654
     6
  Step:    10            Position(A)                                  Velocity(au)
C        -0.03276426     0.01855132     0.02283057     0.00007660    -0.00002976    -0.00038722
N        -0.03812975    -0.06224398     1.29458781     0.00005517    -0.00003343     0.00035663
H         0.89765173     0.00069234    -0.54152603    -0.00084971     0.00047978    -0.00050569
H         0.77039434    -0.07125997     1.84753003     0.00007734    -0.00010275     0.00039369
H        -0.94635114     0.00504313     1.88990416    -0.00083932     0.00035250     0.00034844
H        -1.01434765     0.03965320    -0.56596526    -0.00006785     0.00008962    -0.00057813
     6
  Step:    11            Position(A)                                  Velocity(au)
C        -0.03237751     0.01840468     0.02054973     0.00006421    -0.00002400    -0.00044359
N        -0.03790858    -0.06243916     1.29668455     0.00002546    -0.00003770     0.00040769
H         0.89320792     0.00331299    -0.54455227    -0.00076796     0.00047795    -0.00060273
H         0.77147479    -0.07181562     1.85016429     0.00031437    -0.00010042     0.00056689
H        -0.95047942     0.00696784     1.89150127    -0.00066386     0.00035028     0.00023252
H        -1.01453784     0.04012322    -0.56912891    -0.00000145     0.00008202    -0.00057627
     6
  Step:    12            Position(A)                                  Velocity(au)
C        -0.03206130     0.01828856     0.01797416     0.00005094    -0.00001861    -0.00049444
N        -0.03785103    -0.06265666     1.29905119    -0.00000420    -0.00004157     0.00045491
H         0.88924411     0.00592493    -0.54812465    -0.00067486     0.00047639    -0.00070424
H         0.77383608    -0.07235934     1.85373629     0.00054116    -0.00009827     0.00073312
H        -0.95361902     0.00887797     1.89244980    -0.00047971     0.00034711     0.00011279
H        -1.01436352     0.04055118    -0.57227426     0.00006475     0.00007422    -0.00057148
     6
  Step:    13            Position(A)                                  Velocity(au)
C        -0.03181972     0.01820088     0.01513518     0.00003705    -0.00001361    -0.00053917
N        -0.03795453    -0.06289438     1.30166620    -0.00003296    -0.00004504     0.00049789
H         0.88581769     0.00852980    -0.55226427    -0.00057219     0.00047495    -0.00080843
H         0.77740090    -0.07289179     1.85819255     0.00074978    -0.00009615     0.00088651
H        -0.95573268     0.01076898     1.89273641    -0.00029069     0.00034311    -0.00000792
H        -1.01382873     0.04093602    -0.57538710     0.00012957     0.00006621    -0.00056421
     6
  Step:    14            Position(A)                                  Velocity(au)
C        -0.03165538     0.01813942     0.01206706     0.00002285    -0.00000903    -0.00057721
N        -0.03821209    -0.06315012     1.30450600    -0.00006002    -0.00004809     0.00053619
H         0.88297519     0.01112851    -0.55698175    -0.00046223     0.00047349    -0.00091308
H         0.78205066    -0.07341277     1.86344880     0.00093300    -0.00009390     0.00102162
H        -0.95680377     0.01263705     1.89236308    -0.00010077     0.00033840    -0.00012668
H        -1.01294393     0.04127661    -0.57845567     0.00019178     0.00005798    -0.00055486
     6
  Step:    15            Position(A)                                  Velocity(au)
C        -0.03156920     0.01810183     0.00880679     0.00000867    -0.00000490    -0.00060808
N        -0.03861257    -0.06342165     1.30754482    -0.00008464    -0.00005071     0.00056936
H         0.88074993     0.01372102    -0.56227504    -0.00034765     0.00047178    -0.00101561
H         0.78763009    -0.07392126     1.86939334     0.00108463    -0.00009137     0.00113381
H        -0.95683745     0.01447915     1.89134749     0.00008579     0.00033315    -0.00024050
H        -1.01172614     0.04157175    -0.58147039     0.00025011     0.00004953    -0.00054381
     6
  Step:    16            Position(A)                                  Velocity(au)
C        -0.03156020     0.01808570     0.00539375    -0.00000512    -0.00000121    -0.00063137
N        -0.03914099    -0.06370668     1.31075437    -0.00010615    -0.00005290     0.00059691
H         0.87915992     0.01630607    -0.56812753    -0.00023149     0.00046960    -0.00111319
H         0.79395382    -0.07441555     1.87589176     0.00119989    -0.00008847     0.00121947
H        -0.95586232     0.01629318     1.88972368     0.00026441     0.00032754    -0.00034629
H        -1.01019909     0.04182022    -0.58442371     0.00030332     0.00004087    -0.00053145
     6
  Step:    17            Position(A)                                  Velocity(au)
C        -0.03162550     0.01808850     0.00186923    -0.00001817     0.00000200    -0.00064682
N        -0.03977894    -0.06400288     1.31410374    -0.00012397    -0.00005464     0.00061838
H         0.87820626     0.01888109    -0.57450688    -0.00011701     0.00046672    -0.00120287
H         0.80081467    -0.07489341     1.88279304     0.00127571    -0.00008512     0.00127621
H        -0.95393205     0.01807824     1.88754246     0.00043034     0.00032184    -0.00044091
H        -1.00839318     0.04202079    -0.58731005     0.00035020     0.00003200    -0.00051814
     6
  Step:    18            Position(A)                                  Velocity(au)
C        -0.03176019     0.01810771    -0.00172429    -0.00003012     0.00000474    -0.00065433
N        -0.04050520    -0.06430794     1.31755944    -0.00013764    -0.00005594     0.00063337
H         0.87787227     0.02144220    -0.58136470    -0.00000751     0.00046292    -0.00128181
H         0.80799262    -0.07535227     1.88993612     0.00131078    -0.00008128     0.00130300
H        -0.95112659     0.01983491     1.88487162     0.00057869     0.00031635    -0.00052133
H        -1.00634519     0.04217232    -0.59012574     0.00038966     0.00002295    -0.00050428
     6
  Step:    19            Position(A)                                  Velocity(au)
C        -0.03195750     0.01814077    -0.00534404    -0.00004063     0.00000701    -0.00065404
N        -0.04129631    -0.06461960     1.32108586    -0.00014687    -0.00005684     0.00064160
H         0.87812353     0.02398429    -0.58863734     0.00009388     0.00045805    -0.00134752
H         0.81526448    -0.07578947     1.89715709     0.00130568    -0.00007698     0.00130018
H        -0.94755265     0.02156562     1.88179539     0.00070476     0.00031147    -0.00058477
H        -1.00409761     0.04227381    -0.59286917     0.00042079     0.00001377    -0.00049028
     6
  Step:    20            Position(A)                                  Velocity(au)
C        -0.03220895     0.01818517    -0.00894809    -0.00004945     0.00000883    -0.00064629
N        -0.04212736    -0.06493574     1.32464589    -0.00015149    -0.00005736     0.00064300
H         0.87890916     0.02650134    -0.59624794     0.00018439     0.00045202    -0.00139805
H         0.82241375    -0.07620250     1.90429645     0.00126273    -0.00007226     0.00126940
H        -0.94334258     0.02327505     1.87841294     0.00080431     0.00030765    -0.00062887
H        -1.00169758     0.04232444    -0.59554079     0.00044295     0.00000450    -0.00047656
     6
  Step:    21            Position(A)                                  Velocity(au)
C        -0.03250474     0.01823851    -0.01249657    -0.00005638     0.00001022    -0.00063168
N        -0.04297285    -0.06525444     1.32820194    -0.00015151    -0.00005757     0.00063769
H         0.88016418     0.02898680    -0.60410970     0.00026184     0.00044484    -0.00143222
H         0.82923925    -0.07658920     1.91120563     0.00118573    -0.00006722     0.00121345
H        -0.93865130     0.02497040     1.87483560     0.00087393     0.00030539    -0.00065198
H        -0.99919541     0.04232362    -0.59814333     0.00045583    -0.00000482    -0.00046360
     6
  Step:    22            Position(A)                                  Velocity(au)
C        -0.03283416     0.01829851    -0.01595296    -0.00006133     0.00001121    -0.00061106
N        -0.04380754    -0.06557410     1.33171731    -0.00014712    -0.00005752     0.00062607
H         0.88181278     0.03143420    -0.61213011     0.00032477     0.00043663    -0.00144970
H         0.83556255    -0.07694796     1.91775267     0.00107962    -0.00006198     0.00113602
H        -0.93365134     0.02666159     1.87118305     0.00091135     0.00030522    -0.00065320
H        -0.99664277     0.04227101    -0.60068180     0.00045948    -0.00001415    -0.00045187
     6
  Step:    23            Position(A)                                  Velocity(au)
C        -0.03318607     0.01836310    -0.01928536    -0.00006428     0.00001185    -0.00058543
N        -0.04460736    -0.06589349     1.33515755    -0.00013863    -0.00005731     0.00060880
H         0.88377236     0.03383772    -0.62021574     0.00037249     0.00042764    -0.00145105
H         0.84123374    -0.07727784     1.92382670     0.00095006    -0.00005668     0.00104135
H        -0.92852629     0.02836139     1.86757862     0.00091561     0.00030767    -0.00063257
H        -0.99409057     0.04216647    -0.60316353     0.00045435    -0.00002346    -0.00044181
     6
  Step:    24            Position(A)                                  Velocity(au)
C        -0.03354948     0.01843043    -0.02246749    -0.00006534     0.00001219    -0.00055593
N        -0.04535023    -0.06621185     1.33849188    -0.00012650    -0.00005703     0.00058671
H         0.88595779     0.03619289    -0.62827714     0.00040509     0.00041821    -0.00143767
H         0.84613460    -0.07757871     1.92934062     0.00080290    -0.00005146     0.00093392
H        -0.92346264     0.03008528     1.86414394     0.00088725     0.00031323    -0.00059104
H        -0.99158684     0.04200994    -0.60559812     0.00044121    -0.00003277    -0.00043385
     6
  Step:    25            Position(A)                                  Velocity(au)
C        -0.03391402     0.01849896    -0.02547918    -0.00006617     0.00001438    -0.00056788
N        -0.04601672    -0.06652887     1.34169428    -0.00011104    -0.00005933     0.00059444
H         0.88828562     0.03849710    -0.63623327     0.00040544     0.00046626    -0.00136661
H         0.85017912    -0.07785118     1.93423177     0.00062818    -0.00010139     0.00080716
H        -0.91864119     0.03185117     1.86099363     0.00084675     0.00038670    -0.00054273
H        -0.98917493     0.04180135    -0.60799718     0.00045117    -0.00009850    -0.00039154
     6
  Step:    26            Position(A)                                  Velocity(au)
C        -0.03428730     0.01859081    -0.02879944    -0.00006673     0.00001863    -0.00062648
N        -0.04658833    -0.06687337     1.34512001    -0.00009279    -0.00006425     0.00063689
H         0.89047847     0.04139176    -0.64351512     0.00037341     0.00055258    -0.00123849
H         0.85313897    -0.07870923     1.93834061     0.00042858    -0.00018691     0.00065973
H        -0.91402119     0.03439703     1.85809242     0.00079729     0.00050566    -0.00049448
H        -0.98655623     0.04091160    -0.60996385     0.00048528    -0.00020040    -0.00031210
     6
  Step:    27            Position(A)                                  Velocity(au)
C        -0.03465841     0.01870677    -0.03246796    -0.00006549     0.00002278    -0.00068681
N        -0.04705183    -0.06724565     1.34879924    -0.00007247    -0.00006915     0.00068006
H         0.89245128     0.04466142    -0.65004945     0.00032943     0.00061225    -0.00110186
H         0.85496017    -0.07993630     1.94159145     0.00022453    -0.00024559     0.00050551
H        -0.90974686     0.03749209     1.85547739     0.00072185     0.00059734    -0.00043628
H        -0.98376128     0.03956577    -0.61147888     0.00051154    -0.00027438    -0.00023369
     6
  Step:    28            Position(A)                                  Velocity(au)
C        -0.03501803     0.01884496    -0.03646323    -0.00006268     0.00002655    -0.00074251
N        -0.04739694    -0.06764503     1.35270849    -0.00005061    -0.00007394     0.00071843
H         0.89415438     0.04822355    -0.65581022     0.00027817     0.00066001    -0.00096258
H         0.85564444    -0.08144965     1.94398136     0.00002364    -0.00029221     0.00035345
H        -0.90596638     0.04106249     1.85322422     0.00062148     0.00067898    -0.00036490
H        -0.98084813     0.03784989    -0.61257151     0.00052683    -0.00033575    -0.00016182
     6
  Step:    29            Position(A)                                  Velocity(au)
C        -0.03535782     0.01900307    -0.04075359    -0.00005846     0.00002992    -0.00079243
N        -0.04761656    -0.06807070     1.35681621    -0.00002778    -0.00007859     0.00075116
H         0.89555536     0.05202650    -0.66079082     0.00022241     0.00070007    -0.00082357
H         0.85522398    -0.08319704     1.94553560    -0.00016927    -0.00033096     0.00020777
H        -0.90281184     0.04506880     1.85140547     0.00049955     0.00075520    -0.00028155
H        -0.97788242     0.03581918    -0.61328457     0.00053005    -0.00038869    -0.00009834
     6
  Step:    30            Position(A)                                  Velocity(au)
C        -0.03567031     0.01917873    -0.04530451    -0.00005300     0.00003286    -0.00083628
N        -0.04770692    -0.06852185     1.36108925    -0.00000459    -0.00008312     0.00077815
H         0.89663587     0.05603430    -0.66499892     0.00016448     0.00073482    -0.00068704
H         0.85375585    -0.08514217     1.94629950    -0.00035012    -0.00036415     0.00007163
H        -0.90039286     0.04948836     1.85008292     0.00036042     0.00082839    -0.00018844
H        -0.97493428     0.03351326    -0.61366871     0.00052053    -0.00043556    -0.00004437
     6
  Step:    31            Position(A)                                  Velocity(au)
C        -0.03594890     0.01936956    -0.05008108    -0.00004641     0.00003539    -0.00087405
N        -0.04766776    -0.06899775     1.36549526     0.00001834    -0.00008752     0.00079957
H         0.89738989     0.06022237    -0.66845368     0.00010633     0.00076589    -0.00055466
H         0.85131894    -0.08725859     1.94633454    -0.00051523    -0.00039332    -0.00005235
H        -0.89879195     0.05430828     1.84930375     0.00020918     0.00089982    -0.00008835
H        -0.97207673     0.03096114    -0.61377948     0.00049785    -0.00047794    -0.00000058
     6
  Step:    32            Position(A)                                  Velocity(au)
C        -0.03618770     0.01957331    -0.05504903    -0.00003883     0.00003754    -0.00090580
N        -0.04750245    -0.06949755     1.37000347     0.00004036    -0.00009175     0.00081568
H         0.89782136     0.06457299    -0.67118274     0.00004967     0.00079429    -0.00042778
H         0.84801163    -0.08952723     1.94571581    -0.00066117    -0.00041959    -0.00016188
H        -0.89806074     0.05952019     1.84909795     0.00005150     0.00096995     0.00001557
H        -0.96938387     0.02818484    -0.61367520     0.00046187    -0.00051690     0.00003269
     6
  Step:    33            Position(A)                                  Velocity(au)
C        -0.03638159     0.01978784    -0.06017500    -0.00003039     0.00003931    -0.00093162
N        -0.04721804    -0.07002021     1.37458490     0.00006078    -0.00009577     0.00082670
H         0.89794335     0.06907368    -0.67322074    -0.00000397     0.00082076    -0.00030751
H         0.84395107    -0.09193436     1.94453058    -0.00078454    -0.00044375    -0.00025483
H        -0.89821800     0.06511711     1.84947730    -0.00010665     0.00103873     0.00012003
H        -0.96692978     0.02520101    -0.61341525     0.00041268    -0.00055322     0.00005535
     6
  Step:    34            Position(A)                                  Velocity(au)
C        -0.03652626     0.02001113    -0.06542633    -0.00002126     0.00004071    -0.00095152
N        -0.04682539    -0.07056436     1.37921212     0.00007894    -0.00009950     0.00083282
H         0.89777719     0.07371547    -0.67460810    -0.00005312     0.00084575    -0.00019483
H         0.83927260    -0.09447023     1.94287724    -0.00088200    -0.00046641    -0.00032922
H        -0.89924871     0.07109069     1.85043494    -0.00025921     0.00110562     0.00022169
H        -0.96478702     0.02202254    -0.61305866     0.00035066    -0.00058742     0.00006757
     6
  Step:    35            Position(A)                                  Velocity(au)
C        -0.03661828     0.02024122    -0.07077080    -0.00001159     0.00004177    -0.00096553
N        -0.04633902    -0.07112820     1.38385888     0.00009417    -0.00010284     0.00083418
H         0.89735180     0.07849164    -0.67539031    -0.00009646     0.00086954    -0.00009066
H         0.83412946    -0.09712806     1.94086455    -0.00095034    -0.00048798    -0.00038322
H        -0.90110449     0.07742883     1.85194592    -0.00040030     0.00116971     0.00031737
H        -0.96302502     0.01865970    -0.61266285     0.00027657    -0.00061986     0.00006974
     6
  Step:    36            Position(A)                                  Velocity(au)
C        -0.03665527     0.02047623    -0.07617645    -0.00000160     0.00004249    -0.00097367
N        -0.04577693    -0.07170941     1.38849980     0.00010588    -0.00010571     0.00083092
H         0.89670320     0.08339677    -0.67561751    -0.00013274     0.00089226     0.00000414
H         0.82869161    -0.09990333     1.93861053    -0.00098674    -0.00050881    -0.00041531
H        -0.90370555     0.08411406     1.85396851    -0.00052451     0.00122990     0.00040421
H        -0.96170775     0.01512107    -0.61228215     0.00019165    -0.00065074     0.00006255
     6
  Step:    37            Position(A)                                  Velocity(au)
C        -0.03663605     0.02071433    -0.08161163     0.00000848     0.00004288    -0.00097602
N        -0.04516015    -0.07230514     1.39311029     0.00011358    -0.00010799     0.00082318
H         0.89587392     0.08842602    -0.67534424    -0.00016082     0.00091401     0.00008878
H         0.82314311    -0.10279318     1.93624056    -0.00098906    -0.00052918    -0.00042442
H        -0.90694434     0.09112248     1.85644639    -0.00062724     0.00128502     0.00047980
H        -0.96089116     0.01141439    -0.61196638     0.00009765    -0.00068017     0.00004695
     6
  Step:    38            Position(A)                                  Velocity(au)
C        -0.03656082     0.02095374    -0.08704527     0.00001838     0.00004294    -0.00097275
N        -0.04451207    -0.07291196     1.39766661     0.00011694    -0.00010960     0.00081118
H         0.89491230     0.09357513    -0.67462889    -0.00017975     0.00093491     0.00016258
H         0.81767754    -0.10579627     1.93388429    -0.00095615    -0.00054934    -0.00041013
H        -0.91069040     0.09842393     1.85931152    -0.00070494     0.00133401     0.00054234
H        -0.96062036     0.00754679    -0.61175937    -0.00000324    -0.00070823     0.00002413
     6
  Step:    39            Position(A)                                  Velocity(au)
C        -0.03643130     0.02119270    -0.09244741     0.00002782     0.00004269    -0.00096416
N        -0.04385751    -0.07352602     1.40214625     0.00011580    -0.00011048     0.00079521
H         0.89387157     0.09884026    -0.67353319    -0.00018878     0.00095505     0.00022503
H         0.81249227    -0.10891246     1.93167203    -0.00088813    -0.00056945    -0.00037282
H        -0.91479693     0.10598251     1.86248769    -0.00075534     0.00137599     0.00059071
H        -0.96092721     0.00352516    -0.61169764    -0.00010840    -0.00073497    -0.00000449
     6
  Step:    40            Position(A)                                  Velocity(au)
C        -0.03625080     0.02142949    -0.09778974     0.00003652     0.00004213    -0.00095067
N        -0.04322166    -0.07414317     1.40652833     0.00011020    -0.00011060     0.00077567
H         0.89280859     0.10421809    -0.67212114    -0.00018740     0.00097463     0.00027583
H         0.80778029    -0.11214217     1.92972969    -0.00078665    -0.00058972    -0.00031378
H        -0.91910783     0.11375774     1.86589434    -0.00077748     0.00141036     0.00062451
H        -0.96182832    -0.00064360    -0.61180940    -0.00021497    -0.00076043    -0.00003734
     6
  Step:    41            Position(A)                                  Velocity(au)
C        -0.03602416     0.02166246    -0.10304635     0.00004421     0.00004129    -0.00093279
N        -0.04262893    -0.07475908     1.41079415     0.00010040    -0.00010994     0.00075303
H         0.89178221     0.10970636    -0.67045796    -0.00017546     0.00099389     0.00031492
H         0.80372191    -0.11548724     1.92817372    -0.00065488    -0.00061035    -0.00023524
H        -0.92346501     0.12170659     1.86945027    -0.00077166     0.00143692     0.00064396
H        -0.96332389    -0.00495283    -0.61211394    -0.00031998    -0.00078468    -0.00007281
     6
  Step:    42            Position(A)                                  Velocity(au)
C        -0.03575764     0.02189004    -0.10819418     0.00005067     0.00004017    -0.00091113
N        -0.04210184    -0.07536946     1.41492768     0.00008683    -0.00010854     0.00072784
H         0.89085154     0.11530395    -0.66860852    -0.00015308     0.00101308     0.00034253
H         0.80047571    -0.11895006     1.92710576    -0.00049754    -0.00063143    -0.00014035
H        -0.92771498     0.12978525     1.87307707    -0.00073928     0.00145575     0.00064986
H        -0.96539740    -0.00939600    -0.61262150    -0.00042051    -0.00080779    -0.00010930
     6
  Step:    43            Position(A)                                  Velocity(au)
C        -0.03545875     0.02211072    -0.11321344     0.00005570     0.00003879    -0.00088631
N        -0.04166000    -0.07597023     1.41891595     0.00007011    -0.00010645     0.00070069
H         0.89007402     0.12101114    -0.66663575    -0.00012076     0.00103251     0.00035917
H         0.79816995    -0.12253322     1.92660764    -0.00032071    -0.00065298    -0.00003299
H        -0.93171449     0.13795098     1.87670190    -0.00068263     0.00146725     0.00064344
H        -0.96801629    -0.01396682    -0.61333359    -0.00051385    -0.00082983    -0.00014533
     6
  Step:    44            Position(A)                                  Velocity(au)
C        -0.03513591     0.02232308    -0.11808779     0.00005916     0.00003717    -0.00085895
N        -0.04131923    -0.07655768     1.42274926     0.00005095    -0.00010374     0.00067217
H         0.88950354     0.12682961    -0.66459921    -0.00007928     0.00105243     0.00036558
H         0.79689565    -0.12623907     1.92673746    -0.00013149    -0.00067491     0.00008234
H        -0.93533504     0.14616372     1.88025967    -0.00060465     0.00147203     0.00062624
H        -0.97113340    -0.01865920    -0.61424380    -0.00059760    -0.00085086    -0.00017959
     6