|===============================================================================
|
|  DFTB+ release 20.1
|
|  Copyright (C) 2006 - 2020  DFTB+ developers group
|
|===============================================================================
|
|  When publishing results obtained with DFTB+, please cite the following
|  reference:
|
|  * DFTB+, a software package for efficient approximate density functional
|    theory based atomistic simulations, J. Chem. Phys. 152, 124101 (2020).
|    [doi: 10.1063/1.5143190]
|
|  You should also cite additional publications crediting the parametrization
|  data you use. Please consult the documentation of the SK-files for the
|  references.
|
|===============================================================================

Reading input file 'dftb_in.hsd'
Parser version: 8

--------------------------------------------------------------------------------
Reading SK-files:
Done.


Processed input in HSD format written to 'dftb_pin.hsd'

Starting initialization...
--------------------------------------------------------------------------------
OpenMP threads:              1
Chosen random seed:          450198345
Mode:                        Static calculation
Self consistent charges:     Yes
SCC-tolerance:                 0.100000E-05
Max. scc iterations:                   1000
Shell resolved Hubbard:      No
Spin polarisation:           No
Nr. of up electrons:             6.000000
Nr. of down electrons:           6.000000
Periodic boundaries:         No
Electronic solver:           Relatively robust
Maximal SCC-cycles:                    1000
Initial charges:             Set automatically (system chrg:   0.100E+01)
Included shells:             C:  s, p
                             N:  s, p
                             H:  s
Spin coupling constants:     C   1(s)-1(s):  -0.455900E-01
                             C   1(s)-2(p):  -0.293000E-01
                             C   2(p)-1(s):  -0.293000E-01
                             C   2(p)-2(p):  -0.275500E-01
                             N   1(s)-1(s):  -0.468700E-01
                             N   1(s)-2(p):  -0.317000E-01
                             N   2(p)-1(s):  -0.317000E-01
                             N   2(p)-2(p):  -0.307200E-01
                             H   1(s)-1(s):  -0.792500E-01
Range separated hybrid:      Yes
  Screening parameter omega:   0.300000E+00
  Range separated algorithm:   MatrixBased
Extra options:
                             Mulliken analysis
                             Force calculation
Force type                   original
                             Eigenvector printing


REKS Calcuation:             Yes
SSR(2,2) Calcuation:         Yes
Energy Functional:           (PPS+OSS)/2
Number of Core Orbitals:                  5
Number of Active Orbitals:                2
Number of Basis:                         12
Number of States:                         2
State-Averaging Weight:          0.500000
                                 0.500000
State of Interest:                        1
Initial Guess:               Diagonalize H0 matrix
Newton-Raphson for FON opt:  Yes
NR max. Iterations:                      50
Level Shifting:              Yes
Shift Value:                     0.300000
W Scale Factor:              C  =    3.200000
                             N  =    3.200000
                             H  =    3.200000
Transition Dipole:           No
Gradient of Microstate:      No
CP-REKS Solver:              Preconditioned Conjugate-Gradient
CG max. Iterations:                     100
CG Tolerance:                  0.100000E-07
Memory for A and Hxc:        Direct Updating Without Saving
Non-Adiabatic Coupling:      Yes

--------------------------------------------------------------------------------

***  Geometry step: 0

  iSCC       reks energy        Diff energy         x_a       SCC error   
    1       -6.0507959192       0.0000000000     0.530511    1.10596697
    2       -6.0543210114      -0.0035250922     0.537103    0.03025284
    3       -6.0553590750      -0.0010380637     0.539333    0.01568782
    4       -6.0557250442      -0.0003659692     0.540222    0.00873921
    5       -6.0558698871      -0.0001448429     0.540629    0.00515088
    6       -6.0559320343      -0.0000621472     0.540834    0.00317255
    7       -6.0559604552      -0.0000284208     0.540944    0.00202377
    8       -6.0559742066      -0.0000137515     0.541004    0.00132875
    9       -6.0559812300      -0.0000070233     0.541036    0.00089407
   10       -6.0559850167      -0.0000037868     0.541053    0.00061454
   11       -6.0559871746      -0.0000021579     0.541060    0.00043835
   12       -6.0559884760      -0.0000013014     0.541062    0.00033167
   13       -6.0559893075      -0.0000008315     0.541061    0.00025370
   14       -6.0559898702      -0.0000005628     0.541057    0.00020324
   15       -6.0559902732      -0.0000004029     0.541053    0.00016574
   16       -6.0559905772      -0.0000003040     0.541048    0.00013589
   17       -6.0559908175      -0.0000002403     0.541043    0.00011202
   18       -6.0559910151      -0.0000001976     0.541037    0.00009283
   19       -6.0559911828      -0.0000001678     0.541031    0.00008781
   20       -6.0559913288      -0.0000001460     0.541025    0.00008519
   21       -6.0559914582      -0.0000001294     0.541019    0.00008258
   22       -6.0559915746      -0.0000001163     0.541014    0.00008396
   23       -6.0559916801      -0.0000001056     0.541008    0.00008540
   24       -6.0559917766      -0.0000000965     0.541002    0.00008588
   25       -6.0559918652      -0.0000000886     0.540996    0.00008562
   26       -6.0559919469      -0.0000000817     0.540990    0.00008480
   27       -6.0559920224      -0.0000000755     0.540984    0.00008355
   28       -6.0559920923      -0.0000000699     0.540979    0.00008198
   29       -6.0559921570      -0.0000000647     0.540973    0.00008019
   30       -6.0559922170      -0.0000000600     0.540967    0.00007822
   31       -6.0559922727      -0.0000000557     0.540961    0.00007615
   32       -6.0559923244      -0.0000000517     0.540956    0.00007401
   33       -6.0559923724      -0.0000000480     0.540950    0.00007183
   34       -6.0559924169      -0.0000000446     0.540945    0.00006963
   35       -6.0559924583      -0.0000000414     0.540939    0.00006743
   36       -6.0559924967      -0.0000000384     0.540934    0.00006526
   37       -6.0559925324      -0.0000000357     0.540929    0.00006311
   38       -6.0559925656      -0.0000000332     0.540924    0.00006101
   39       -6.0559925964      -0.0000000308     0.540919    0.00005894
   40       -6.0559926250      -0.0000000286     0.540914    0.00005693
   41       -6.0559926516      -0.0000000266     0.540909    0.00005497
   42       -6.0559926762      -0.0000000247     0.540904    0.00005306
   43       -6.0559926991      -0.0000000229     0.540899    0.00005120
   44       -6.0559927204      -0.0000000213     0.540895    0.00004940
   45       -6.0559927402      -0.0000000198     0.540890    0.00004766
   46       -6.0559927585      -0.0000000184     0.540886    0.00004597
   47       -6.0559927756      -0.0000000170     0.540882    0.00004434
   48       -6.0559927914      -0.0000000158     0.540877    0.00004276
   49       -6.0559928061      -0.0000000147     0.540873    0.00004123
   50       -6.0559928197      -0.0000000136     0.540869    0.00003976
   51       -6.0559928324      -0.0000000127     0.540866    0.00003833
   52       -6.0559928442      -0.0000000118     0.540862    0.00003696
   53       -6.0559928551      -0.0000000109     0.540858    0.00003563
   54       -6.0559928653      -0.0000000101     0.540855    0.00003435
   55       -6.0559928747      -0.0000000094     0.540851    0.00003311
   56       -6.0559928834      -0.0000000087     0.540848    0.00003191
   57       -6.0559928916      -0.0000000081     0.540845    0.00003076
   58       -6.0559928991      -0.0000000075     0.540841    0.00002965
   59       -6.0559929061      -0.0000000070     0.540838    0.00002858
   60       -6.0559929126      -0.0000000065     0.540835    0.00002754
   61       -6.0559929186      -0.0000000060     0.540832    0.00002655
   62       -6.0559929242      -0.0000000056     0.540830    0.00002558
   63       -6.0559929294      -0.0000000052     0.540827    0.00002466
   64       -6.0559929343      -0.0000000048     0.540824    0.00002376
   65       -6.0559929388      -0.0000000045     0.540822    0.00002290
   66       -6.0559929429      -0.0000000042     0.540819    0.00002207
   67       -6.0559929468      -0.0000000039     0.540817    0.00002127
   68       -6.0559929504      -0.0000000036     0.540815    0.00002050
   69       -6.0559929537      -0.0000000033     0.540812    0.00001975
   70       -6.0559929568      -0.0000000031     0.540810    0.00001903
   71       -6.0559929597      -0.0000000029     0.540808    0.00001834
   72       -6.0559929623      -0.0000000027     0.540806    0.00001767
   73       -6.0559929648      -0.0000000025     0.540804    0.00001703
   74       -6.0559929671      -0.0000000023     0.540802    0.00001641
   75       -6.0559929692      -0.0000000021     0.540800    0.00001581
   76       -6.0559929712      -0.0000000020     0.540798    0.00001524
   77       -6.0559929731      -0.0000000018     0.540797    0.00001468
   78       -6.0559929748      -0.0000000017     0.540795    0.00001415
   79       -6.0559929763      -0.0000000016     0.540793    0.00001363
   80       -6.0559929778      -0.0000000015     0.540792    0.00001314
   81       -6.0559929792      -0.0000000014     0.540790    0.00001266
   82       -6.0559929804      -0.0000000013     0.540789    0.00001220
   83       -6.0559929816      -0.0000000012     0.540788    0.00001175
   84       -6.0559929827      -0.0000000011     0.540786    0.00001132
   85       -6.0559929837      -0.0000000010     0.540785    0.00001091
   86       -6.0559929847      -0.0000000009     0.540784    0.00001051
   87       -6.0559929855      -0.0000000009     0.540782    0.00001013
   88       -6.0559929864      -0.0000000008     0.540781    0.00000976
   89       -6.0559929871      -0.0000000008     0.540780    0.00000940
   90       -6.0559929878      -0.0000000007     0.540779    0.00000906
   91       -6.0559929885      -0.0000000006     0.540778    0.00000873
   92       -6.0559929891      -0.0000000006     0.540777    0.00000841
   93       -6.0559929896      -0.0000000006     0.540776    0.00000810
   94       -6.0559929901      -0.0000000005     0.540775    0.00000781
   95       -6.0559929906      -0.0000000005     0.540774    0.00000752
   96       -6.0559929911      -0.0000000004     0.540773    0.00000725
   97       -6.0559929915      -0.0000000004     0.540772    0.00000698
   98       -6.0559929919      -0.0000000004     0.540771    0.00000673
   99       -6.0559929922      -0.0000000004     0.540771    0.00000648
  100       -6.0559929925      -0.0000000003     0.540770    0.00000625
  101       -6.0559929929      -0.0000000003     0.540769    0.00000602
  102       -6.0559929931      -0.0000000003     0.540768    0.00000580
  103       -6.0559929934      -0.0000000003     0.540768    0.00000559
  104       -6.0559929937      -0.0000000002     0.540767    0.00000538
  105       -6.0559929939      -0.0000000002     0.540766    0.00000519
  106       -6.0559929941      -0.0000000002     0.540766    0.00000500
  107       -6.0559929943      -0.0000000002     0.540765    0.00000481
  108       -6.0559929945      -0.0000000002     0.540765    0.00000464
  109       -6.0559929946      -0.0000000002     0.540764    0.00000447
  110       -6.0559929948      -0.0000000002     0.540763    0.00000431
  111       -6.0559929949      -0.0000000001     0.540763    0.00000415
  112       -6.0559929951      -0.0000000001     0.540762    0.00000400
  113       -6.0559929952      -0.0000000001     0.540762    0.00000385
  114       -6.0559929953      -0.0000000001     0.540761    0.00000371
  115       -6.0559929954      -0.0000000001     0.540761    0.00000357
  116       -6.0559929955      -0.0000000001     0.540761    0.00000344
  117       -6.0559929956      -0.0000000001     0.540760    0.00000332
  118       -6.0559929957      -0.0000000001     0.540760    0.00000320
  119       -6.0559929958      -0.0000000001     0.540759    0.00000308
  120       -6.0559929959      -0.0000000001     0.540759    0.00000297
  121       -6.0559929959      -0.0000000001     0.540759    0.00000286
  122       -6.0559929960      -0.0000000001     0.540758    0.00000275
  123       -6.0559929961      -0.0000000001     0.540758    0.00000265
  124       -6.0559929961      -0.0000000001     0.540758    0.00000256
  125       -6.0559929962      -0.0000000001     0.540757    0.00000246
  126       -6.0559929962      -0.0000000000     0.540757    0.00000237
  127       -6.0559929963      -0.0000000000     0.540757    0.00000229
  128       -6.0559929963      -0.0000000000     0.540756    0.00000220
  129       -6.0559929963      -0.0000000000     0.540756    0.00000212
  130       -6.0559929964      -0.0000000000     0.540756    0.00000204
  131       -6.0559929964      -0.0000000000     0.540756    0.00000197
  132       -6.0559929964      -0.0000000000     0.540755    0.00000190
  133       -6.0559929965      -0.0000000000     0.540755    0.00000183
  134       -6.0559929965      -0.0000000000     0.540755    0.00000176
  135       -6.0559929965      -0.0000000000     0.540755    0.00000170
  136       -6.0559929965      -0.0000000000     0.540755    0.00000163
  137       -6.0559929966      -0.0000000000     0.540754    0.00000158
  138       -6.0559929966      -0.0000000000     0.540754    0.00000152
  139       -6.0559929966      -0.0000000000     0.540754    0.00000146
  140       -6.0559929966      -0.0000000000     0.540754    0.00000141
  141       -6.0559929966      -0.0000000000     0.540754    0.00000136
  142       -6.0559929966      -0.0000000000     0.540753    0.00000131
  143       -6.0559929967      -0.0000000000     0.540753    0.00000126
  144       -6.0559929967      -0.0000000000     0.540753    0.00000121
  145       -6.0559929967      -0.0000000000     0.540753    0.00000117
  146       -6.0559929967      -0.0000000000     0.540753    0.00000113
  147       -6.0559929967      -0.0000000000     0.540753    0.00000109
  148       -6.0559929967      -0.0000000000     0.540753    0.00000105
  149       -6.0559929967      -0.0000000000     0.540752    0.00000101
  150       -6.0559929967      -0.0000000000     0.540752    0.00000097
  
--------------------------------------------------
 Final SA-REKS(2,2) energy:      -6.05599300
  
 State     Energy      FON(1)    FON(2)   Spin
  PPS   -6.19376599   1.081505  0.918495  0.00
  OSS   -5.91822000   1.000000  1.000000  0.00
 Trip   -6.19544378   1.000000  1.000000  1.00
--------------------------------------------------

 Lagrangian Wab:  -0.00070958 -0.00070989

--------------------------------------------------
 SSR: 2SI-2SA-REKS(2,2) Hamiltonian matrix
               PPS           OSS
   PPS    -6.19376599   -0.00005788
   OSS    -0.00005788   -5.91822000
--------------------------------------------------

----------------------------------------------------------------
 SSR: 2SI-2SA-REKS(2,2) states
                    E_n       C_{PPS}    C_{OSS}
 SSR state  1   -6.19376600  -1.000000  -0.000210
 SSR state  2   -5.91821999   0.000210  -1.000000
----------------------------------------------------------------

 unrelaxed SSR FONs for S0:  1.081505  0.918495

Total Energy:                       -6.1937660035 H         -168.5409 eV
Extrapolated to 0:                  -6.1937660035 H         -168.5409 eV

----------------------------------------------------------------------------------
 Solving CP-REKS equation for  1 state vector...
----------------------------------------------------------------------------------
  CG solver: Constructing Y initial guess
  CG solver: Iteration    1    eps =    0.000649122812
  CG solver: Iteration    2    eps =    0.000002719594
  CG solver: Iteration    3    eps =    0.000000617070
  CG solver: Iteration    4    eps =    0.000000290141
  CG solver: Iteration    5    eps =    0.000002804542
  CG solver: Iteration    6    eps =    0.000015045536
  CG solver: Iteration    7    eps =    0.000006162487
  CG solver: Iteration    8    eps =    0.000000465857
  CG solver: Iteration    9    eps =    0.000000057554
  CG solver: Iteration   10    eps =    0.000000001045
  Convergence reached in CG solver after   10 iterations
  CG solver: Calculating converged R, Z, Q2 matrix
----------------------------------------------------------------------------------

----------------------------------------------------------------------------------
 Solving CP-REKS equation for SI between  1 and  2 state vectors...
----------------------------------------------------------------------------------
  CG solver: Constructing Y initial guess
  CG solver: Iteration    1    eps =    0.000003023633
  CG solver: Iteration    2    eps =    0.000052582171
  CG solver: Iteration    3    eps =    0.000103806577
  CG solver: Iteration    4    eps =    0.000039366936
  CG solver: Iteration    5    eps =    0.000008739986
  CG solver: Iteration    6    eps =    0.000000377170
  CG solver: Iteration    7    eps =    0.000000006710
  Convergence reached in CG solver after    7 iterations
  CG solver: Calculating converged R, Z, Q2 matrix
----------------------------------------------------------------------------------

--------------------------------------------------
 Gradient Information
--------------------------------------------------
           1 st state (SSR)
     0.13916830     0.05066782    -0.11388556
    -0.01965560     0.00085491    -0.06030307
     0.05600106     0.04127795     0.01209229
     0.04228552    -0.00677861     0.07117458
    -0.03156309     0.08309991    -0.01747750
    -0.18623618    -0.16912198     0.10839926

           2 st state (SSR)
     0.13818677     0.07015173    -0.25970419
     0.02281648    -0.00167329     0.05058401
     0.02767330     0.04265812     0.00959227
     0.04603316     0.00330158     0.08534835
    -0.02893583     0.06424581    -0.01292326
    -0.20577389    -0.17868395     0.12710282
--------------------------------------------------
 Coupling Information
--------------------------------------------------
 between  1 and  2 states
--------------------------------------------------
 g vector - difference gradient
     0.00049054    -0.00974179     0.07290937
    -0.02123615     0.00126412    -0.05544352
     0.01416395    -0.00069010     0.00124995
    -0.00187375    -0.00504010    -0.00708693
    -0.00131359     0.00942696    -0.00227712
     0.00976899     0.00478092    -0.00935176

 h vector - derivative coupling
     0.00052646    -0.00038129    -0.00011182
     0.00024233    -0.00004576    -0.00007208
    -0.00016309     0.00003876     0.00013545
    -0.00017045     0.00001084     0.00010351
    -0.00010488     0.00021919     0.00000241
    -0.00033037     0.00015827    -0.00005747

 G vector - GDV
     0.00049077    -0.00974195     0.07290931
    -0.02123604     0.00126410    -0.05544354
     0.01416388    -0.00069009     0.00125001
    -0.00187382    -0.00504010    -0.00708688
    -0.00131363     0.00942705    -0.00227712
     0.00976885     0.00478099    -0.00935178

 H vector - DCV - non-adiabatic coupling
     0.00190987    -0.00136891    -0.00051698
     0.00091185    -0.00016800    -0.00017707
    -0.00061346     0.00014171     0.00048966
    -0.00061574     0.00004701     0.00038647
    -0.00037864     0.00078109     0.00001221
    -0.00121388     0.00056710    -0.00019429
--------------------------------------------------


--------------------------------------------------------------------------------
DFTB+ running times                          cpu [s]             wall clock [s]
--------------------------------------------------------------------------------
SCC                                    +     0.06  ( 72.1%)      0.07  ( 73.0%)
      Dense to sparse                        0.01  ( 11.7%)      0.01  ( 14.0%)
Post-SCC processing                    +     0.02  ( 26.3%)      0.02  ( 23.0%)
  Force calculation                          0.02  ( 25.6%)      0.02  ( 22.0%)
--------------------------------------------------------------------------------
Missing                                +     0.00  (  1.6%)      0.00  (  4.0%)
Total                                  =     0.09  (100.0%)      0.10  (100.0%)
--------------------------------------------------------------------------------
