 Fermi distribution function

Calculation with static geometry


********************************************************************************
 iSCC Total electronic   Diff electronic      SCC error    
    9   -0.54393906E+01   -0.63060668E-13    0.80482777E-06
********************************************************************************

 Total charge:     1.00000000

 Atomic gross charges (e)
 Atom           Charge
    1       0.14144280
    2      -0.01826648
    3       0.17040712
    4       0.27057136
    5       0.27303867
    6       0.16280653

Nr. of electrons (up):     12.00000000
Atom populations (up)
 Atom       Population
    1       3.85855720
    2       5.01826648
    3       0.82959288
    4       0.72942864
    5       0.72696133
    6       0.83719347

l-shell populations (up)
 Atom Sh.   l       Population
    1   1   0       1.29925156
    1   2   1       2.55930564
    2   1   0       1.41549199
    2   2   1       3.60277450
    3   1   0       0.82959288
    4   1   0       0.72942864
    5   1   0       0.72696133
    6   1   0       0.83719347

Orbital populations (up)
 Atom Sh.   l   m       Population  Label
    1   1   0   0       1.29925156  s
    1   2   1  -1       0.62343702  p_y
    1   2   1   0       0.88097166  p_z
    1   2   1   1       1.05489695  p_x
    2   1   0   0       1.41549199  s
    2   2   1  -1       1.34437979  p_y
    2   2   1   0       1.10895759  p_z
    2   2   1   1       1.14943712  p_x
    3   1   0   0       0.82959288  s
    4   1   0   0       0.72942864  s
    5   1   0   0       0.72696133  s
    6   1   0   0       0.83719347  s

Fermi level:                        -0.4941644255 H          -13.4469 eV
Band energy:                        -8.9894838778 H         -244.6163 eV
TS:                                  0.0000000000 H            0.0000 eV
Band free energy (E-TS):            -8.9894838778 H         -244.6163 eV
Extrapolated E(0K):                 -8.9894838778 H         -244.6163 eV
Input / Output electrons (q):     12.0000000000     12.0000000000

Energy H0:                          -5.5742069670 H         -151.6819 eV
Energy SCC:                          0.1348163572 H            3.6685 eV
Total Electronic energy:            -5.4393906098 H         -148.0133 eV
Repulsive energy:                    0.2003793017 H            5.4526 eV
Total energy:                       -5.2390113081 H         -142.5608 eV
Extrapolated to 0:                  -5.2390113081 H         -142.5608 eV
Total Mermin free energy:           -5.2390113081 H         -142.5608 eV
Force related energy:               -5.2390113081 H         -142.5608 eV

SCC converged

Excitation Energy:                   0.1670974222 H            4.5470 eV

Total Forces
    1      0.005112294281     -0.008229809946     -0.012862001686
    2     -0.000175700246      0.011462733581     -0.002601891370
    3     -0.005331284130      0.001687399930      0.005206136900
    4     -0.004677685704     -0.004262748646      0.005216972054
    5      0.005517999770     -0.001285701480      0.004451150657
    6     -0.000445623971      0.000628126561      0.000589633446

Maximal derivative component:        0.128620E-01 au


