|===============================================================================
|
|  DFTB+ release 20.1
|
|  Copyright (C) 2006 - 2020  DFTB+ developers group
|
|===============================================================================
|
|  When publishing results obtained with DFTB+, please cite the following
|  reference:
|
|  * DFTB+, a software package for efficient approximate density functional
|    theory based atomistic simulations, J. Chem. Phys. 152, 124101 (2020).
|    [doi: 10.1063/1.5143190]
|
|  You should also cite additional publications crediting the parametrization
|  data you use. Please consult the documentation of the SK-files for the
|  references.
|
|===============================================================================

Reading input file 'dftb_in.hsd'
Parser version: 8

--------------------------------------------------------------------------------
Reading SK-files:
Done.


Processed input in HSD format written to 'dftb_pin.hsd'

Starting initialization...
--------------------------------------------------------------------------------
WARNING!
-> Excited state forces are not implemented yet for fractional occupations, kT=  0.3158E-02K
OpenMP threads:              1
Chosen random seed:          509067785
Mode:                        Static calculation
Self consistent charges:     Yes
SCC-tolerance:                 0.100000E-05
Max. scc iterations:                    100
Shell resolved Hubbard:      No
Spin polarisation:           No
Nr. of up electrons:             6.000000
Nr. of down electrons:           6.000000
Periodic boundaries:         No
Electronic solver:           Relatively robust
Mixer:                       Broyden mixer
Mixing parameter:                  0.200000
Maximal SCC-cycles:                     100
Nr. of chrg. vec. in memory:              0
Electronic temperature:        0.100000E-07 H      0.272114E-06 eV
Initial charges:             Set automatically (system chrg:   0.100E+01)
Included shells:             C:  s, p
                             N:  s, p
                             H:  s
Extra options:
                             Mulliken analysis
                             Force calculation
Force type                   original
                             Eigenvector printing

--------------------------------------------------------------------------------

***  Geometry step: 0

 iSCC Total electronic   Diff electronic      SCC error    
    1   -0.54340609E+01    0.00000000E+00    0.57516862E+00
    2   -0.54369249E+01   -0.28639993E-02    0.40001418E+00
    3   -0.54392147E+01   -0.22898144E-02    0.41726193E-01
    4   -0.54393896E+01   -0.17488109E-03    0.96669932E-02
    5   -0.54393875E+01    0.20656331E-05    0.54205992E-02
    6   -0.54393906E+01   -0.31005594E-05    0.84101393E-04
    7   -0.54393906E+01   -0.14332713E-09    0.36966088E-04
    8   -0.54393906E+01   -0.55321969E-10    0.13791032E-05
    9   -0.54393906E+01   -0.63060668E-13    0.80482777E-06
>> Charges saved for restart in charges.bin

Total Energy:                       -5.0719138859 H         -138.0138 eV
Extrapolated to 0:                  -5.2390113081 H         -142.5608 eV
Total Mermin free energy:           -5.0719138859 H         -138.0138 eV
Force related energy:               -5.2390113081 H         -142.5608 eV

--------------------------------------------------------------------------------
DFTB+ running times                          cpu [s]             wall clock [s]
--------------------------------------------------------------------------------
SCC                                    +     0.01  ( 58.6%)      0.03  ( 60.5%)
Post-SCC processing                    +     0.00  ( 32.5%)      0.01  ( 30.2%)
--------------------------------------------------------------------------------
Missing                                +     0.00  (  8.8%)      0.00  (  9.3%)
Total                                  =     0.01  (100.0%)      0.04  (100.0%)
--------------------------------------------------------------------------------
