     6
  Step:     0            Position(A)                                  Velocity(au)
C        -0.04069861     0.00947924     0.03298769    -0.00007101     0.00007504     0.00019735
N        -0.03942525    -0.05206236     1.28175572     0.00013409    -0.00005288    -0.00014257
H         0.89722323     0.02435151    -0.51982596     0.00049946    -0.00025146    -0.00021290
H         0.81112866    -0.11185012     1.90677464    -0.00046964     0.00022043    -0.00064735
H        -0.91150425    -0.08078410     1.81568177    -0.00125096     0.00018112     0.00062686
H        -0.97695136     0.10902650    -0.51540042     0.00020396    -0.00030938    -0.00013710
     6
  Step:     1            Position(A)                                  Velocity(au)
C        -0.04145880     0.01032729     0.03427598    -0.00006701     0.00008051     0.00003464
N        -0.03787882    -0.05267979     1.28110992     0.00014218    -0.00006034     0.00002755
H         0.90360826     0.02164303    -0.52330746     0.00064483    -0.00024497    -0.00040759
H         0.80520000    -0.10936249     1.89902504    -0.00058440     0.00023249    -0.00074311
H        -0.92574656    -0.07891670     1.82311151    -0.00128491     0.00016327     0.00068819
H        -0.97559643     0.10585516    -0.51797682     0.00004712    -0.00027165    -0.00033320
     6
  Step:     2            Position(A)                                  Velocity(au)
C        -0.04216451     0.01124054     0.03374555    -0.00006133     0.00008676    -0.00013098
N        -0.03631471    -0.05338231     1.28235842     0.00013733    -0.00006815     0.00019869
H         0.91133012     0.01899222    -0.52874281     0.00074149    -0.00024078    -0.00056844
H         0.79834389    -0.10676387     1.89051776    -0.00062874     0.00024022    -0.00077772
H        -0.93961422    -0.07721235     1.83073735    -0.00119291     0.00015058     0.00066963
H        -0.97592042     0.10308370    -0.52268970    -0.00009729    -0.00023686    -0.00052390
     6
  Step:     3            Position(A)                                  Velocity(au)
C        -0.04280059     0.01222542     0.03141063    -0.00005456     0.00009338    -0.00029115
N        -0.03487456    -0.05417064     1.28545667     0.00011984    -0.00007575     0.00036090
H         0.91982987     0.01637547    -0.53574319     0.00078691    -0.00023856    -0.00069357
H         0.79144506    -0.10410732     1.88201095    -0.00058430     0.00024287    -0.00073749
H        -0.95184366    -0.07562243     1.83776099    -0.00099877     0.00014165     0.00058720
H        -0.97772486     0.10067348    -0.52943818    -0.00021904    -0.00020600    -0.00070208
     6
  Step:     4            Position(A)                                  Velocity(au)
C        -0.04335808     0.01328348     0.02737615    -0.00004718     0.00009992    -0.00043815
N        -0.03369298    -0.05503952     1.29025380     0.00009072    -0.00008266     0.00050537
H         0.92854529     0.01377332    -0.54391601     0.00078233    -0.00023791    -0.00078372
H         0.78556125    -0.10145062     1.87438380    -0.00044040     0.00024046    -0.00061589
H        -0.96146425    -0.07411345     1.84358350    -0.00072985     0.00013519     0.00045961
H        -0.98071227     0.09857703    -0.53804907    -0.00031055    -0.00017968    -0.00086190
     6
  Step:     5            Position(A)                                  Velocity(au)
C        -0.04383269     0.01441133     0.02182527    -0.00003954     0.00010595    -0.00056576
N        -0.03288992    -0.05597894     1.29651267     0.00005181    -0.00008851     0.00062561
H         0.93694479     0.01117083    -0.55288855     0.00073170    -0.00023843    -0.00084150
H         0.78181053    -0.09884677     1.86853708    -0.00019943     0.00023393    -0.00041726
H        -0.96781048    -0.07266484     1.84781594    -0.00041376     0.00013013     0.00030584
H        -0.98451869     0.09674255    -0.54829386    -0.00036731    -0.00015811    -0.00099918
     6
  Step:     6            Position(A)                                  Velocity(au)
C        -0.04422318     0.01560135     0.01499907    -0.00003186     0.00011113    -0.00066973
N        -0.03255945    -0.05697587     1.30394013     0.00000613    -0.00009312     0.00071798
H         0.94455263     0.00855720    -0.56232535     0.00064075    -0.00023979    -0.00087072
H         0.78119837    -0.09633291     1.86525537     0.00011915     0.00022516    -0.00015887
H        -0.97051599    -0.07126668     1.85027440    -0.00007756     0.00012559     0.00014422
H        -0.98874788     0.09511814    -0.55990794    -0.00038784    -0.00014112    -0.00111146
     6
  Step:     7            Position(A)                                  Velocity(au)
C        -0.04452963     0.01684261     0.00717354    -0.00002418     0.00011523    -0.00074792
N        -0.03275588    -0.05801619     1.31221992    -0.00004211    -0.00009647     0.00078172
H         0.95096236     0.00592502    -0.57193718     0.00051608    -0.00024172    -0.00087577
H         0.78441725    -0.09392087     1.86506155     0.00047883     0.00021667     0.00013029
H        -0.96950732    -0.06991737     1.85097105     0.00025176     0.00012090    -0.00000755
H        -0.99300341     0.09365527    -0.57260912    -0.00037335    -0.00012830    -0.00119787
     6
  Step:     8            Position(A)                                  Velocity(au)
C        -0.04475221     0.01812212    -0.00136319    -0.00001650     0.00011808    -0.00080003
N        -0.03348062    -0.05908626     1.32104185    -0.00008771    -0.00009863     0.00081825
H         0.95584290     0.00326919    -0.58148444     0.00036479    -0.00024400    -0.00086122
H         0.79167365    -0.09159277     1.86810580     0.00083141     0.00021105     0.00041459
H        -0.96500827    -0.06862173     1.85010915     0.00054648     0.00011557    -0.00013210
H        -0.99691554     0.09231129    -0.58611353    -0.00032719    -0.00011910    -0.00125877
     6
  Step:     9            Position(A)                                  Velocity(au)
C        -0.04489058     0.01942591    -0.01032868    -0.00000371     0.00012585    -0.00093102
N        -0.03467471    -0.06017384     1.33012063    -0.00012850    -0.00010436     0.00091024
H         0.95894277     0.00058698    -0.59077802     0.00011093    -0.00037051    -0.00075439
H         0.80260594    -0.08930377     1.87413148     0.00110715     0.00034740     0.00063651
H        -0.95755211    -0.06738912     1.84808106     0.00081983    -0.00002810    -0.00023664
H        -1.00016121     0.09104977    -0.60014716    -0.00020809     0.00000180    -0.00120046
     6
  Step:    10            Position(A)                                  Velocity(au)
C        -0.04483328     0.02087538    -0.02173105     0.00001427     0.00013865    -0.00115413
N        -0.03629171    -0.06136931     1.34095505    -0.00016001    -0.00011436     0.00107103
H         0.95826965    -0.00483635    -0.59798815    -0.00023469    -0.00054578    -0.00055241
H         0.81589468    -0.08399275     1.88203068     0.00126155     0.00054663     0.00075662
H        -0.94707292    -0.06923651     1.84493227     0.00105189    -0.00022865    -0.00031075
H        -1.00146798     0.09235069    -0.61237590    -0.00002509     0.00016488    -0.00102436
     6
  Step:    11            Position(A)                                  Velocity(au)
C        -0.04457850     0.02245918    -0.03557742     0.00003152     0.00014965    -0.00135909
N        -0.03817531    -0.06267572     1.35355156    -0.00017473    -0.00012368     0.00121579
H         0.95380838    -0.01135293    -0.60286312    -0.00056524    -0.00063097    -0.00034676
H         0.83020480    -0.07734521     1.89068394     0.00129972     0.00065555     0.00079448
H        -0.93453998    -0.07239129     1.84128286     0.00115963    -0.00033401    -0.00030863
H        -1.00071019     0.09465684    -0.62255709     0.00015848     0.00024489    -0.00083922
     6
  Step:    12            Position(A)                                  Velocity(au)
C        -0.04414375     0.02414930    -0.05146371     0.00004670     0.00015804    -0.00152553
N        -0.04011430    -0.06407497     1.36755273    -0.00016926    -0.00013115     0.00132672
H         0.94590384    -0.01864013    -0.60557409    -0.00085136    -0.00069485    -0.00016597
H         0.84432853    -0.06965136     1.89941145     0.00123260     0.00074497     0.00077657
H        -0.92170384    -0.07654367     1.83818048     0.00109138    -0.00042012    -0.00020366
H        -0.99800089     0.09770808    -0.63073539     0.00032302     0.00030931    -0.00066526
     6
  Step:    13            Position(A)                                  Velocity(au)
C        -0.04355677     0.02591664    -0.06895125     0.00005880     0.00016387    -0.00165232
N        -0.04187824    -0.06554485     1.38257600    -0.00014318    -0.00013651     0.00140370
H         0.93518332    -0.02655407    -0.60649395    -0.00106635    -0.00074939    -0.00002784
H         0.85717021    -0.06104764     1.90767299     0.00107423     0.00082381     0.00071650
H        -0.91066402    -0.08158213     1.83682748     0.00082957    -0.00049981     0.00000994
H        -0.99364344     0.10142353    -0.63711098     0.00045161     0.00036977    -0.00051579
     6
  Step:    14            Position(A)                                  Velocity(au)
C        -0.04285749     0.02773429    -0.08761146     0.00006664     0.00016743    -0.00174124
N        -0.04324655    -0.06706143     1.39826133    -0.00009904    -0.00013969     0.00145012
H         0.92257529    -0.03503452    -0.60618309    -0.00118251    -0.00080138     0.00005124
H         0.86782931    -0.05162895     1.91508620     0.00084533     0.00089465     0.00062927
H        -0.90355547    -0.08747808     1.83839800     0.00039083    -0.00057890     0.00031903
H        -0.98812105     0.10579760    -0.64201922     0.00052848     0.00043189    -0.00040224
     6
  Step:    15            Position(A)                                  Velocity(au)
C        -0.04209881     0.02957939    -0.10704432     0.00006912     0.00016914    -0.00179524
N        -0.04404483    -0.06860094     1.41430018    -0.00004270    -0.00014082     0.00147146
H         0.90931361    -0.04408583    -0.60537307    -0.00117378    -0.00085660     0.00005740
H         0.87566352    -0.04147547     1.92143953     0.00057127     0.00095863     0.00053048
H        -0.90211391    -0.09424677     1.84380681    -0.00016778    -0.00065988     0.00068999
H        -0.98208203     0.11087199    -0.64591077     0.00054011     0.00049929    -0.00033372
     6
  Step:    16            Position(A)                                  Velocity(au)
C        -0.04134546     0.03143456    -0.12688584     0.00006540     0.00016953    -0.00181777
N        -0.04418069    -0.07014214     1.43045241     0.00001734    -0.00014023     0.00147410
H         0.89689659    -0.05377423    -0.60492728    -0.00102163    -0.00092053    -0.00001774
H         0.88032688    -0.03065711     1.92669148     0.00028000     0.00101694     0.00043524
H        -0.90722593    -0.10191411     1.85349294    -0.00075602    -0.00074221     0.00107436
H        -0.97630514     0.11672055    -0.64931992     0.00047734     0.00057449    -0.00031583
     6
  Step:    17            Position(A)                                  Velocity(au)
C        -0.04066808     0.03328810    -0.14681156     0.00005549     0.00016904    -0.00181257
N        -0.04366539    -0.07166880     1.44654886     0.00007173    -0.00013849     0.00146391
H         0.88696358    -0.06422418    -0.60576107    -0.00072338    -0.00099771    -0.00017331
H         0.88178908    -0.01922798     1.93096120     0.00000044     0.00107146     0.00035753
H        -0.91865322    -0.11048397     1.86731041    -0.00127282    -0.00082264     0.00142101
H        -0.97163928     0.12344005    -0.65282007     0.00033777     0.00065913    -0.00034957
     6
  Step:    18            Position(A)                                  Velocity(au)
C        -0.04013149     0.03513273    -0.16653935     0.00004062     0.00016797    -0.00178370
N        -0.04261146    -0.07317189     1.46247820     0.00011236    -0.00013629     0.00144512
H         0.88107129    -0.07560106    -0.60871880    -0.00030013    -0.00109015    -0.00039624
H         0.88033648    -0.00721696     1.93451323    -0.00023944     0.00112496     0.00030965
H        -0.93507139    -0.11991093     1.88458034    -0.00163415    -0.00089611     0.00168968
H        -0.96891574     0.13114019    -0.65696753     0.00012822     0.00075378    -0.00043044
     6
  Step:    19            Position(A)                                  Velocity(au)
C        -0.03977936     0.03696279    -0.18583344     0.00002335     0.00016630    -0.00173578
N        -0.04120722    -0.07465049     1.47816372     0.00013401    -0.00013438     0.00142003
H         0.88039756    -0.08807324    -0.61442965     0.00020089    -0.00119561    -0.00066153
H         0.87655091     0.00538274     1.93773544    -0.00041501     0.00118112     0.00030134
H        -0.95440330    -0.13008804     1.90427535    -0.00179222    -0.00095727     0.00185883
H        -0.96883425     0.13993038    -0.66223684    -0.00013408     0.00085765    -0.00054833
     6
  Step:    20            Position(A)                                  Velocity(au)
C        -0.03962071     0.03877076    -0.20451275     0.00000703     0.00016371    -0.00167405
N        -0.03967980    -0.07611175     1.49354402     0.00013476    -0.00013344     0.00138950
H         0.88546624    -0.10175726    -0.62319099     0.00071325    -0.00130692    -0.00093681
H         0.87125739     0.01862233     1.94110569    -0.00050811     0.00124416     0.00033867
H        -0.97427965    -0.14085305     1.92524582    -0.00173911    -0.00100193     0.00192584
H        -0.97184890     0.14990283    -0.66896329    -0.00042246     0.00096838    -0.00068869
     6
  Step:    21            Position(A)                                  Velocity(au)
C        -0.03962560     0.04054417    -0.22245644    -0.00000515     0.00015970    -0.00160380
N        -0.03825903    -0.07756979     1.50856164     0.00011570    -0.00013402     0.00135370
H         0.89600129    -0.11666463    -0.63492420     0.00116640    -0.00141308    -0.00118999
H         0.86543492     0.03260108     1.94514448    -0.00051082     0.00131820     0.00042255
H        -0.99244972    -0.15200709     1.94640689    -0.00149763    -0.00102774     0.00190166
H        -0.97807634     0.16111548    -0.67730315    -0.00070433     0.00108209    -0.00083474
     6
  Step:    22            Position(A)                                  Velocity(au)
C        -0.03973335     0.04226442    -0.23959897    -0.00001116     0.00015376    -0.00152953
N        -0.03714873    -0.07904367     1.52315869     0.00008011    -0.00013644     0.00131264
H         0.91098357    -0.13267103    -0.64922435     0.00150283    -0.00150206    -0.00139644
H         0.86008228     0.04746058     1.95034980    -0.00042868     0.00140622     0.00054759
H        -1.00704325    -0.16333685     1.96684831    -0.00110784    -0.00103425     0.00180415
H        -0.98725739     0.17357569    -0.68722487    -0.00094653     0.00119395    -0.00097031
     6
  Step:    23            Position(A)                                  Velocity(au)
C        -0.03986968     0.04390789    -0.25591776    -0.00001059     0.00014557    -0.00145440
N        -0.03650654    -0.08055462     1.53727807     0.00003281    -0.00014074     0.00126659
H         0.92887856    -0.14952508    -0.66547393     0.00168924    -0.00156391    -0.00154284
H         0.85605677     0.06336483     1.95712415    -0.00028207     0.00150877     0.00070186
H        -1.01668580    -0.17463329     1.98587612    -0.00061579    -0.00102250     0.00165305
H        -0.99878358     0.18723543    -0.69853060    -0.00112108     0.00129885    -0.00108237
     6
  Step:    24            Position(A)                                  Velocity(au)
C        -0.03996508     0.04544902    -0.27141674    -0.00000446     0.00013510    -0.00138018
N        -0.03643094    -0.08212263     1.55086768    -0.00002045    -0.00014664     0.00121616
H         0.94793887    -0.16688447    -0.68297701     0.00171817    -0.00159254    -0.00162687
H         0.85391143     0.08046790     1.96570422    -0.00010422     0.00162314     0.00086802
H        -1.02051479    -0.18570600     2.00301205    -0.00006738    -0.00099473     0.00146752
H        -1.01178313     0.20199051    -0.71090375    -0.00120918     0.00139207    -0.00116260
     6
  Step:    25            Position(A)                                  Velocity(au)
C        -0.03996727     0.04686354    -0.28611189     0.00000548     0.00012259    -0.00130749
N        -0.03695398    -0.08376269     1.56388390    -0.00007356    -0.00015353     0.00116215
H         0.96646686    -0.18436503    -0.70106478     0.00160193    -0.00158615    -0.00165383
H         0.85377676     0.09887416     1.97611368     0.00006465     0.00174315     0.00102620
H        -1.01815979    -0.19639481     2.01798092     0.00049332    -0.00095421     0.00126572
H        -1.02523674     0.21768959    -0.72396480    -0.00120289     0.00146998    -0.00120771
     6
  Step:    26            Position(A)                                  Velocity(au)
C        -0.03984529     0.04813089    -0.30002051     0.00001734     0.00010841    -0.00123615
N        -0.03804022    -0.08548137     1.57629190    -0.00012055    -0.00016051     0.00110520
H         0.98298417    -0.20158464    -0.71915763     0.00136397    -0.00154630    -0.00163291
H         0.85532580     0.11860260     1.98815424     0.00018551     0.00186009     0.00115759
H        -1.00972241    -0.20658107     2.03070201     0.00102316    -0.00090536     0.00106562
H        -1.03809871     0.23414910    -0.73732467    -0.00110410     0.00153036    -0.00121854
     6
  Step:    27            Position(A)                                  Velocity(au)
C        -0.03958784     0.04923526    -0.31315513     0.00002957     0.00009301    -0.00116562
N        -0.03959119    -0.08727427     1.58806226    -0.00015604    -0.00016655     0.00104551
H         0.99630625    -0.21819327    -0.73678791     0.00103163    -0.00147667    -0.00157433
H         0.85783523     0.13956729     2.00143815     0.00022828     0.00196453     0.00124774
H        -0.99577627    -0.21620137     2.04129343     0.00147821    -0.00085403     0.00088616
H        -1.04939105     0.25116908    -0.75062269    -0.00092207     0.00157240    -0.00119882
     6
  Step:    28            Position(A)                                  Velocity(au)
C        -0.03919837     0.05016560    -0.32552061     0.00004103     0.00007679    -0.00109514
N        -0.04145391    -0.08912498     1.59916438    -0.00017560    -0.00017056     0.00098264
H         1.00555305    -0.23388973    -0.75359905     0.00063172    -0.00138208    -0.00148766
H         0.86031995     0.16158047     2.01545086     0.00017658     0.00204824     0.00128842
H        -0.97738368    -0.22526451     2.05008836     0.00181360    -0.00080756     0.00074765
H        -1.05827068     0.26854832    -0.76355120    -0.00067060     0.00159651    -0.00115383
     6
  Step:    29            Position(A)                                  Velocity(au)
C        -0.03869030     0.05091525    -0.33711347     0.00005098     0.00006014    -0.00102397
N        -0.04343269    -0.09100553     1.60955942    -0.00017598    -0.00017156     0.00091562
H         1.01012625    -0.24842883    -0.76933340     0.00018865    -0.00126778    -0.00138139
H         0.86169823     0.18437643     2.02962474     0.00002870     0.00210580     0.00127791
H        -0.95610027    -0.23386838     2.05764975     0.00198640    -0.00077462     0.00067083
H        -1.06406170     0.28609581    -0.77586500    -0.00036568     0.00160407    -0.00108941
     6
  Step:    30            Position(A)                                  Velocity(au)
C        -0.03808308     0.05148129    -0.34792199     0.00005898     0.00004338    -0.00095138
N        -0.04530387    -0.09287819     1.61919522    -0.00015556    -0.00016884     0.00084322
H         1.00968008    -0.26162475    -0.78381961    -0.00027561    -0.00113932    -0.00126297
H         0.86094791     0.20764895     2.04340753    -0.00020456     0.00213542     0.00121993
H        -0.93392746    -0.24221085     2.06476404     0.00196310    -0.00076394     0.00067341
H        -1.06627074     0.30364052    -0.78738417    -0.00002397     0.00159723    -0.00101139
     6
  Step:    31            Position(A)                                  Velocity(au)
C        -0.03739995     0.05186420    -0.35792674     0.00006473     0.00002681    -0.00087666
N        -0.04683592    -0.09469915     1.62800642    -0.00011488    -0.00016210     0.00076457
H         1.00409679    -0.27335370    -0.79696326    -0.00074079    -0.00100262    -0.00113928
H         0.85722314     0.23109282     2.05631313    -0.00050361     0.00213902     0.00112209
H        -0.91315379    -0.25058094     2.07238188     0.00173144    -0.00078194     0.00076412
H        -1.06458611     0.32103835    -0.79799113     0.00033813     0.00157874    -0.00092531
     6
  Step:    32            Position(A)                                  Velocity(au)
C        -0.03666699     0.05206778    -0.36710071     0.00006797     0.00001075    -0.00079913
N        -0.04781715    -0.09642443     1.63592161    -0.00005729    -0.00015171     0.00067973
H         0.99347378    -0.28355890    -0.80874350    -0.00118740    -0.00086412    -0.00101712
H         0.84993038     0.25444404     2.06795536    -0.00084359     0.00212201     0.00099440
H        -0.89604892    -0.25931731     2.08148053     0.00131248    -0.00082958     0.00093573
H        -1.05887339     0.33817851    -0.80762714     0.00070466     0.00155195    -0.00083643
     6
  Step:    33            Position(A)                                  Velocity(au)
C        -0.03591291     0.05209932    -0.37540924     0.00006844    -0.00000447    -0.00071805
N        -0.04808919    -0.09801819     1.64287692     0.00001095    -0.00013886     0.00059012
H         0.97812005    -0.29225803    -0.81921477    -0.00159587    -0.00073113    -0.00090368
H         0.83876793     0.27751593     2.07806758    -0.00119729     0.00209291     0.00084826
H        -0.88444079    -0.26872956     2.09285273     0.00076544    -0.00089968     0.00116098
H        -1.04917042     0.35499021    -0.81628970     0.00106003     0.00152085    -0.00074983
     6
  Step:    34            Position(A)                                  Velocity(au)
C        -0.03516964     0.05196995    -0.38280943     0.00006579    -0.00001847    -0.00063262
N        -0.04757767    -0.09946220     1.64883163     0.00008141    -0.00012550     0.00049832
H         0.95856100    -0.29955373    -0.82851330    -0.00194578    -0.00061207    -0.00080700
H         0.82373747     0.30023052     2.08651266    -0.00153742     0.00206284     0.00069567
H        -0.87930343    -0.27899945     2.10687924     0.00017891    -0.00097685     0.00139530
H        -1.03568318     0.37145001    -0.82403116     0.00138906     0.00149015    -0.00067052
     6
  Step:    35            Position(A)                                  Velocity(au)
C        -0.03447369     0.05169528    -0.38924900     0.00005953    -0.00003081    -0.00054193
N        -0.04630814    -0.10076367     1.65377861     0.00014532    -0.00011409     0.00040740
H         0.93555239    -0.30564822    -0.83686950    -0.00221577    -0.00051666    -0.00073621
H         0.80513384     0.32264452     2.09328665    -0.00183870     0.00204493     0.00054865
H        -0.88052688    -0.29009998     2.12337754    -0.00035124    -0.00104097     0.00158733
H        -1.01878206     0.38759015    -0.83095868     0.00167695     0.00146536    -0.00060354
     6
  Step:    36            Position(A)                                  Velocity(au)
C        -0.03386720     0.05129584    -0.39466513     0.00004916    -0.00004106    -0.00044498
N        -0.04439859    -0.10195814     1.65774426     0.00019551    -0.00010709     0.00031995
H         0.91008669    -0.31085664    -0.84461941    -0.00238467    -0.00045561    -0.00070128
H         0.78351229     0.34496737     2.09851534    -0.00208009     0.00205330     0.00041836
H        -0.88698742    -0.30177268     2.14160508    -0.00074747    -0.00107300     0.00169303
H        -0.99899677     0.40350762    -0.83723469     0.00190960     0.00145278    -0.00055391
     6
  Step:    37            Position(A)                                  Velocity(au)
C        -0.03339821     0.05079704    -0.39898369     0.00003421    -0.00004880    -0.00034079
N        -0.04203102    -0.10310644     1.66077806     0.00022788    -0.00010643     0.00023742
H         0.88338315    -0.31561566    -0.85221138    -0.00243414    -0.00043970    -0.00071196
H         0.75962789     0.36756432     2.10243901    -0.00224761     0.00210121     0.00031373
H        -0.89687924    -0.31357399     2.16041587    -0.00096722    -0.00106015     0.00168615
H        -0.97700598     0.41937253    -0.84307647     0.00207464     0.00145923    -0.00052633
     6
  Step:    38            Position(A)                                  Velocity(au)
C        -0.03311882     0.05022823    -0.40212052     0.00001458    -0.00005381    -0.00022866
N        -0.03941327    -0.10428656     1.66293816     0.00024171    -0.00011320     0.00016006
H         0.85683527    -0.32047583    -0.86019495    -0.00235361    -0.00047764    -0.00077549
H         0.73434161     0.39093531     2.10537886    -0.00233718     0.00219856     0.00023968
H        -0.90814730    -0.32496545     2.17849275    -0.00100470    -0.00099806     0.00156086
H        -0.95361008     0.43543110    -0.84874922     0.00216293     0.00149146    -0.00052457
     6
  Step:    39            Position(A)                                  Velocity(au)
C        -0.03307931     0.04961982    -0.40398607    -0.00000916    -0.00005620    -0.00010853
N        -0.03674316    -0.10558288     1.66427957     0.00023913    -0.00012743     0.00008735
H         0.83189338    -0.32606492    -0.86917682    -0.00214632    -0.00057317    -0.00089320
H         0.70849757     0.41566197     2.10768256    -0.00235678     0.00234869     0.00019521
H        -0.91885902    -0.33540837     2.19456267    -0.00088156    -0.00088993     0.00132774
H        -0.92968765     0.45200107    -0.85455235     0.00217070     0.00155505    -0.00055042
     6
  Step:    40            Position(A)                                  Velocity(au)
C        -0.03331913     0.04899865    -0.40449479    -0.00003553    -0.00005657     0.00001863
N        -0.03418178    -0.10707438     1.66484911     0.00022424    -0.00014811     0.00001859
H         0.80988041    -0.33301505    -0.87973549    -0.00183385    -0.00072199    -0.00105704
H         0.68278265     0.44231750     2.10964948    -0.00232647     0.00254543     0.00017219
H        -0.92743306    -0.34443441     2.20753964    -0.00063417    -0.00074398     0.00100695
H        -0.90612186     0.46945072    -0.86079074     0.00210174     0.00165286    -0.00060253
     6
  Step:    41            Position(A)                                  Velocity(au)
C        -0.03385651     0.04838234    -0.40357851    -0.00006226    -0.00005594     0.00015055
N        -0.03183753    -0.10882310     1.66468633     0.00020209    -0.00017324    -0.00004672
H         0.79177433    -0.34185981    -0.89230149    -0.00145642    -0.00091040    -0.00124777
H         0.65760166     0.47134802     2.11144948    -0.00227561     0.00277207     0.00015590
H        -0.93273269    -0.35168435     2.21659168    -0.00030328    -0.00057101     0.00062223
H        -0.88370807     0.48816050    -0.86773387     0.00196885     0.00178346    -0.00067518
     6
  Step:    42            Position(A)                                  Velocity(au)
C        -0.03468110     0.04777477    -0.40120114    -0.00008678    -0.00005563     0.00028380
N        -0.02976063    -0.11086438     1.66382700     0.00017790    -0.00020008    -0.00010884
H         0.77801834    -0.35293184    -0.90703292    -0.00106639    -0.00111669    -0.00143669
H         0.63299932     0.50296192     2.11306001    -0.00223671     0.00300284     0.00012756
H        -0.93406798    -0.35692636     2.22115222     0.00007151    -0.00038268     0.00019749
H        -0.86304961     0.50846742    -0.87556156     0.00179355     0.00193990    -0.00075774
     6
  Step:    43            Position(A)                                  Velocity(au)
C        -0.03575505     0.04716531    -0.39736985    -0.00010699    -0.00005678     0.00041427
N        -0.02794560    -0.11320028     1.66230529     0.00015638    -0.00022551    -0.00016796
H         0.76844497    -0.36628949    -0.92373173    -0.00071656    -0.00131559    -0.00159105
H         0.60866928     0.53704094     2.11424000    -0.00223814     0.00320699     0.00006832
H        -0.93116826    -0.36005626     2.22091213     0.00045326    -0.00019068    -0.00024430
H        -0.84447073     0.53059952    -0.88431097     0.00160333     0.00210967    -0.00083539
     6
  Step:    44            Position(A)                                  Velocity(au)
C        -0.03702179     0.04653267    -0.39213826    -0.00012181    -0.00006002     0.00053800
N        -0.02633957    -0.11579785     1.66015250     0.00014137    -0.00024647    -0.00022459
H         0.76234222    -0.38171291    -0.94184012    -0.00044837    -0.00148443    -0.00168159
H         0.58403569     0.57312101     2.11455469    -0.00229846     0.00335509    -0.00003650
H        -0.92415202    -0.36109790     2.21580761     0.00080691    -0.00000675    -0.00068084
H        -0.82797371     0.55462054    -0.89383741     0.00142685     0.00227639    -0.00089101
     6