 Fermi distribution function

Calculation with static geometry


********************************************************************************
 iSCC Total electronic   Diff electronic      SCC error    
   10   -0.54119419E+01   -0.40500936E-12    0.12917665E-06
********************************************************************************

 Total charge:     1.00000000

 Atomic gross charges (e)
 Atom           Charge
    1       0.17920242
    2      -0.06517827
    3       0.15292330
    4       0.26921237
    5       0.28025817
    6       0.18358201

Nr. of electrons (up):     12.00000000
Atom populations (up)
 Atom       Population
    1       3.82079758
    2       5.06517827
    3       0.84707670
    4       0.73078763
    5       0.71974183
    6       0.81641799

l-shell populations (up)
 Atom Sh.   l       Population
    1   1   0       1.32016653
    1   2   1       2.50063105
    2   1   0       1.42939602
    2   2   1       3.63578224
    3   1   0       0.84707670
    4   1   0       0.73078763
    5   1   0       0.71974183
    6   1   0       0.81641799

Orbital populations (up)
 Atom Sh.   l   m       Population  Label
    1   1   0   0       1.32016653  s
    1   2   1  -1       0.58767585  p_y
    1   2   1   0       0.87588948  p_z
    1   2   1   1       1.03706572  p_x
    2   1   0   0       1.42939602  s
    2   2   1  -1       1.33799474  p_y
    2   2   1   0       1.10005536  p_z
    2   2   1   1       1.19773214  p_x
    3   1   0   0       0.84707670  s
    4   1   0   0       0.73078763  s
    5   1   0   0       0.71974183  s
    6   1   0   0       0.81641799  s

Fermi level:                        -0.4959923690 H          -13.4966 eV
Band energy:                        -8.9249983582 H         -242.8616 eV
TS:                                  0.0000000000 H            0.0000 eV
Band free energy (E-TS):            -8.9249983582 H         -242.8616 eV
Extrapolated E(0K):                 -8.9249983582 H         -242.8616 eV
Input / Output electrons (q):     12.0000000000     12.0000000000

Energy H0:                          -5.5450667253 H         -150.8889 eV
Energy SCC:                          0.1331248027 H            3.6225 eV
Total Electronic energy:            -5.4119419226 H         -147.2664 eV
Repulsive energy:                    0.1865708154 H            5.0769 eV
Total energy:                       -5.2253711072 H         -142.1896 eV
Extrapolated to 0:                  -5.2253711072 H         -142.1896 eV
Total Mermin free energy:           -5.2253711072 H         -142.1896 eV
Force related energy:               -5.2253711072 H         -142.1896 eV

SCC converged

Excitation Energy:                   0.1432842922 H            3.8990 eV

Total Forces
    1     -0.013532728609     -0.006112345458      0.046773362763
    2      0.000840770749      0.006830203075     -0.055243318896
    3      0.001668439488      0.004897504655     -0.001161620462
    4     -0.003429363764     -0.007509354199      0.003790359213
    5      0.005023311882      0.007412413830      0.004956557366
    6      0.009429570253     -0.005518421902      0.000884660017

Maximal derivative component:        0.552433E-01 au


