|===============================================================================
|
|  DFTB+ release 20.1
|
|  Copyright (C) 2006 - 2020  DFTB+ developers group
|
|===============================================================================
|
|  When publishing results obtained with DFTB+, please cite the following
|  reference:
|
|  * DFTB+, a software package for efficient approximate density functional
|    theory based atomistic simulations, J. Chem. Phys. 152, 124101 (2020).
|    [doi: 10.1063/1.5143190]
|
|  You should also cite additional publications crediting the parametrization
|  data you use. Please consult the documentation of the SK-files for the
|  references.
|
|===============================================================================

Reading input file 'dftb_in.hsd'
Parser version: 8

--------------------------------------------------------------------------------
Reading SK-files:
Done.


Processed input in HSD format written to 'dftb_pin.hsd'

Starting initialization...
--------------------------------------------------------------------------------
WARNING!
-> Excited state forces are not implemented yet for fractional occupations, kT=  0.3158E-02K
OpenMP threads:              1
Chosen random seed:          508343861
Mode:                        Static calculation
Self consistent charges:     Yes
SCC-tolerance:                 0.100000E-05
Max. scc iterations:                    100
Shell resolved Hubbard:      No
Spin polarisation:           No
Nr. of up electrons:             6.000000
Nr. of down electrons:           6.000000
Periodic boundaries:         No
Electronic solver:           Relatively robust
Mixer:                       Broyden mixer
Mixing parameter:                  0.200000
Maximal SCC-cycles:                     100
Nr. of chrg. vec. in memory:              0
Electronic temperature:        0.100000E-07 H      0.272114E-06 eV
Initial charges:             Set automatically (system chrg:   0.100E+01)
Included shells:             C:  s, p
                             N:  s, p
                             H:  s
Extra options:
                             Mulliken analysis
                             Force calculation
Force type                   original
                             Eigenvector printing

--------------------------------------------------------------------------------

***  Geometry step: 0

 iSCC Total electronic   Diff electronic      SCC error    
    1   -0.52722948E+01    0.00000000E+00    0.10381302E+01
    2   -0.52896516E+01   -0.17356778E-01    0.66946379E+00
    3   -0.52978333E+01   -0.81817080E-02    0.23355291E+00
    4   -0.51180094E+01    0.17982392E+00    0.14055466E+01
    5   -0.53003927E+01   -0.18238334E+00    0.58214230E-01
    6   -0.53006749E+01   -0.28221407E-03    0.13540983E-01
    7   -0.53006717E+01    0.32848288E-05    0.13753283E-01
    8   -0.53006802E+01   -0.85403947E-05    0.56409249E-02
    9   -0.53006812E+01   -0.10343978E-05    0.41807936E-02
   10   -0.53006825E+01   -0.12113358E-05    0.11217387E-02
   11   -0.53006825E+01   -0.72760412E-07    0.54007176E-03
   12   -0.53006825E+01   -0.21655367E-07    0.25003527E-04
   13   -0.53006825E+01   -0.47617910E-10    0.28604699E-06
>> Charges saved for restart in charges.bin

Total Energy:                       -5.0611668407 H         -137.7214 eV
Extrapolated to 0:                  -5.1550501025 H         -140.2761 eV
Total Mermin free energy:           -5.0611668407 H         -137.7214 eV
Force related energy:               -5.1550501025 H         -140.2761 eV

--------------------------------------------------------------------------------
DFTB+ running times                          cpu [s]             wall clock [s]
--------------------------------------------------------------------------------
SCC                                    +     0.01  ( 62.5%)      0.04  ( 70.0%)
Post-SCC processing                    +     0.01  ( 30.1%)      0.01  ( 23.3%)
--------------------------------------------------------------------------------
Missing                                +     0.00  (  7.4%)      0.00  (  6.7%)
Total                                  =     0.02  (100.0%)      0.06  (100.0%)
--------------------------------------------------------------------------------
