     6
  Step:     0            Position(A)                                  Velocity(au)
C        -0.04163268     0.01408837     0.04138078    -0.00001211    -0.00012888     0.00013910
N        -0.04144332    -0.04196647     1.27779588    -0.00025785     0.00008779    -0.00009201
H         0.90425560    -0.03863334    -0.52345960     0.00017789     0.00056730    -0.00002174
H         0.83613385    -0.17698435     1.83072538     0.00158027    -0.00058180     0.00025853
H        -0.95428827    -0.10624075     1.84563929     0.00151229     0.00007001    -0.00080232
H        -0.92703043     0.06738272    -0.51066030     0.00045704     0.00026023     0.00018662
     6
  Step:     1            Position(A)                                  Velocity(au)
C        -0.04166252     0.01339252     0.04189381     0.00000178    -0.00012569     0.00004803
N        -0.04286785    -0.04149564     1.27757192    -0.00026083     0.00008434     0.00001055
H         0.90538731    -0.03554212    -0.52377864     0.00023392     0.00056353    -0.00009356
H         0.84461345    -0.18017156     1.83213905     0.00150409    -0.00058129     0.00024808
H        -0.94560940    -0.10587071     1.84107063     0.00164534     0.00006400    -0.00085745
H        -0.92516912     0.06885734    -0.51018725     0.00022005     0.00027955    -0.00001596
     6
  Step:     2            Position(A)                                  Velocity(au)
C        -0.04161318     0.01271330     0.04190624     0.00001663    -0.00012276    -0.00004339
N        -0.04429676    -0.04104386     1.27791126    -0.00025930     0.00008084     0.00011304
H         0.90681464    -0.03246850    -0.52448317     0.00028541     0.00056059    -0.00016246
H         0.85258820    -0.18334350     1.83343927     0.00139714    -0.00057616     0.00021845
H        -0.93628872    -0.10554059     1.83625898     0.00174333     0.00005518    -0.00088886
H        -0.92462319     0.07044097    -0.51083492    -0.00002077     0.00029975    -0.00022093
     6
  Step:     3            Position(A)                                  Velocity(au)
C        -0.04148055     0.01204926     0.04141906     0.00003198    -0.00012008    -0.00013398
N        -0.04570519    -0.04061106     1.27880882    -0.00025316     0.00007741     0.00021361
H         0.90851041    -0.02940781    -0.52555630     0.00033147     0.00055844    -0.00022804
H         0.85990169    -0.18647618     1.83452940     0.00126375    -0.00056682     0.00017269
H        -0.92653300    -0.10526691     1.83134425     0.00180048     0.00004312    -0.00089275
H        -0.92539639     0.07213735    -0.51260479    -0.00025885     0.00032036    -0.00042377
     6
  Step:     4            Position(A)                                  Velocity(au)
C        -0.04126308     0.01139892     0.04043964     0.00004737    -0.00011765    -0.00022257
N        -0.04706783    -0.04019653     1.28024947    -0.00024233     0.00007415     0.00031042
H         0.91044294    -0.02635579    -0.52697934     0.00037131     0.00055692    -0.00028998
H         0.86642125    -0.18954797     1.83532953     0.00110820    -0.00055369     0.00011387
H        -0.91658062    -0.10506856     1.82648691     0.00181113     0.00002742    -0.00086553
H        -0.92745653     0.07394760    -0.51547347    -0.00048763     0.00034083    -0.00061988
     6
  Step:     5            Position(A)                                  Velocity(au)
C        -0.04096179     0.01076088     0.03898175     0.00006232    -0.00011545    -0.00030790
N        -0.04835891    -0.03979905     1.28220815    -0.00022675     0.00007115     0.00040160
H         0.91257654    -0.02330902    -0.52873188     0.00040420     0.00055582    -0.00034793
H         0.87203748    -0.19253955     1.83577642     0.00093475    -0.00053713     0.00004505
H        -0.90669951    -0.10496666     1.82186589     0.00177029     0.00000769    -0.00080421
H        -0.93073639     0.07586976    -0.51939304    -0.00070084     0.00036056    -0.00080480
     6
  Step:     6            Position(A)                                  Velocity(au)
C        -0.04058023     0.01013391     0.03706577     0.00007636    -0.00011341    -0.00038873
N        -0.04955245    -0.03941693     1.28465011    -0.00020644     0.00006847     0.00048542
H         0.91487198    -0.02026532    -0.53079187     0.00042954     0.00055486    -0.00040155
H         0.87666391    -0.19543369     1.83582321     0.00074766    -0.00051755    -0.00003076
H        -0.89718238    -0.10498428     1.81767466     0.00167437    -0.00001632    -0.00070684
H        -0.93513613     0.07789853    -0.52429215    -0.00089276     0.00037891    -0.00097434
     6
  Step:     7            Position(A)                                  Velocity(au)
C        -0.04012435     0.00951710     0.03471870     0.00008909    -0.00011150    -0.00046381
N        -0.05062285    -0.03904814     1.28753161    -0.00018157     0.00006618     0.00056027
H         0.91728713    -0.01722406    -0.53313552     0.00044686     0.00055374    -0.00045048
H         0.88023688    -0.19821535     1.83543910     0.00055127    -0.00049535    -0.00011059
H        -0.88833726    -0.10514568     1.81411417     0.00152195    -0.00004473    -0.00057308
H        -0.94052701     0.08002519    -0.53007826    -0.00105846     0.00039525    -0.00112481
     6
  Step:     8            Position(A)                                  Velocity(au)
C        -0.03960221     0.00890983     0.03197404     0.00010013    -0.00010964    -0.00053194
N        -0.05154579    -0.03869035     1.29080085    -0.00015253     0.00006432     0.00062479
H         0.91977769    -0.01418632    -0.53573736     0.00045586     0.00055212    -0.00049441
H         0.88271589    -0.20087173     1.83460910     0.00035003    -0.00047099    -0.00019151
H        -0.88047408    -0.10547533     1.81138324     0.00131459    -0.00007739    -0.00040463
H        -0.94675610     0.08223765    -0.53664053    -0.00119401     0.00040897    -0.00125316
     6
  Step:     9            Position(A)                                  Velocity(au)
C        -0.03902370     0.00831186     0.02887144     0.00010919    -0.00010778    -0.00059205
N        -0.05229951    -0.03834114     1.29439952    -0.00011995     0.00006288     0.00067797
H         0.92229813    -0.01115495    -0.53857024     0.00045645     0.00054971    -0.00053303
H         0.88408452    -0.20339263     1.83333394     0.00014857    -0.00044501    -0.00027062
H        -0.87388689    -0.10599642     1.80966637     0.00105738    -0.00011388    -0.00020558
H        -0.95365194     0.08452072    -0.54385336    -0.00129667     0.00041956    -0.00135710
     6
  Step:    10            Position(A)                                  Velocity(au)
C        -0.03840010     0.00772331     0.02545613     0.00011607    -0.00010584    -0.00064322
N        -0.05286633    -0.03799806     1.29826457    -0.00008475     0.00006187     0.00071914
H         0.92480278    -0.00813459    -0.54160551     0.00044875     0.00054619    -0.00056610
H         0.88435146    -0.20577082     1.83162990    -0.00004833    -0.00041802    -0.00034506
H        -0.86883341    -0.10672908     1.80912003     0.00075917    -0.00015344     0.00001750
H        -0.96103110     0.08685657    -0.55158078    -0.00136496     0.00042659    -0.00143520
     6
  Step:    11            Position(A)                                  Velocity(au)
C        -0.03774363     0.00714464     0.02177795     0.00012064    -0.00010378    -0.00068471
N        -0.05323418    -0.03765878     1.30233032    -0.00004811     0.00006125     0.00074809
H         0.92724701    -0.00513148    -0.54481326     0.00043311     0.00054132    -0.00059343
H         0.88355153    -0.20800259     1.82952862    -0.00023577    -0.00039073    -0.00041209
H        -0.86551462    -0.10768857     1.80985941     0.00043235    -0.00019496     0.00025582
H        -0.96870495     0.08922526    -0.55968091    -0.00139866     0.00042978    -0.00148689
     6
  Step:    12            Position(A)                                  Velocity(au)
C        -0.03706710     0.00657660     0.01789032     0.00012285    -0.00010155    -0.00071609
N        -0.05339794    -0.03732125     1.30653061    -0.00001141     0.00006096     0.00076499
H         0.92958850    -0.00215321    -0.54816265     0.00041014     0.00053492    -0.00061494
H         0.88174635    -0.21008818     1.82707653    -0.00040886    -0.00036393    -0.00046913
H        -0.86405613    -0.10888336     1.81194672     0.00009207    -0.00023708     0.00049889
H        -0.97648568     0.09160541    -0.56801028    -0.00139873     0.00042895    -0.00151248
     6
  Step:    13            Position(A)                                  Velocity(au)
C        -0.03638334     0.00602020     0.01384875     0.00012276    -0.00009913    -0.00073722
N        -0.05336048    -0.03698374     1.31080103     0.00002388     0.00006094     0.00077049
H         0.93178849     0.00079163    -0.55162247     0.00038067     0.00052690    -0.00063070
H         0.87902426    -0.21203240     1.82433398    -0.00056294    -0.00033853    -0.00051389
H        -0.86449515    -0.11031377     1.81538362    -0.00024503    -0.00027825     0.00073553
H        -0.98419292     0.09397500    -0.57642850    -0.00136731     0.00042414    -0.00151317
     6
  Step:    14            Position(A)                                  Velocity(au)
C        -0.03570483     0.00547655     0.00970911     0.00012049    -0.00009651    -0.00074834
N        -0.05313293    -0.03664492     1.31508103     0.00005630     0.00006113     0.00076558
H         0.93381300     0.00369402    -0.55516183     0.00034575     0.00051731    -0.00064095
H         0.87549913    -0.21384497     1.82137365    -0.00069380    -0.00031545    -0.00054447
H        -0.86677539    -0.11197119     1.82010917    -0.00056249    -0.00031689     0.00095490
H        -0.99165934     0.09631224    -0.58480261    -0.00130754     0.00041552    -0.00149097
     6
  Step:    15            Position(A)                                  Velocity(au)
C        -0.03504326     0.00494676     0.00552565     0.00011626    -0.00009374    -0.00075011
N        -0.05273433    -0.03630380     1.31931586     0.00008457     0.00006149     0.00075163
H         0.93563395     0.00654526    -0.55875120     0.00030658     0.00050638    -0.00064616
H         0.87130769    -0.21554092     1.81827832    -0.00079803    -0.00029570    -0.00055951
H        -0.87075121    -0.11383824     1.82600413    -0.00084572    -0.00035162     0.00114778
H        -0.99873554     0.09859652    -0.59301125    -0.00122340     0.00040350    -0.00144869
     6
  Step:    16            Position(A)                                  Velocity(au)
C        -0.03440907     0.00443177     0.00134883     0.00011035    -0.00009087    -0.00074360
N        -0.05219037    -0.03595964     1.32345827     0.00010772     0.00006198     0.00073029
H         0.93722999     0.00933786    -0.56236356     0.00026447     0.00049449    -0.00064705
H         0.86660479    -0.21714069     1.81513767    -0.00087330    -0.00028024    -0.00055831
H        -0.87620126    -0.11589012     1.83290162    -0.00108356    -0.00038139     0.00130747
H        -1.00529462     0.10080943    -0.60094889    -0.00111946     0.00038863    -0.00138980
     6
  Step:    17            Position(A)                                  Velocity(au)
C        -0.03381118     0.00393218    -0.00277692     0.00010307    -0.00008799    -0.00073021
N        -0.05153157    -0.03561179     1.32746991     0.00012517     0.00006262     0.00070337
H         0.93858687     0.01206648    -0.56597579     0.00022069     0.00048219    -0.00064456
H         0.86155689    -0.21866991     1.81204451    -0.00091859    -0.00026997    -0.00054084
H        -0.88284962    -0.11809668     1.84060256    -0.00126919    -0.00040565     0.00143039
H        -1.01123482     0.10293573    -0.60852897    -0.00100050     0.00037160    -0.00131814
     6
  Step:    18            Position(A)                                  Velocity(au)
C        -0.03325671     0.00344809    -0.00681497     0.00009477    -0.00008520    -0.00071153
N        -0.05079099    -0.03525950     1.33132207     0.00013671     0.00006347     0.00067267
H         0.93969732     0.01472880    -0.56956985     0.00017639     0.00047011    -0.00063978
H         0.85633485    -0.22015902     1.80909101    -0.00093406    -0.00026570    -0.00050761
H        -0.89039099    -0.12042534     1.84889356    -0.00140022    -0.00042431     0.00151603
H        -1.01648037     0.10496398    -0.61568590    -0.00087108     0.00035317    -0.00123763
     6
  Step:    19            Position(A)                                  Velocity(au)
C        -0.03275096     0.00297900    -0.01073744     0.00008537    -0.00007930    -0.00074304
N        -0.05000211    -0.03490176     1.33499563     0.00014361     0.00006354     0.00068162
H         0.94056029     0.01732598    -0.57313357     0.00010813     0.00049304    -0.00058730
H         0.85110678    -0.22164250     1.80636545    -0.00095063    -0.00031632    -0.00047643
H        -0.89851504    -0.12284375     1.85756361    -0.00146454    -0.00039434     0.00155590
H        -1.02098033     0.10688688    -0.62237534    -0.00070596     0.00027963    -0.00111009
     6
  Step:    20            Position(A)                                  Velocity(au)
C        -0.03230149     0.00256080    -0.01512874     0.00007468    -0.00007029    -0.00082603
N        -0.04918413    -0.03454861     1.33894862     0.00014627     0.00006260     0.00073173
H         0.94090717     0.02024532    -0.57614108     0.00001743     0.00052940    -0.00048951
H         0.84569839    -0.22369828     1.80376025    -0.00096811    -0.00039638    -0.00044631
H        -0.90677754    -0.12483754     1.86630232    -0.00146511    -0.00033791     0.00154786
H        -1.02437922     0.10809272    -0.62810660    -0.00050667     0.00017250    -0.00093740
     6
  Step:    21            Position(A)                                  Velocity(au)
C        -0.03191561     0.00219272    -0.01997739     0.00006307    -0.00006159    -0.00090402
N        -0.04836597    -0.03420148     1.34318074     0.00014385     0.00006173     0.00077915
H         0.94075522     0.02324780    -0.57860917    -0.00006831     0.00053884    -0.00039635
H         0.84027754    -0.22607636     1.80137307    -0.00095492    -0.00045056    -0.00039942
H        -0.91490363    -0.12662359     1.87487789    -0.00142113    -0.00030498     0.00150598
H        -1.02664793     0.10881649    -0.63286103    -0.00030616     0.00009278    -0.00076516
     6
  Step:    22            Position(A)                                  Velocity(au)
C        -0.03159627     0.00187219    -0.02523665     0.00005105    -0.00005335    -0.00097346
N        -0.04757578    -0.03385845     1.34766032     0.00013663     0.00006125     0.00082069
H         0.94014334     0.02627013    -0.58057273    -0.00014631     0.00053987    -0.00031000
H         0.83502137    -0.22873597     1.79929432    -0.00091053    -0.00050097    -0.00033684
H        -0.92266725    -0.12824752     1.88314076    -0.00134012    -0.00027758     0.00144035
H        -1.02780243     0.10913009    -0.63666185    -0.00010997     0.00002324    -0.00059823
     6
  Step:    23            Position(A)                                  Velocity(au)
C        -0.03134516     0.00159649    -0.03085623     0.00003876    -0.00004559    -0.00103387
N        -0.04683907    -0.03351698     1.35235224     0.00012511     0.00006124     0.00085587
H         0.93912018     0.02928112    -0.58207359    -0.00021498     0.00053650    -0.00023147
H         0.83010196    -0.23167493     1.79760879    -0.00083624    -0.00055237    -0.00025969
H        -0.92988009    -0.12972571     1.89097439    -0.00122838    -0.00025208     0.00135601
H        -1.02787689     0.10907622    -0.63954650     0.00007908    -0.00003982    -0.00043866
     6
  Step:    24            Position(A)                                  Velocity(au)
C        -0.03116327     0.00136297    -0.03678520     0.00002635    -0.00003827    -0.00108504
N        -0.04617825    -0.03317442     1.35722056     0.00010986     0.00006169     0.00088451
H         0.93774198     0.03226288    -0.58315828    -0.00027299     0.00053046    -0.00016151
H         0.82568045    -0.23490604     1.79639357    -0.00073437    -0.00060653    -0.00016954
H        -0.93638849    -0.13106331     1.89828764    -0.00109175    -0.00022710     0.00125700
H        -1.02691913     0.10868532    -0.64156172     0.00025857    -0.00009801    -0.00028797
     6
  Step:    25            Position(A)                                  Velocity(au)
C        -0.03105096     0.00116912    -0.04297225     0.00001391    -0.00003139    -0.00112677
N        -0.04561238    -0.03282816     1.36222901     0.00009149     0.00006257     0.00090647
H         0.93607184     0.03520442    -0.58387703    -0.00031912     0.00052267    -0.00010073
H         0.82190168    -0.23844771     1.79571564    -0.00060839    -0.00066387    -0.00006851
H        -0.94207105    -0.13226156     1.90501058    -0.00093581    -0.00020216     0.00114684
H        -1.02498963     0.10798175    -0.64276204     0.00042611    -0.00015214    -0.00014758
     6
  Step:    26            Position(A)                                  Velocity(au)
C        -0.03100796     0.00101254    -0.04936552     0.00000159    -0.00002492    -0.00115888
N        -0.04515672    -0.03247584     1.36734124     0.00007074     0.00006382     0.00092171
H         0.93417907     0.03809849    -0.58428298    -0.00035228     0.00051362    -0.00004967
H         0.81888782    -0.24231809     1.79562868    -0.00046302    -0.00072390     0.00004064
H        -0.94683680    -0.13332045     1.91109206    -0.00076592    -0.00017715     0.00102877
H        -1.02216169     0.10698670    -0.64320940     0.00057922    -0.00020252    -0.00001889
     6
  Step:    27            Position(A)                                  Velocity(au)
C        -0.03103325     0.00089090    -0.05591251    -0.00001047    -0.00001886    -0.00118125
N        -0.04482243    -0.03211556     1.37252100     0.00004839     0.00006534     0.00093028
H         0.93213821     0.04093956    -0.58443170    -0.00037163     0.00050356    -0.00000872
H         0.81673156    -0.24653088     1.79616946    -0.00030416    -0.00078550     0.00015457
H        -0.95062346    -0.13423963     1.91649799    -0.00058728    -0.00015212     0.00090584
H        -1.01852193     0.10572039    -0.64297297     0.00071532    -0.00024920     0.00009665
     6
  Step:    28            Position(A)                                  Velocity(au)
C        -0.03112492     0.00080186    -0.06256032    -0.00002207    -0.00001323    -0.00119391
N        -0.04461614    -0.03174597     1.37773265     0.00002529     0.00006703     0.00093238
H         0.93002794     0.04372335    -0.58438042    -0.00037660     0.00049272     0.00002189
H         0.81549033    -0.25109229     1.79735528    -0.00013863    -0.00084713     0.00026957
H        -0.95339679    -0.13501970     1.92121048    -0.00040500    -0.00012733     0.00078104
H        -1.01417147     0.10420308    -0.64212983     0.00083173    -0.00029210     0.00019755
     6
  Step:    29            Position(A)                                  Velocity(au)
C        -0.03127992     0.00074305    -0.06925638    -0.00003300    -0.00000803    -0.00119707
N        -0.04453974    -0.03136642     1.38294183     0.00000231     0.00006876     0.00092836
H         0.92792912     0.04644653    -0.58418704    -0.00036706     0.00048131     0.00004216
H         0.81518220    -0.25599894     1.79918228     0.00002627    -0.00090698     0.00038175
H        -0.95514994    -0.13566279     1.92522729    -0.00022404    -0.00010311     0.00065722
H        -1.00922605     0.10245573    -0.64076506     0.00092592    -0.00033106     0.00028241
     6
  Step:    30            Position(A)                                  Velocity(au)
C        -0.03149397     0.00071207    -0.07594938    -0.00004301    -0.00000328    -0.00119115
N        -0.04459032    -0.03097693     1.38811621    -0.00001970     0.00007041     0.00091872
H         0.92592241     0.04910674    -0.58390881    -0.00034335     0.00046953     0.00005236
H         0.81578420    -0.26123673     1.80162515     0.00018326    -0.00096315     0.00048740
H        -0.95590262    -0.13617303     1.92856143    -0.00004913    -0.00007985     0.00053716
H        -1.00381521     0.10050024    -0.63897111     0.00099560    -0.00036593     0.00035001
     6
  Step:    31            Position(A)                                  Velocity(au)
C        -0.03176143     0.00070639    -0.08259054    -0.00005188     0.00000102    -0.00117682
N        -0.04476032    -0.03057824     1.39322632    -0.00003996     0.00007187     0.00090412
H         0.92408556     0.05170259    -0.58360093    -0.00030628     0.00045759     0.00005299
H         0.81723367    -0.26678079     1.80463848     0.00032563    -0.00101387     0.00058321
H        -0.95569990    -0.13655672     1.93124050     0.00011533    -0.00005797     0.00042345
H        -0.99808091     0.09835935    -0.63684692     0.00103890    -0.00039661     0.00039938
     6
  Step:    32            Position(A)                                  Velocity(au)
C        -0.03207530     0.00072344    -0.08913474    -0.00005938     0.00000484    -0.00115495
N        -0.04503805    -0.03017167     1.39824620    -0.00005778     0.00007305     0.00088531
H         0.92249078     0.05423368    -0.58331509    -0.00025714     0.00044574     0.00004485
H         0.81943261    -0.27259635     1.80815960     0.00044773    -0.00105764     0.00066652
H        -0.95461042    -0.13682248     1.93330589     0.00026544    -0.00003785     0.00031842
H        -0.99217515     0.09605647    -0.63449630     0.00105450    -0.00042311     0.00042996
     6
  Step:    33            Position(A)                                  Velocity(au)
C        -0.03242726     0.00076064    -0.09554174    -0.00006528     0.00000820    -0.00112657
N        -0.04540830    -0.02975903     1.40315395    -0.00007264     0.00007390     0.00086311
H         0.92120213     0.05670095    -0.58309805    -0.00019760     0.00043422     0.00002892
H         0.82225432    -0.27864086     1.81211264     0.00054530    -0.00109340     0.00073549
H        -0.95272340    -0.13698113     1.93481116     0.00039786    -0.00001987     0.00022408
H        -0.98625608     0.09361477    -0.63202544     0.00104178    -0.00044554     0.00044161
     6
  Step:    34            Position(A)                                  Velocity(au)
C        -0.03280791     0.00081543    -0.10177693    -0.00006944     0.00001111    -0.00109281
N        -0.04585319    -0.02934242     1.40793195    -0.00008414     0.00007436     0.00083833
H         0.92027334     0.05910648    -0.58299051    -0.00012968     0.00042326     0.00000641
H         0.82555191    -0.28486632     1.81641321     0.00061568    -0.00112049     0.00078915
H        -0.95014565    -0.13704549     1.93582043     0.00050993    -0.00000438     0.00014206
H        -0.98048448     0.09105670    -0.62954059     0.00100077    -0.00046415     0.00043464
     6
  Step:    35            Position(A)                                  Velocity(au)
C        -0.03320690     0.00088535    -0.10781199    -0.00007171     0.00001359    -0.00105481
N        -0.04635309    -0.02892405     1.41256685    -0.00009208     0.00007445     0.00081171
H         0.91974607     0.06145343    -0.58302609    -0.00005558     0.00041303    -0.00002142
H         0.82916728    -0.29122194     1.82097340     0.00065773    -0.00113872     0.00082730
H        -0.94699781    -0.13703036     1.93640621     0.00059957     0.00000836     0.00007363
H        -0.97501917     0.08840322    -0.62714518     0.00093232    -0.00047930     0.00040984
     6
  Step:    36            Position(A)                                  Velocity(au)
C        -0.03361337     0.00096812    -0.11362488    -0.00007204     0.00001570    -0.00101368
N        -0.04688744    -0.02850613     1.41704933    -0.00009636     0.00007418     0.00078393
H         0.91964910     0.06374580    -0.58323113     0.00002243     0.00040367    -0.00005327
H         0.83293974    -0.29765682     1.82570574     0.00067172    -0.00114832     0.00085043
H        -0.94341106    -0.13695164     1.93664748     0.00066537     0.00001818     0.00001967
H        -0.97001234     0.08567303    -0.62493715     0.00083796    -0.00049147     0.00036841
     6
  Step:    37            Position(A)                                  Velocity(au)
C        -0.03401622     0.00106169    -0.11919962    -0.00007043     0.00001746    -0.00097042
N        -0.04743557    -0.02809068     1.42137353    -0.00009703     0.00007359     0.00075554
H         0.91999802     0.06598823    -0.58362451     0.00010206     0.00039525    -0.00008784
H         0.83671342    -0.30412209     1.83052707     0.00065903    -0.00114979     0.00085953
H        -0.93952301    -0.13682617     1.93662719     0.00070656     0.00002495    -0.00001937
H        -0.96560550     0.08288206    -0.62300649     0.00071995    -0.00050119     0.00031196
     6
  Step:    38            Position(A)                                  Velocity(au)
C        -0.03440458     0.00116430    -0.12452583    -0.00006696     0.00001895    -0.00092592
N        -0.04797735    -0.02767945     1.42553652    -0.00009422     0.00007273     0.00072697
H         0.92079559     0.06818571    -0.58421791     0.00018116     0.00038780    -0.00012394
H         0.84034282    -0.31057266     1.83536103     0.00062184    -0.00114388     0.00085596
H        -0.93547408    -0.13667136     1.93642994     0.00072296     0.00002862    -0.00004340
H        -0.96192494     0.08004301    -0.62143281     0.00058127    -0.00050906     0.00024249
     6
  Step:    39            Position(A)                                  Velocity(au)
C        -0.03476819     0.00127451    -0.12959796    -0.00006175     0.00002022    -0.00088092
N        -0.04849372    -0.02727389     1.42953759    -0.00008817     0.00007166     0.00069851
H         0.92203255     0.07034330    -0.58501641     0.00025773     0.00038128    -0.00016045
H         0.84369686    -0.31696829     1.84013974     0.00056287    -0.00113149     0.00084125
H        -0.93140390    -0.13650471     1.93613975     0.00071497     0.00002921    -0.00005273
H        -0.95907762     0.07716517    -0.62028325     0.00042554    -0.00051567     0.00016229
     6
  Step:    40            Position(A)                                  Velocity(au)
C        -0.03509780     0.00139123    -0.13441463    -0.00005502     0.00002132    -0.00083604
N        -0.04896711    -0.02687507     1.43337766    -0.00007915     0.00007043     0.00067037
H         0.92368871     0.07246585    -0.58601910     0.00032995     0.00037565    -0.00019640
H         0.84666137    -0.32327432     1.84480459     0.00048519    -0.00111358     0.00081705
H        -0.92744812    -0.13634344     1.93583800     0.00068353     0.00002681    -0.00004798
H        -0.95714802     0.07425429    -0.61961106     0.00025692    -0.00052164     0.00007389
     6
  Step:    41            Position(A)                                  Velocity(au)
C        -0.03538550     0.00151373    -0.13897785    -0.00004703     0.00002233    -0.00079179
N        -0.04938177    -0.02648374     1.43705878    -0.00006751     0.00006910     0.00064269
H         0.92573435     0.07455782    -0.58721988     0.00039625     0.00037078    -0.00023093
H         0.84914040    -0.32946194     1.84930653     0.00039200    -0.00109113     0.00078496
H        -0.92373511    -0.13620398     1.93560140     0.00063017     0.00002158    -0.00003015
H        -0.95619512     0.07131270    -0.61945431     0.00008007    -0.00052753    -0.00001999
     6
  Step:    42            Position(A)                                  Velocity(au)
C        -0.03562508     0.00164158    -0.14329233    -0.00003808     0.00002329    -0.00074856
N        -0.04972400    -0.02610032     1.44058368    -0.00005361     0.00006772     0.00061554
H         0.92813154     0.07662310    -0.58860832     0.00045530     0.00036657    -0.00026334
H         0.85105652    -0.33550822     1.85360575     0.00028650    -0.00106512     0.00074655
H        -0.92038253    -0.13610150     1.93549993     0.00055702     0.00001379    -0.00000057
H        -0.95625029     0.06833949    -0.61983520    -0.00010005    -0.00053388    -0.00011652
     6
  Step:    43            Position(A)                                  Velocity(au)
C        -0.03581218     0.00177471    -0.14736498    -0.00002852     0.00002426    -0.00070667
N        -0.04998243    -0.02572497     1.44395550    -0.00003788     0.00006634     0.00058895
H         0.93083571     0.07866497    -0.59017039     0.00050602     0.00036288    -0.00029304
H         0.85235044    -0.34139597     1.85767119     0.00017183    -0.00103653     0.00070329
H        -0.91749410    -0.13604947     1.93559496     0.00046677     0.00000378     0.00003908
H        -0.95731613     0.06533092    -0.62075986    -0.00027833    -0.00054113    -0.00021290
     6
  Step:    44            Position(A)                                  Velocity(au)
C        -0.03594442     0.00191325    -0.15120436    -0.00001870     0.00002529    -0.00066636
N        -0.05014813    -0.02535759     1.44717771    -0.00002077     0.00006498     0.00056295
H         0.93379705     0.08068598    -0.59188924     0.00054757     0.00035958    -0.00031958
H         0.85298035    -0.34711345     1.86147993     0.00005101    -0.00100627     0.00065653
H        -0.91515651    -0.13605918     1.93593750     0.00036264    -0.00000803     0.00008686
H        -0.95936658     0.06228084    -0.62221884    -0.00044977    -0.00054966    -0.00030641
     6