    14
  Step:   600            Position(A)                                  Velocity(au)
C        -5.74505881    -0.88877927    -0.00582178     0.00042687     0.00010443    -0.00037323
C        -4.87252122     0.00946047     0.50323593     0.00017057     0.00012741     0.00034248
H        -5.42241032    -1.23662901    -0.96455227    -0.00068050     0.00055539    -0.00216607
H        -6.69932455    -1.22078104     0.34562891     0.00107435    -0.00164804    -0.00116027
H        -4.95159869     0.55206337     1.46952546     0.00175275    -0.00107117     0.00066502
C        -3.76050759     0.00182045    -0.52229439    -0.00020682    -0.00017218     0.00055055
C        -2.66672860     0.83140967    -0.45918217    -0.00053632     0.00013037     0.00014752
H        -3.98370452    -0.71271901    -1.24911695     0.00018729     0.00114042    -0.00210139
H        -1.83206269     0.31830707    -1.23517981    -0.00066082    -0.00265737    -0.00050661
C        -1.89144073     1.42885660     0.65836416     0.00010371     0.00065525    -0.00018832
H        -2.06851890     1.80323771     1.67684894     0.00078308     0.00109481    -0.00285258
N        -0.64344463     1.65050311     0.22098033    -0.00028268    -0.00048161     0.00033315
H         0.27449970     1.98941281     0.61867227     0.00073373     0.00012719    -0.00043801
H        -0.70304016     1.73455595    -0.79519073     0.00123867    -0.00092102    -0.00177744
