    14
  Step:     0            Position(A)                                  Velocity(au)
C        -6.03348496    -0.71837867    -0.22561152     0.00032592     0.00005668     0.00026400
C        -4.71036603    -0.76875458     0.20981333    -0.00020454     0.00000129    -0.00017746
H        -6.33468107     0.20612060    -0.80266771    -0.00015957     0.00013792    -0.00055931
H        -6.80143532    -1.45813802    -0.05682034    -0.00044790    -0.00002524    -0.00050795
H        -4.35230241    -1.63503190     0.78275788     0.00026855     0.00068983     0.00035215
C        -3.84831779     0.34456999    -0.02412985    -0.00009086    -0.00007449    -0.00013166
C        -2.54661542     0.52473336     0.35239951     0.00022065    -0.00006139     0.00002377
H        -4.21172798     1.22358638    -0.65026253    -0.00049453     0.00014447    -0.00020213
H        -1.92989908    -0.31197614     0.86035243    -0.00027844     0.00049557     0.00042614
C        -1.85691296     1.69322050    -0.06586429    -0.00043737    -0.00012024     0.00008462
H        -2.37733843     2.51076154    -0.56352555     0.00153048     0.00004732     0.00017214
N        -0.54241786     1.84643284     0.16364324     0.00016216    -0.00000682    -0.00002736
H        -0.02233729     2.63915569    -0.09530066    -0.00003469     0.00046018     0.00031869
H        -0.05220460     0.99330716     0.32661115    -0.00041854     0.00050585    -0.00037335
    14
  Step:     1            Position(A)                                  Velocity(au)
C        -6.02991207    -0.71760046    -0.22281383     0.00032191     0.00008516     0.00024550
C        -4.71260946    -0.76873730     0.20789524    -0.00020189     0.00000262    -0.00017194
H        -6.33631777     0.20636874    -0.80809293    -0.00013203    -0.00010103    -0.00042345
H        -6.80633370    -1.45884701    -0.06216803    -0.00042941    -0.00009104    -0.00046933
H        -4.34934606    -1.62722146     0.78645239     0.00027013     0.00073058     0.00032404
C        -3.84978099     0.34378971    -0.02576771    -0.00017646    -0.00006814    -0.00016777
C        -2.54365087     0.52400276     0.35279366     0.00031840    -0.00007097     0.00004742
H        -4.21745531     1.22375857    -0.65159835    -0.00054625    -0.00011651    -0.00003945
H        -1.93419956    -0.30495215     0.86430037    -0.00049638     0.00077535     0.00030083
C        -1.86180676     1.69189301    -0.06493061    -0.00045128    -0.00012330     0.00008765
H        -2.36072346     2.51125277    -0.56149200     0.00147916     0.00006249     0.00018464
N        -0.54064265     1.84627036     0.16338697     0.00015916    -0.00001951    -0.00002073
H        -0.02186452     2.64576145    -0.09247006     0.00010865     0.00072758     0.00020603
H        -0.05577175     0.99826482     0.32298861    -0.00020962     0.00036451    -0.00028214
    14
  Step:     2            Position(A)                                  Velocity(au)
C        -6.02644262    -0.71651554    -0.22024071     0.00030699     0.00011200     0.00022333
C        -4.71478284    -0.76869725     0.20605189    -0.00019150     0.00000570    -0.00016389
H        -6.33756950     0.20391036    -0.81193140    -0.00009167    -0.00034904    -0.00027408
H        -6.81082951    -1.46012975    -0.06708779    -0.00037389    -0.00012954    -0.00042961
H        -4.34639270    -1.61904916     0.78984682     0.00026842     0.00075501     0.00029807
C        -3.85217827     0.34307927    -0.02780014    -0.00026123    -0.00006245    -0.00020322
C        -2.53964971     0.52318083     0.35343693     0.00040936    -0.00007704     0.00006864
H        -4.22367822     1.22103748    -0.65112564    -0.00058747    -0.00037708     0.00012339
H        -1.94075845    -0.29501383     0.86693371    -0.00068405     0.00101924     0.00019148
C        -1.86678547     1.69052303    -0.06394668    -0.00045328    -0.00012839     0.00009388
H        -2.34497902     2.51212857    -0.55948625     0.00137327     0.00011666     0.00016743
N        -0.53893595     1.84600601     0.16318973     0.00015107    -0.00002515    -0.00001671
H        -0.01996038     2.65507295    -0.09079326     0.00021747     0.00093919     0.00011267
H        -0.05679036     1.00128156     0.32043869     0.00003867     0.00016447    -0.00018025
    14
  Step:     3            Position(A)                                  Velocity(au)
C        -6.02319604    -0.71515026    -0.21792812     0.00028144     0.00013581     0.00019829
C        -4.71679898    -0.76861252     0.20430973    -0.00017314     0.00001091    -0.00015354
H        -6.33832328     0.19873290    -0.81408889    -0.00004363    -0.00059047    -0.00012110
H        -6.81451320    -1.46168094    -0.07156665    -0.00028227    -0.00014107    -0.00038839
H        -4.34347395    -1.61070419     0.79297328     0.00026419     0.00076153     0.00027565
C        -3.85549594     0.34242354    -0.03021352    -0.00034411    -0.00005874    -0.00023683
C        -2.53469541     0.52231735     0.35429521     0.00049165    -0.00007764     0.00008600
H        -4.23030731     1.21550922    -0.64889885    -0.00062303    -0.00062225     0.00027613
H        -1.94916451    -0.28265438     0.86848938    -0.00082652     0.00120819     0.00011031
C        -1.87172314     1.68908421    -0.06287684    -0.00044434    -0.00013586     0.00010321
H        -2.33068055     2.51380491    -0.55782923     0.00121870     0.00020479     0.00012318
N        -0.53733761     1.84572025     0.16302147     0.00014075    -0.00002392    -0.00001534
H        -0.01710704     2.66630800    -0.09000523     0.00027687     0.00106987     0.00004622
H        -0.05492580     1.00186300     0.31904540     0.00030605    -0.00006245    -0.00007439
    14
  Step:     4            Position(A)                                  Velocity(au)
C        -6.02028566    -0.71354450    -0.21590274     0.00024610     0.00015545     0.00017129
C        -4.71857066    -0.76845856     0.20269287    -0.00014709     0.00001831    -0.00014109
H        -6.33852408     0.19099263    -0.81458071     0.00000659    -0.00080999     0.00002532
H        -6.81700465    -1.46321596    -0.07558465    -0.00015873    -0.00012880    -0.00034493
H        -4.34061296    -1.60238933     0.79587724     0.00025818     0.00074929     0.00025777
C        -3.85970643     0.34179424    -0.03298124    -0.00042351    -0.00005805    -0.00026739
C        -2.52889390     0.52148236     0.35531824     0.00056295    -0.00007118     0.00009800
H        -4.23730825     1.20742449    -0.64508481    -0.00065822    -0.00083690     0.00040845
H        -1.95884007    -0.26858235     0.86934696    -0.00090880     0.00132247     0.00007086
C        -1.87650623     1.68755073    -0.06168885    -0.00042562    -0.00014516     0.00011509
H        -2.31831757     2.51660875    -0.55679147     0.00102489     0.00031583     0.00005838
N        -0.53585675     1.84548269     0.16285411     0.00013075    -0.00001743    -0.00001628
H        -0.01390334     2.67847842    -0.08978200     0.00028060     0.00110770     0.00000978
H        -0.05009490     0.99991529     0.31881121     0.00056870    -0.00027830     0.00002789
    14
  Step:     5            Position(A)                                  Velocity(au)
C        -6.01781213    -0.71174939    -0.21418080     0.00020243     0.00016999     0.00014336
C        -4.72001677    -0.76821196     0.20122322    -0.00011419     0.00002762    -0.00012673
H        -6.33817907     0.18101273    -0.81353504     0.00005314    -0.00099244     0.00015466
H        -6.81798570    -1.46449866    -0.07911272    -0.00001006    -0.00009805    -0.00029836
H        -4.33782581    -1.59431208     0.79861244     0.00025094     0.00071830     0.00024489
C        -3.86476096     0.34115354    -0.03606323    -0.00049717    -0.00006108    -0.00029368
C        -2.52237972     0.52076019     0.35643920     0.00062049    -0.00005676     0.00010322
H        -4.24470717     1.19720045    -0.63996316    -0.00069878    -0.00100591     0.00051021
H        -1.96904629    -0.25372291     0.87003959    -0.00091746     0.00134352     0.00008689
C        -1.88103436     1.68590848    -0.06035910    -0.00039822    -0.00015476     0.00012853
H        -2.30825920     2.52071425    -0.55655205     0.00080370     0.00043381    -0.00001729
N        -0.53447712     1.84533892     0.16266526     0.00012300    -0.00000812    -0.00001892
H        -0.01096847     2.69054097    -0.08979126     0.00023039     0.00105355     0.00000223
H        -0.04248434     0.99577470     0.31965560     0.00080327    -0.00044636     0.00011961
    14
  Step:     6            Position(A)                                  Velocity(au)
C        -6.01585711    -0.70982563    -0.21276648     0.00015240     0.00017861     0.00011565
C        -4.72106889    -0.76785441     0.19992041    -0.00007586     0.00003824    -0.00011069
H        -6.33736153     0.16928119    -0.81119720     0.00008987    -0.00112306     0.00025624
H        -6.81722470    -1.46536092    -0.08211195     0.00015510    -0.00005560    -0.00024785
H        -4.33512311    -1.58667509     0.80123458     0.00024287     0.00066948     0.00023690
C        -3.87058304     0.34045798    -0.03940609    -0.00056250    -0.00006821    -0.00031455
C        -2.51531959     0.52024072     0.35757645     0.00066149    -0.00003435     0.00010055
H        -4.25259546     1.18541833    -0.63392297    -0.00075068    -0.00111490     0.00057187
H        -1.97891124    -0.23919026     0.87124785    -0.00084341     0.00125781     0.00016980
C        -1.88521799     1.68416509    -0.05887697    -0.00036302    -0.00016242     0.00014227
H        -2.30073504     2.52609913    -0.55716963     0.00056795     0.00054024    -0.00009239
N        -0.53316591     1.84530495     0.16244013     0.00011855     0.00000138    -0.00002257
H        -0.00886307     2.70152676    -0.08973325     0.00013411     0.00091854     0.00001934
H        -0.03252181     0.99015035     0.32142799     0.00099081    -0.00053830     0.00019541
    14
  Step:     7            Position(A)                                  Velocity(au)
C        -6.01447804    -0.70784192    -0.21165074     0.00009838     0.00018067     0.00008939
C        -4.72167644    -0.76737542     0.19880174    -0.00003384     0.00004941    -0.00009318
H        -6.33621296     0.15644357    -0.80792923     0.00011063    -0.00118823     0.00031970
H        -6.81459267    -1.46571513    -0.08453492     0.00032692    -0.00000913    -0.00019270
H        -4.33251253    -1.57966589     0.80379498     0.00023412     0.00060466     0.00023311
C        -3.87706669     0.33966138    -0.04294452    -0.00061698    -0.00007957    -0.00032904
C        -2.50790826     0.52000877     0.35863885     0.00068405    -0.00000501     0.00008956
H        -4.26112970     1.17280991    -0.62745247    -0.00081952    -0.00115151     0.00058537
H        -1.98749746    -0.22620602     0.87375423    -0.00068588     0.00106237     0.00032445
C        -1.88897604     1.68235526    -0.05724669    -0.00032072    -0.00016572     0.00015498
H        -2.29583422     2.53253312    -0.55857331     0.00032979     0.00061723    -0.00015570
N        -0.53188355     1.84536914     0.16217155     0.00011764     0.00000888    -0.00002657
H        -0.00803465     2.71063573    -0.08936826     0.00000341     0.00072063     0.00005501
H        -0.02080843     0.98399840     0.32393063     0.00111940    -0.00053859     0.00025220
    14
  Step:     8            Position(A)                                  Velocity(au)
C        -6.01370491    -0.70587304    -0.21081098     0.00004289     0.00017578     0.00006575
C        -4.72180930    -0.76677352     0.19788200     0.00000997     0.00006030    -0.00007443
H        -6.33494127     0.14328635    -0.80420323     0.00010983    -0.00117678     0.00033596
H        -6.81007274    -1.46556072    -0.08632755     0.00049499     0.00003330    -0.00013240
H        -4.33000135    -1.57344701     0.80633441     0.00022460     0.00052650     0.00023233
C        -3.88408064     0.33871724    -0.04660447    -0.00065867    -0.00009502    -0.00033661
C        -2.50035472     0.52013106     0.35953574     0.00068770     0.00002891     0.00007092
H        -4.27052412     1.16022693    -0.62111692    -0.00090954    -0.00110760     0.00054569
H        -1.99391616    -0.21594892     0.87834580    -0.00045585     0.00077027     0.00054480
C        -1.89223438     1.68053976    -0.05548659    -0.00027194    -0.00016251     0.00016549
H        -2.29352035     2.53960223    -0.56057596     0.00009952     0.00065042    -0.00019800
N        -0.53059241     1.84549923     0.16185891     0.00011977     0.00001286    -0.00003040
H        -0.00878845     2.71729187    -0.08852989    -0.00014812     0.00048162     0.00010234
H        -0.00803286     0.97836776     0.32694528     0.00118480    -0.00044525     0.00028924
    14
  Step:     9            Position(A)                                  Velocity(au)
C        -6.01353971    -0.70399648    -0.21021235    -0.00001158     0.00016392     0.00004570
C        -4.72145823    -0.76605630     0.19717339     0.00005372     0.00007009    -0.00005469
H        -6.33381022     0.13069924    -0.80057946     0.00008340    -0.00108228     0.00029894
H        -6.80376387    -1.46498664    -0.08743145     0.00064879     0.00006359    -0.00006665
H        -4.32759889    -1.56814779     0.80887759     0.00021408     0.00043830     0.00023292
C        -3.89147626     0.33758259    -0.05030842    -0.00068641    -0.00011396    -0.00033723
C        -2.49286350     0.52064126     0.36019030     0.00067372     0.00006377     0.00004653
H        -4.28102755     1.14857895    -0.61551444    -0.00102214    -0.00098206     0.00045267
H        -1.99747009    -0.20935480     0.88567269    -0.00017696     0.00041284     0.00081129
C        -1.89492525     1.67879997    -0.05362626    -0.00021727    -0.00015131     0.00017296
H        -2.29365711     2.54676225    -0.56290487    -0.00011507     0.00063103    -0.00021330
N        -0.52926342     1.84565049     0.16150656     0.00012396     0.00001251    -0.00003366
H        -0.01127501     2.72117202    -0.08712947    -0.00030623     0.00022514     0.00015426
H         0.00511133     0.97425768     0.33025835     0.00118968    -0.00026789     0.00030784
    14
  Step:    10            Position(A)                                  Velocity(au)
C        -6.01395826    -0.70228695    -0.20981127    -0.00006286     0.00014571     0.00002977
C        -4.72063407    -0.76524015     0.19668564     0.00009565     0.00007802    -0.00003415
H        -6.33311683     0.11960946    -0.79766339     0.00002991    -0.00090565     0.00020754
H        -6.79587925    -1.46416956    -0.08778563     0.00077822     0.00007399     0.00000467
H        -4.32531799    -1.56385846     0.81142990     0.00020217     0.00034377     0.00023301
C        -3.89909719     0.33622421    -0.05398198    -0.00069996    -0.00013510    -0.00033155
C        -2.48561586     0.52152610     0.36055371     0.00064479     0.00009496     0.00001939
H        -4.29288530     1.13874253    -0.61121399    -0.00115453    -0.00078318     0.00031258
H        -1.99778753    -0.20691733     0.89609428     0.00011779     0.00003591     0.00109242
C        -1.89698766     1.67722951    -0.05170276    -0.00015732    -0.00013138     0.00017689
H        -2.29603770     2.55340720    -0.56524225    -0.00030878     0.00055655    -0.00019922
N        -0.52788045     1.84577298     0.16112247     0.00012892     0.00000758    -0.00003610
H        -0.01548791     2.72221725    -0.08515505    -0.00045685    -0.00002469     0.00020392
H         0.01799373     0.97250718     0.33367980     0.00114190    -0.00002420     0.00031081
    14
  Step:    11            Position(A)                                  Velocity(au)
C        -6.01491484    -0.70080881    -0.20956109    -0.00010928     0.00012249     0.00001791
C        -4.71936572    -0.76434951     0.19642628     0.00013423     0.00008338    -0.00001301
H        -6.33315589     0.11088652    -0.79603912    -0.00004837    -0.00065742     0.00006754
H        -6.78673891    -1.46336791    -0.08732935     0.00087421     0.00005761     0.00008139
H        -4.32317600    -1.56062720     0.81397520     0.00018849     0.00024675     0.00023067
C        -3.90678917     0.33462691    -0.05756174    -0.00069990    -0.00015646    -0.00032090
C        -2.47875749     0.52271868     0.36061459     0.00060433     0.00011781    -0.00000702
H        -4.30628516     1.13144539    -0.60867618    -0.00129892    -0.00052961     0.00013871
H        -1.99489330    -0.20856927     0.90957149     0.00039311    -0.00030988     0.00135107
C        -1.89836701     1.67592584    -0.04975638    -0.00009270    -0.00010272     0.00017717
H        -2.30041217     2.55893789    -0.56726329    -0.00047862     0.00043014    -0.00015657
N        -0.52644306     1.84581638     0.16071690     0.00013314    -0.00000182    -0.00003754
H        -0.02126952     2.72063193    -0.08266824    -0.00058665    -0.00024431     0.00024484
H         0.03009259     0.97372827     0.33705781     0.00105271     0.00026346     0.00030207
    14
  Step:    12            Position(A)                                  Velocity(au)
C        -6.01634888    -0.69960730    -0.20941946    -0.00014982     0.00009635     0.00000940
C        -4.71769761    -0.76341607     0.19640098     0.00016815     0.00008557     0.00000857
H        -6.33417499     0.10522713    -0.79618591    -0.00014511    -0.00035835    -0.00010773
H        -6.77675418    -1.46290917    -0.08600497     0.00092960     0.00000915     0.00016307
H        -4.32119446    -1.55846027     0.81647614     0.00017270     0.00015094     0.00022404
C        -3.91440881     0.33280141    -0.06100222    -0.00068753    -0.00017540    -0.00030711
C        -2.47239507     0.52410332     0.36040005     0.00055570     0.00012858    -0.00002956
H        -4.32130159     1.12715628    -0.60817934    -0.00144291    -0.00024860    -0.00004996
H        -1.98918758    -0.21369663     0.92565154     0.00061935    -0.00058100     0.00155319
C        -1.89901559     1.67498225    -0.04782683    -0.00002406    -0.00006607     0.00017399
H        -2.30650851     2.56281733    -0.56866754    -0.00062337     0.00025940    -0.00008862
N        -0.52496774     1.84573318     0.16030132     0.00013509    -0.00001530    -0.00003792
H        -0.02832190     2.71687260    -0.07979874    -0.00068371    -0.00041187     0.00027120
H         0.04102387     0.97827087     0.34028812     0.00093552     0.00057049     0.00028625
    14
  Step:    13            Position(A)                                  Velocity(au)
C        -6.01819253    -0.69870103    -0.20935549    -0.00018418     0.00006989     0.00000295
C        -4.71568708    -0.76247750     0.19661379     0.00019638     0.00008412     0.00003045
H        -6.33633052     0.10304692    -0.79839599    -0.00025056    -0.00003748    -0.00029848
H        -6.76640210    -1.46316784    -0.08376189     0.00093998    -0.00007426     0.00024884
H        -4.31939775    -1.55732520     0.81887649     0.00015466     0.00005960     0.00021161
C        -3.92183031     0.33078962    -0.06428042    -0.00066463    -0.00018910    -0.00029228
C        -2.46660059     0.52553159     0.35996797     0.00050166     0.00012528    -0.00004601
H        -4.33785149     1.12600679    -0.60976922    -0.00157136     0.00002827    -0.00023186
H        -1.98134383    -0.22127983     0.94355052     0.00077794    -0.00074996     0.00167517
C        -1.89889336     1.67448044    -0.04594996     0.00004783    -0.00002276     0.00016784
H        -2.31404956     2.56461267    -0.56920201    -0.00074308     0.00005502    -0.00000038
N        -0.52348771     1.84548157     0.15988730     0.00013331    -0.00003219    -0.00003730
H        -0.03622691     2.71162155    -0.07673524    -0.00073851    -0.00050895     0.00027828
H         0.05055878     0.98620876     0.34332006     0.00080498     0.00087159     0.00026845
    14
  Step:    14            Position(A)                                  Velocity(au)
C        -6.02037815    -0.69807830    -0.20935497    -0.00021264     0.00004578    -0.00000302
C        -4.71340152    -0.76157587     0.19706707     0.00021811     0.00007870     0.00005246
H        -6.33965656     0.10440714    -0.80271578    -0.00035324     0.00027229    -0.00048162
H        -6.75619037    -1.46453383    -0.08056106     0.00090460    -0.00019206     0.00033738
H        -4.31781099    -1.55715635     0.82110544     0.00013440    -0.00002455     0.00019229
C        -3.92894876     0.32866453    -0.06739636    -0.00063308    -0.00019497    -0.00027833
C        -2.46142027     0.52684403     0.35939354     0.00044421     0.00010785    -0.00005543
H        -4.35567819     1.12777472    -0.61325172    -0.00166927     0.00027096    -0.00038680
H        -1.97216855    -0.23010335     0.96229898     0.00086246    -0.00080782     0.00170681
C        -1.89796914     1.67448435    -0.04415504     0.00012210     0.00002535     0.00015940
H        -2.32276485     2.56402108    -0.56867575    -0.00083875    -0.00017052     0.00010215
N        -0.52205128     1.84502890     0.15948523     0.00012658    -0.00005142    -0.00003588
H        -0.04447818     2.70573842    -0.07371091    -0.00074518    -0.00052299     0.00026303
H         0.05863438     0.99733862     0.34616094     0.00067655     0.00114181     0.00025411
    14
  Step:    15            Position(A)                                  Velocity(au)
C        -6.02284435    -0.69769943    -0.20942165    -0.00023596     0.00002619    -0.00001002
C        -4.71091559    -0.76075573     0.19776135     0.00023280     0.00006921     0.00007441
H        -6.34405825     0.10900370    -0.80893224    -0.00044223     0.00054007    -0.00063505
H        -6.74661224    -1.46736953    -0.07638099     0.00082713    -0.00033938     0.00042676
H        -4.31645750    -1.55786226     0.82308321     0.00011220    -0.00009954     0.00016556
C        -3.93568024     0.32652432    -0.07036953    -0.00059470    -0.00019117    -0.00026677
C        -2.45688271     0.52789090     0.35875539     0.00038468     0.00007786    -0.00005800
H        -4.37436987     1.13193448    -0.61823123    -0.00172453     0.00045621    -0.00049955
H        -1.96247587    -0.23895245     0.98089029     0.00087611    -0.00076106     0.00164996
C        -1.89622221     1.67503512    -0.04246286     0.00019771     0.00007601     0.00014951
H        -2.33239874     2.56088226    -0.56696719    -0.00091204    -0.00040398     0.00021246
N        -0.52071856     1.84435673     0.15910246     0.00011404    -0.00007137    -0.00003401
H        -0.05252926     2.70018018    -0.07098090    -0.00070300    -0.00045028     0.00022486
H         0.06535966     1.01118803     0.34887923     0.00056588     0.00135749     0.00024887
    14
  Step:    16            Position(A)                                  Velocity(au)
C        -6.02554013    -0.69750545    -0.20957413    -0.00025517     0.00001229    -0.00001911
C        -4.70830850    -0.76006180     0.19869490     0.00024017     0.00005574     0.00009607
H        -6.34933124     0.11622213    -0.81660872    -0.00050929     0.00074215    -0.00074167
H        -6.73809528    -1.47195839    -0.07122495     0.00071575    -0.00050670     0.00051436
H        -4.31535629    -1.55933403     0.82472742     0.00008857    -0.00016418     0.00013148
C        -3.94195905     0.32448227    -0.07323244    -0.00055099    -0.00017687    -0.00025844
C        -2.45300470     0.52854747     0.35812466     0.00032403     0.00003802    -0.00005471
H        -4.39340548     1.13775515    -0.62418040    -0.00172982     0.00057049    -0.00056169
H        -1.95300191    -0.24675310     0.99839504     0.00082793    -0.00062583     0.00151468
C        -1.89364385     1.67614714    -0.04088427     0.00027350     0.00012664     0.00013911
H        -2.34271739     2.55518331    -0.56402783    -0.00096523    -0.00063193     0.00032382
N        -0.51955637     1.84346753     0.15874119     0.00009540    -0.00008986    -0.00003228
H        -0.05985762     2.69588763    -0.06879167    -0.00061734    -0.00029833     0.00016613
H         0.07101419     1.02703625     0.35160554     0.00048787     0.00149786     0.00025825
    14
  Step:    17            Position(A)                                  Velocity(au)
C        -6.02842670    -0.69743064    -0.20983961    -0.00027140     0.00000412    -0.00003074
C        -4.70566148    -0.75953640     0.19986311     0.00024013     0.00003863     0.00011715
H        -6.35519986     0.12523965    -0.82515759    -0.00054985     0.00086478    -0.00079152
H        -6.73095393    -1.47845456    -0.06512846     0.00058232    -0.00068043     0.00059695
H        -4.31451981    -1.56145405     0.82595951     0.00006419    -0.00021806     0.00009066
C        -3.94773426     0.32265497    -0.07602338    -0.00050313    -0.00015226    -0.00025356
C        -2.44979384     0.52872270     0.35755846     0.00026308    -0.00000846    -0.00004697
H        -4.41221307     1.14441495    -0.63051917    -0.00168310     0.00061026    -0.00057161
H        -1.94436321    -0.25264359     1.01402673     0.00072929    -0.00042239     0.00131517
C        -1.89023881     1.67780563    -0.03941950     0.00034819     0.00017456     0.00012919
H        -2.35351496     2.54705756    -0.55988297    -0.00100113    -0.00084132     0.00042958
N        -0.51863147     1.84239095     0.15839633     0.00007103    -0.00010421    -0.00003140
H        -0.06603465     2.69365372    -0.06734644    -0.00049967    -0.00008647     0.00009229
H         0.07603266     1.04395656     0.35452898     0.00045496     0.00154741     0.00028707
    14
  Step:    18            Position(A)                                  Velocity(au)
C        -6.03147742    -0.69741522    -0.21024656    -0.00028566     0.00000069    -0.00004473
C        -4.70305531    -0.75921667     0.20125783     0.00023282     0.00001848     0.00013729
H        -6.36136027     0.13514078    -0.83392469    -0.00056315     0.00090434    -0.00078213
H        -6.72535593    -1.48684415    -0.05816556     0.00044079    -0.00084445     0.00067087
H        -4.31395207    -1.56410449     0.82671086     0.00003987    -0.00026150     0.00004427
C        -3.95296605     0.32115135    -0.07877965    -0.00045203    -0.00011841    -0.00025184
C        -2.44724934     0.52836229     0.35709706     0.00020257    -0.00005826    -0.00003634
H        -4.43022642     1.15110577    -0.63668535    -0.00158678     0.00058013    -0.00053314
H        -1.93704720    -0.25599365     1.02716698     0.00059174    -0.00017158     0.00106697
C        -1.88602656     1.67996588    -0.03805809     0.00042038     0.00021707     0.00012067
H        -2.36461897     2.53677775    -0.55462989    -0.00102296    -0.00102000     0.00052339
N        -0.51800240     1.84118773     0.15805416     0.00004210    -0.00011168    -0.00003216
H        -0.07078890     2.69399595    -0.06677255    -0.00036614     0.00015609     0.00001127
H         0.08096723     1.06088881     0.35788577     0.00047465     0.00149910     0.00033858
    14
  Step:    19            Position(A)                                  Velocity(au)
C        -6.03467603    -0.69741544    -0.21081814    -0.00029878     0.00000029    -0.00006040
C        -4.70056815    -0.75913206     0.20286670     0.00021858    -0.00000390     0.00015609
H        -6.36751976     0.14502389    -0.84226829    -0.00055140     0.00086551    -0.00071718
H        -6.72131080    -1.49692846    -0.05045197     0.00030502    -0.00098232     0.00073236
H        -4.31364751    -1.56717482     0.82692791     0.00001653    -0.00029545    -0.00000616
C        -3.95762335     0.32006442    -0.08153281    -0.00039843    -0.00007706    -0.00025259
C        -2.44536224     0.52744813     0.35676348     0.00014324    -0.00010818    -0.00002436
H        -4.44692686     1.15710636    -0.64218265    -0.00144650     0.00049014    -0.00045365
H        -1.93141767    -0.25639724     1.03736873     0.00042614     0.00010685     0.00078547
C        -1.88104220     1.68255436    -0.03677968     0.00048862     0.00025168     0.00011439
H        -2.37589414     2.52474318    -0.54843275    -0.00103419    -0.00115728     0.00059953
N        -0.51771051     1.83994766     0.15769275     0.00001055    -0.00011003    -0.00003519
H        -0.07404469     2.69706850    -0.06709996    -0.00023473     0.00039518    -0.00006788
H         0.08641659     1.07675225     0.36193597     0.00054661     0.00135748     0.00041335
    14
  Step:    20            Position(A)                                  Velocity(au)
C        -6.03801373    -0.69740877    -0.21156796    -0.00031126     0.00000095    -0.00007678
C        -4.69827345    -0.75930203     0.20467263     0.00019793    -0.00002752     0.00017309
H        -6.37342321     0.15407541    -0.84961429    -0.00051881     0.00075851    -0.00060447
H        -6.71868310    -1.50833433    -0.04214385     0.00018669    -0.00107975     0.00077800
H        -4.31359045    -1.57056805     0.82657604    -0.00000493    -0.00032137    -0.00005878
C        -3.96168253     0.31946548    -0.08430555    -0.00034299    -0.00003033    -0.00025494
C        -2.44411568     0.52599575     0.35656422     0.00008575    -0.00015530    -0.00001249
H        -4.46187127     1.16182846    -0.64660972    -0.00126976     0.00035333    -0.00034229
H        -1.92772453    -0.25365605     1.04435059     0.00024258     0.00039457     0.00048559
C        -1.87533713     1.68547194    -0.03555558     0.00055138     0.00027630     0.00011101
H        -2.38724382     2.51145995    -0.54151394    -0.00103815    -0.00124478     0.00065336
N        -0.51777149     1.83878072     0.15728441    -0.00002092    -0.00009806    -0.00004080