 Fermi distribution function

Calculation with static geometry


********************************************************************************
 iSCC Total electronic   Diff electronic      SCC error    
   10   -0.53896531E+01   -0.50004445E-12    0.23986464E-06
********************************************************************************

 Total charge:     1.00000000

 Atomic gross charges (e)
 Atom           Charge
    1       0.27990891
    2      -0.16988639
    3       0.15238113
    4       0.30402129
    5       0.27198185
    6       0.16159322

Nr. of electrons (up):     12.00000000
Atom populations (up)
 Atom       Population
    1       3.72009109
    2       5.16988639
    3       0.84761887
    4       0.69597871
    5       0.72801815
    6       0.83840678

l-shell populations (up)
 Atom Sh.   l       Population
    1   1   0       1.30015453
    1   2   1       2.41993656
    2   1   0       1.41911530
    2   2   1       3.75077109
    3   1   0       0.84761887
    4   1   0       0.69597871
    5   1   0       0.72801815
    6   1   0       0.83840678

Orbital populations (up)
 Atom Sh.   l   m       Population  Label
    1   1   0   0       1.30015453  s
    1   2   1  -1       0.56136218  p_y
    1   2   1   0       0.89383755  p_z
    1   2   1   1       0.96473682  p_x
    2   1   0   0       1.41911530  s
    2   2   1  -1       1.35801021  p_y
    2   2   1   0       1.09201986  p_z
    2   2   1   1       1.30074102  p_x
    3   1   0   0       0.84761887  s
    4   1   0   0       0.69597871  s
    5   1   0   0       0.72801815  s
    6   1   0   0       0.83840678  s

Fermi level:                        -0.4894448873 H          -13.3185 eV
Band energy:                        -8.8749427656 H         -241.4995 eV
TS:                                  0.0000000000 H            0.0000 eV
Band free energy (E-TS):            -8.8749427656 H         -241.4995 eV
Extrapolated E(0K):                 -8.8749427656 H         -241.4995 eV
Input / Output electrons (q):     12.0000000000     12.0000000000

Energy H0:                          -5.5237254054 H         -150.3082 eV
Energy SCC:                          0.1340722744 H            3.6483 eV
Total Electronic energy:            -5.3896531310 H         -146.6599 eV
Repulsive energy:                    0.1956700399 H            5.3245 eV
Total energy:                       -5.1939830911 H         -141.3355 eV
Extrapolated to 0:                  -5.1939830911 H         -141.3355 eV
Total Mermin free energy:           -5.1939830911 H         -141.3355 eV
Force related energy:               -5.1939830911 H         -141.3355 eV

SCC converged

Excitation Energy:                   0.0975642328 H            2.6549 eV

Total Forces
    1     -0.010920000917      0.005348472542      0.018030624621
    2      0.018879339213      0.012947233468     -0.019192544882
    3     -0.001687614503     -0.015867817596      0.003406947317
    4     -0.011251857375      0.004021058794     -0.000099769387
    5      0.000041277602     -0.016756963511      0.000178292922
    6      0.004938855980      0.010308016302     -0.002323550591

Maximal derivative component:        0.191925E-01 au


