|===============================================================================
|
|  DFTB+ release 20.1
|
|  Copyright (C) 2006 - 2020  DFTB+ developers group
|
|===============================================================================
|
|  When publishing results obtained with DFTB+, please cite the following
|  reference:
|
|  * DFTB+, a software package for efficient approximate density functional
|    theory based atomistic simulations, J. Chem. Phys. 152, 124101 (2020).
|    [doi: 10.1063/1.5143190]
|
|  You should also cite additional publications crediting the parametrization
|  data you use. Please consult the documentation of the SK-files for the
|  references.
|
|===============================================================================

Reading input file 'dftb_in.hsd'
Parser version: 8

--------------------------------------------------------------------------------
Reading SK-files:
Done.


Processed input in HSD format written to 'dftb_pin.hsd'

Starting initialization...
--------------------------------------------------------------------------------
OpenMP threads:              1
Chosen random seed:          507937528
Mode:                        Static calculation
Self consistent charges:     Yes
SCC-tolerance:                 0.100000E-05
Max. scc iterations:                   1000
Shell resolved Hubbard:      No
Spin polarisation:           No
Nr. of up electrons:             6.000000
Nr. of down electrons:           6.000000
Periodic boundaries:         No
Electronic solver:           Relatively robust
Maximal SCC-cycles:                    1000
Initial charges:             Set automatically (system chrg:   0.100E+01)
Included shells:             C:  s, p
                             N:  s, p
                             H:  s
Spin coupling constants:     C   1(s)-1(s):  -0.455900E-01
                             C   1(s)-2(p):  -0.293000E-01
                             C   2(p)-1(s):  -0.293000E-01
                             C   2(p)-2(p):  -0.275500E-01
                             N   1(s)-1(s):  -0.468700E-01
                             N   1(s)-2(p):  -0.317000E-01
                             N   2(p)-1(s):  -0.317000E-01
                             N   2(p)-2(p):  -0.307200E-01
                             H   1(s)-1(s):  -0.792500E-01
Range separated hybrid:      Yes
  Screening parameter omega:   0.300000E+00
  Range separated algorithm:   MatrixBased
Extra options:
                             Mulliken analysis
                             Force calculation
Force type                   original
                             Eigenvector printing


REKS Calcuation:             Yes
SSR(2,2) Calcuation:         Yes
Energy Functional:           (PPS+OSS)/2
Number of Core Orbitals:                  5
Number of Active Orbitals:                2
Number of Basis:                         12
Number of States:                         2
State-Averaging Weight:          0.500000
                                 0.500000
State of Interest:                        1
Initial Guess:               Diagonalize H0 matrix
Newton-Raphson for FON opt:  Yes
NR max. Iterations:                      50
Level Shifting:              Yes
Shift Value:                     0.300000
W Scale Factor:              C  =    3.000000
                             N  =    3.000000
                             H  =    3.000000
Transition Dipole:           No
Gradient of Microstate:      No
CP-REKS Solver:              Preconditioned Conjugate-Gradient
CG max. Iterations:                     100
CG Tolerance:                  0.100000E-07
Memory for A and Hxc:        Direct Updating Without Saving
Non-Adiabatic Coupling:      Yes

--------------------------------------------------------------------------------

***  Geometry step: 0

  iSCC       reks energy        Diff energy         x_a       SCC error   
    1       -6.2653654671       0.0000000000     0.998373    1.17610115
    2       -6.2787459722      -0.0133805050     0.999419    0.10878976
    3       -6.2823892939      -0.0036433218     0.999701    0.05092052
    4       -6.2838592872      -0.0014699933     0.999809    0.02608526
    5       -6.2845663428      -0.0007070555     0.999857    0.01439355
    6       -6.2849737922      -0.0004074494     0.999880    0.00826771
    7       -6.2852477980      -0.0002740059     0.999893    0.00490095
    8       -6.2854515991      -0.0002038011     0.999900    0.00476300
    9       -6.2856119055      -0.0001603064     0.999904    0.00450151
   10       -6.2857416025      -0.0001296970     0.999907    0.00418607
   11       -6.2858478599      -0.0001062574     0.999909    0.00385145
   12       -6.2859352570      -0.0000873971     0.999910    0.00351597
   13       -6.2860070842      -0.0000718272     0.999910    0.00319000
   14       -6.2860659187      -0.0000588346     0.999911    0.00287964
   15       -6.2861138892      -0.0000479705     0.999911    0.00258845
   16       -6.2861528009      -0.0000389116     0.999911    0.00236325
   17       -6.2861841991      -0.0000313982     0.999911    0.00216600
   18       -6.2862094056      -0.0000252066     0.999911    0.00197419
   19       -6.2862295443      -0.0000201386     0.999911    0.00179072
   20       -6.2862455623      -0.0000160180     0.999911    0.00161754
   21       -6.2862582509      -0.0000126886     0.999911    0.00145579
   22       -6.2862682650      -0.0000100142     0.999911    0.00130604
   23       -6.2862761423      -0.0000078772     0.999911    0.00116842
   24       -6.2862823202      -0.0000061779     0.999911    0.00104273
   25       -6.2862871525      -0.0000048323     0.999911    0.00092854
   26       -6.2862909235      -0.0000037710     0.999911    0.00082527
   27       -6.2862938600      -0.0000029366     0.999911    0.00073224
   28       -6.2862961426      -0.0000022826     0.999910    0.00064872
   29       -6.2862979139      -0.0000017713     0.999910    0.00057397
   30       -6.2862992865      -0.0000013726     0.999910    0.00050723
   31       -6.2863003488      -0.0000010623     0.999910    0.00044778
   32       -6.2863011701      -0.0000008212     0.999910    0.00039493
   33       -6.2863018043      -0.0000006342     0.999910    0.00034803
   34       -6.2863022937      -0.0000004894     0.999910    0.00030648
   35       -6.2863026711      -0.0000003773     0.999910    0.00026972
   36       -6.2863029618      -0.0000002908     0.999910    0.00023723
   37       -6.2863031857      -0.0000002239     0.999910    0.00020855
   38       -6.2863033581      -0.0000001723     0.999910    0.00018325
   39       -6.2863034906      -0.0000001326     0.999910    0.00016096
   40       -6.2863035926      -0.0000001020     0.999910    0.00014133
   41       -6.2863036710      -0.0000000784     0.999910    0.00012405
   42       -6.2863037312      -0.0000000602     0.999910    0.00010886
   43       -6.2863037775      -0.0000000463     0.999910    0.00009550
   44       -6.2863038130      -0.0000000355     0.999910    0.00008376
   45       -6.2863038403      -0.0000000273     0.999910    0.00007346
   46       -6.2863038613      -0.0000000210     0.999910    0.00006441
   47       -6.2863038774      -0.0000000161     0.999910    0.00005646
   48       -6.2863038897      -0.0000000124     0.999910    0.00004949
   49       -6.2863038992      -0.0000000095     0.999910    0.00004338
   50       -6.2863039065      -0.0000000073     0.999910    0.00003801
   51       -6.2863039121      -0.0000000056     0.999910    0.00003331
   52       -6.2863039164      -0.0000000043     0.999910    0.00002919
   53       -6.2863039196      -0.0000000033     0.999910    0.00002557
   54       -6.2863039222      -0.0000000025     0.999910    0.00002240
   55       -6.2863039241      -0.0000000019     0.999910    0.00001963
   56       -6.2863039256      -0.0000000015     0.999910    0.00001719
   57       -6.2863039267      -0.0000000011     0.999910    0.00001506
   58       -6.2863039276      -0.0000000009     0.999910    0.00001319
   59       -6.2863039283      -0.0000000007     0.999910    0.00001155
   60       -6.2863039288      -0.0000000005     0.999910    0.00001012
   61       -6.2863039292      -0.0000000004     0.999910    0.00000886
   62       -6.2863039295      -0.0000000003     0.999910    0.00000776
   63       -6.2863039297      -0.0000000002     0.999910    0.00000680
   64       -6.2863039299      -0.0000000002     0.999910    0.00000595
   65       -6.2863039300      -0.0000000001     0.999910    0.00000522
   66       -6.2863039301      -0.0000000001     0.999910    0.00000457
   67       -6.2863039302      -0.0000000001     0.999910    0.00000400
   68       -6.2863039303      -0.0000000001     0.999910    0.00000350
   69       -6.2863039303      -0.0000000000     0.999910    0.00000307
   70       -6.2863039303      -0.0000000000     0.999910    0.00000269
   71       -6.2863039304      -0.0000000000     0.999910    0.00000235
   72       -6.2863039304      -0.0000000000     0.999910    0.00000206
   73       -6.2863039304      -0.0000000000     0.999910    0.00000180
   74       -6.2863039304      -0.0000000000     0.999910    0.00000158
   75       -6.2863039304      -0.0000000000     0.999910    0.00000138
   76       -6.2863039304      -0.0000000000     0.999910    0.00000121
   77       -6.2863039304      -0.0000000000     0.999910    0.00000106
   78       -6.2863039304      -0.0000000000     0.999910    0.00000093
  
--------------------------------------------------
 Final SA-REKS(2,2) energy:      -6.28630393
  
 State     Energy      FON(1)    FON(2)   Spin
  PPS   -6.40495798   1.999820  0.000180  0.00
  OSS   -6.16764988   1.000000  1.000000  0.00
 Trip   -6.24987001   1.000000  1.000000  1.00
--------------------------------------------------

 Lagrangian Wab:   0.01018607  0.01018573

--------------------------------------------------
 SSR: 2SI-2SA-REKS(2,2) Hamiltonian matrix
               PPS           OSS
   PPS    -6.40495798    0.01426782
   OSS     0.01426782   -6.16764988
--------------------------------------------------

----------------------------------------------------------------
 SSR: 2SI-2SA-REKS(2,2) states
                    E_n       C_{PPS}    C_{OSS}
 SSR state  1   -6.40581274  -0.998210   0.059801
 SSR state  2   -6.16679512  -0.059801  -0.998210
----------------------------------------------------------------

 unrelaxed SSR FONs for S0:  1.996244  0.003756

Total Energy:                       -6.4058127365 H         -174.3110 eV
Extrapolated to 0:                  -6.4058127365 H         -174.3110 eV

----------------------------------------------------------------------------------
 Solving CP-REKS equation for  1 state vector...
----------------------------------------------------------------------------------
  CG solver: Constructing Y initial guess
  CG solver: Iteration    1    eps =    0.000471226527
  CG solver: Iteration    2    eps =    0.000095558603
  CG solver: Iteration    3    eps =    0.000040393856
  CG solver: Iteration    4    eps =    0.000003860933
  CG solver: Iteration    5    eps =    0.000000044662
  CG solver: Iteration    6    eps =    0.000000024272
  CG solver: Iteration    7    eps =    0.000000000455
  Convergence reached in CG solver after    7 iterations
  CG solver: Calculating converged R, Z, Q2 matrix
----------------------------------------------------------------------------------

----------------------------------------------------------------------------------
 Solving CP-REKS equation for SI between  1 and  2 state vectors...
----------------------------------------------------------------------------------
  CG solver: Constructing Y initial guess
  CG solver: Iteration    1    eps =    0.007167054085
  CG solver: Iteration    2    eps =    0.011792654105
  CG solver: Iteration    3    eps =    0.001067682979
  CG solver: Iteration    4    eps =    0.000017768400
  CG solver: Iteration    5    eps =    0.000002865061
  CG solver: Iteration    6    eps =    0.000000093946
  CG solver: Iteration    7    eps =    0.000000007376
  Convergence reached in CG solver after    7 iterations
  CG solver: Calculating converged R, Z, Q2 matrix
----------------------------------------------------------------------------------

--------------------------------------------------
 Gradient Information
--------------------------------------------------
           1 st state (SSR)
    -0.00712545    -0.00291901    -0.03211356
     0.02162912    -0.00523804     0.03586353
     0.01394455     0.00340091     0.00145581
     0.00898878     0.00786898    -0.00245223
    -0.02295514     0.00093165    -0.00914251
    -0.01448186    -0.00404449     0.00638896

           2 st state (SSR)
     0.00804842    -0.00287701     0.07847810
    -0.02203247     0.00978715    -0.08734944
    -0.01611882     0.00610920     0.01678980
    -0.00805586    -0.00075376    -0.01248322
     0.02119898     0.00001631    -0.01402059
     0.01695975    -0.01228188     0.01858535
--------------------------------------------------
 Coupling Information
--------------------------------------------------
 between  1 and  2 states
--------------------------------------------------
 g vector - difference gradient
    -0.00782697     0.00032381    -0.06280576
     0.02359287    -0.00831085     0.06772995
     0.01752124    -0.00050535    -0.00709233
     0.01096596     0.00417702     0.00536734
    -0.02561931     0.00122800     0.00231993
    -0.01863380     0.00308737    -0.00551912

 h vector - derivative coupling
    -0.00154163     0.00286877    -0.05914144
     0.01334594    -0.00618837     0.04723321
     0.01980314     0.00713988     0.00523833
     0.01981121    -0.00137557     0.00262555
    -0.02813544     0.00637878    -0.00113666
    -0.02328323    -0.00882349     0.00518101

 G vector - GDV
    -0.00758693    -0.00002100    -0.05529583
     0.02183080    -0.00751259     0.06160649
     0.01503168    -0.00135415    -0.00766700
     0.00852232     0.00431137     0.00501550
    -0.02207706     0.00045767     0.00243904
    -0.01572081     0.00411870    -0.00609819

 H vector - DCV - non-adiabatic coupling
    -0.01031321     0.01207823    -0.27703669
     0.06722170    -0.02985689     0.23003106
     0.09101136     0.02940571     0.01821676
     0.08777058    -0.00362755     0.01358714
    -0.12966755     0.02710999    -0.00356274
    -0.10602288    -0.03510949     0.01876447
--------------------------------------------------


--------------------------------------------------------------------------------
DFTB+ running times                          cpu [s]             wall clock [s]
--------------------------------------------------------------------------------
SCC                                    +     0.04  ( 75.5%)      0.04  ( 71.2%)
Post-SCC processing                    +     0.01  ( 21.4%)      0.01  ( 21.2%)
  Force calculation                          0.01  ( 20.9%)      0.01  ( 19.2%)
--------------------------------------------------------------------------------
Missing                                +     0.00  (  3.0%)      0.00  (  7.7%)
Total                                  =     0.05  (100.0%)      0.05  (100.0%)
--------------------------------------------------------------------------------
