|===============================================================================
|
|  DFTB+ release 20.1
|
|  Copyright (C) 2006 - 2020  DFTB+ developers group
|
|===============================================================================
|
|  When publishing results obtained with DFTB+, please cite the following
|  reference:
|
|  * DFTB+, a software package for efficient approximate density functional
|    theory based atomistic simulations, J. Chem. Phys. 152, 124101 (2020).
|    [doi: 10.1063/1.5143190]
|
|  You should also cite additional publications crediting the parametrization
|  data you use. Please consult the documentation of the SK-files for the
|  references.
|
|===============================================================================

Reading input file 'dftb_in.hsd'
Parser version: 8

--------------------------------------------------------------------------------
Reading SK-files:
Done.


Processed input in HSD format written to 'dftb_pin.hsd'

Starting initialization...
--------------------------------------------------------------------------------
OpenMP threads:              1
Chosen random seed:          499894832
Mode:                        Static calculation
Self consistent charges:     Yes
SCC-tolerance:                 0.100000E-05
Max. scc iterations:                   1000
Shell resolved Hubbard:      No
Spin polarisation:           No
Nr. of up electrons:            16.000000
Nr. of down electrons:          16.000000
Periodic boundaries:         No
Electronic solver:           Relatively robust
Maximal SCC-cycles:                    1000
Initial charges:             Set automatically (system chrg:   0.100E+01)
Included shells:             C:  s, p
                             H:  s
                             N:  s, p
Spin coupling constants:     C   1(s)-1(s):  -0.455900E-01
                             C   1(s)-2(p):  -0.293000E-01
                             C   2(p)-1(s):  -0.293000E-01
                             C   2(p)-2(p):  -0.275500E-01
                             H   1(s)-1(s):  -0.792500E-01
                             N   1(s)-1(s):  -0.468700E-01
                             N   1(s)-2(p):  -0.317000E-01
                             N   2(p)-1(s):  -0.317000E-01
                             N   2(p)-2(p):  -0.307200E-01
Range separated hybrid:      Yes
  Screening parameter omega:   0.300000E+00
  Range separated algorithm:   MatrixBased
Extra options:
                             Mulliken analysis
                             Force calculation
Force type                   original
                             Eigenvector printing


REKS Calcuation:             Yes
SSR(2,2) Calcuation:         Yes
Energy Functional:           (PPS+OSS)/2
Number of Core Orbitals:                 15
Number of Active Orbitals:                2
Number of Basis:                         32
Number of States:                         2
State-Averaging Weight:          0.500000
                                 0.500000
State of Interest:                        1
Initial Guess:               Diagonalize H0 matrix
Newton-Raphson for FON opt:  Yes
NR max. Iterations:                      50
Level Shifting:              Yes
Shift Value:                     0.300000
W Scale Factor:              C  =    3.200000
                             H  =    3.200000
                             N  =    3.200000
Transition Dipole:           No
Gradient of Microstate:      No
CP-REKS Solver:              Preconditioned Conjugate-Gradient
CG max. Iterations:                     100
CG Tolerance:                  0.100000E-07
Memory for A and Hxc:        Direct Updating Without Saving
Non-Adiabatic Coupling:      Yes

--------------------------------------------------------------------------------

***  Geometry step: 0

  iSCC       reks energy        Diff energy         x_a       SCC error   
    1      -16.3445188694       0.0000000000     0.998177    1.20189610
    2      -16.3669591531      -0.0224402836     0.999834    0.06591885
    3      -16.3743839910      -0.0074248380     0.999979    0.04407692
    4      -16.3776855002      -0.0033015091     0.999996    0.02854263
    5      -16.3794118883      -0.0017263881     0.999999    0.01848401
    6      -16.3804350036      -0.0010231153     1.000000    0.01226540
    7      -16.3810948199      -0.0006598163     1.000000    0.00837930
    8      -16.3815419396      -0.0004471196     1.000000    0.00595784
    9      -16.3818534010      -0.0003114615     1.000000    0.00516137
   10      -16.3820737472      -0.0002203461     1.000000    0.00439713
   11      -16.3822310310      -0.0001572839     1.000000    0.00387098
   12      -16.3823439085      -0.0001128775     1.000000    0.00349936
   13      -16.3824252061      -0.0000812975     1.000000    0.00311038
   14      -16.3824839177      -0.0000587117     1.000000    0.00273195
   15      -16.3825264222      -0.0000425044     1.000000    0.00237915
   16      -16.3825572716      -0.0000308495     1.000000    0.00205909
   17      -16.3825797264      -0.0000224547     1.000000    0.00177407
   18      -16.3825961259      -0.0000163995     1.000000    0.00152353
   19      -16.3826081513      -0.0000120254     1.000000    0.00130538
   20      -16.3826170118      -0.0000088606     1.000000    0.00111676
   21      -16.3826235785      -0.0000065666     1.000000    0.00095454
   22      -16.3826284790      -0.0000049006     1.000000    0.00081557
   23      -16.3826321670      -0.0000036879     1.000000    0.00069688
   24      -16.3826349702      -0.0000028032     1.000000    0.00059575
   25      -16.3826371261      -0.0000021560     1.000000    0.00050974
   26      -16.3826388073      -0.0000016812     1.000000    0.00043668
   27      -16.3826401391      -0.0000013318     1.000000    0.00037469
   28      -16.3826412131      -0.0000010740     1.000000    0.00032211
   29      -16.3826420961      -0.0000008830     1.000000    0.00027755
   30      -16.3826428370      -0.0000007409     1.000000    0.00024993
   31      -16.3826434718      -0.0000006349     1.000000    0.00024198
   32      -16.3826440272      -0.0000005553     1.000000    0.00023496
   33      -16.3826445225      -0.0000004954     1.000000    0.00022872
   34      -16.3826449725      -0.0000004499     1.000000    0.00022317
   35      -16.3826453878      -0.0000004153     1.000000    0.00021822
   36      -16.3826457765      -0.0000003887     1.000000    0.00021379
   37      -16.3826461446      -0.0000003681     1.000000    0.00020982
   38      -16.3826464966      -0.0000003520     1.000000    0.00020624
   39      -16.3826468360      -0.0000003394     1.000000    0.00020302
   40      -16.3826471652      -0.0000003292     1.000000    0.00020010
   41      -16.3826474863      -0.0000003211     1.000000    0.00019745
   42      -16.3826478007      -0.0000003144     1.000000    0.00019505
   43      -16.3826481095      -0.0000003088     1.000000    0.00019285
   44      -16.3826484137      -0.0000003042     1.000000    0.00019084
   45      -16.3826487138      -0.0000003001     1.000000    0.00018900
   46      -16.3826490105      -0.0000002966     1.000000    0.00018730
   47      -16.3826493040      -0.0000002935     1.000000    0.00018572
   48      -16.3826495948      -0.0000002907     1.000000    0.00018427
   49      -16.3826498829      -0.0000002882     1.000000    0.00018291
   50      -16.3826501688      -0.0000002858     1.000000    0.00018164
   51      -16.3826504524      -0.0000002836     1.000000    0.00018045
   52      -16.3826507339      -0.0000002815     1.000000    0.00017934
   53      -16.3826510135      -0.0000002795     1.000000    0.00017828
   54      -16.3826512911      -0.0000002776     1.000000    0.00017728
   55      -16.3826515669      -0.0000002758     1.000000    0.00017633
   56      -16.3826518409      -0.0000002740     1.000000    0.00017542
   57      -16.3826521131      -0.0000002722     1.000000    0.00017455
   58      -16.3826523836      -0.0000002705     1.000000    0.00017372
   59      -16.3826526524      -0.0000002688     1.000000    0.00017291
   60      -16.3826529195      -0.0000002671     1.000000    0.00017214
   61      -16.3826531850      -0.0000002655     1.000000    0.00017138
   62      -16.3826534488      -0.0000002638     1.000000    0.00017065
   63      -16.3826537110      -0.0000002622     1.000000    0.00016994
   64      -16.3826539717      -0.0000002606     1.000000    0.00016925
   65      -16.3826542307      -0.0000002590     1.000000    0.00016857
   66      -16.3826544882      -0.0000002575     1.000000    0.00016791
   67      -16.3826547441      -0.0000002559     1.000000    0.00016726
   68      -16.3826549985      -0.0000002544     1.000000    0.00016661
   69      -16.3826552513      -0.0000002528     1.000000    0.00016598
   70      -16.3826555026      -0.0000002513     1.000000    0.00016536
   71      -16.3826557524      -0.0000002498     1.000000    0.00016475
   72      -16.3826560006      -0.0000002483     1.000000    0.00016415
   73      -16.3826562474      -0.0000002468     1.000000    0.00016355
   74      -16.3826564926      -0.0000002453     1.000000    0.00016295
   75      -16.3826567364      -0.0000002438     1.000000    0.00016237
   76      -16.3826569787      -0.0000002423     1.000000    0.00016179
   77      -16.3826572195      -0.0000002408     1.000000    0.00016121
   78      -16.3826574589      -0.0000002394     1.000000    0.00016064
   79      -16.3826576968      -0.0000002379     1.000000    0.00016007
   80      -16.3826579333      -0.0000002365     1.000000    0.00015950
   81      -16.3826581683      -0.0000002350     1.000000    0.00015894
   82      -16.3826584019      -0.0000002336     1.000000    0.00015838
   83      -16.3826586340      -0.0000002322     1.000000    0.00015783
   84      -16.3826588648      -0.0000002308     1.000000    0.00015727
   85      -16.3826590942      -0.0000002294     1.000000    0.00015672
   86      -16.3826593221      -0.0000002280     1.000000    0.00015617
   87      -16.3826595487      -0.0000002266     1.000000    0.00015563
   88      -16.3826597739      -0.0000002252     1.000000    0.00015509
   89      -16.3826599977      -0.0000002238     1.000000    0.00015455
   90      -16.3826602201      -0.0000002224     1.000000    0.00015401
   91      -16.3826604412      -0.0000002211     1.000000    0.00015347
   92      -16.3826606609      -0.0000002197     1.000000    0.00015294
   93      -16.3826608793      -0.0000002184     1.000000    0.00015240
   94      -16.3826610964      -0.0000002171     1.000000    0.00015187
   95      -16.3826613121      -0.0000002157     1.000000    0.00015134
   96      -16.3826615265      -0.0000002144     1.000000    0.00015081
   97      -16.3826617396      -0.0000002131     1.000000    0.00015029
   98      -16.3826619514      -0.0000002118     1.000000    0.00014983
   99      -16.3826621619      -0.0000002105     1.000000    0.00014940
  100      -16.3826623711      -0.0000002092     1.000000    0.00014897
  101      -16.3826625790      -0.0000002079     1.000000    0.00014854
  102      -16.3826627857      -0.0000002067     1.000000    0.00014811
  103      -16.3826629911      -0.0000002054     1.000000    0.00014768
  104      -16.3826631952      -0.0000002041     1.000000    0.00014725
  105      -16.3826633981      -0.0000002029     1.000000    0.00014682
  106      -16.3826635997      -0.0000002016     1.000000    0.00014639
  107      -16.3826638001      -0.0000002004     1.000000    0.00014596
  108      -16.3826639993      -0.0000001992     1.000000    0.00014554
  109      -16.3826641973      -0.0000001980     1.000000    0.00014511
  110      -16.3826643940      -0.0000001967     1.000000    0.00014468
  111      -16.3826645896      -0.0000001955     1.000000    0.00014426
  112      -16.3826647839      -0.0000001943     1.000000    0.00014383
  113      -16.3826649771      -0.0000001932     1.000000    0.00014341
  114      -16.3826651690      -0.0000001920     1.000000    0.00014298
  115      -16.3826653598      -0.0000001908     1.000000    0.00014256
  116      -16.3826655495      -0.0000001896     1.000000    0.00014214
  117      -16.3826657380      -0.0000001885     1.000000    0.00014172
  118      -16.3826659253      -0.0000001873     1.000000    0.00014130
  119      -16.3826661115      -0.0000001862     1.000000    0.00014088
  120      -16.3826662965      -0.0000001850     1.000000    0.00014046
  121      -16.3826664805      -0.0000001839     1.000000    0.00014004
  122      -16.3826666632      -0.0000001828     1.000000    0.00013962
  123      -16.3826668449      -0.0000001817     1.000000    0.00013920
  124      -16.3826670255      -0.0000001806     1.000000    0.00013879
  125      -16.3826672050      -0.0000001795     1.000000    0.00013837
  126      -16.3826673834      -0.0000001784     1.000000    0.00013796
  127      -16.3826675607      -0.0000001773     1.000000    0.00013755
  128      -16.3826677369      -0.0000001762     1.000000    0.00013713
  129      -16.3826679120      -0.0000001751     1.000000    0.00013672
  130      -16.3826680861      -0.0000001741     1.000000    0.00013631
  131      -16.3826682591      -0.0000001730     1.000000    0.00013590
  132      -16.3826684311      -0.0000001720     1.000000    0.00013550
  133      -16.3826686020      -0.0000001709     1.000000    0.00013509
  134      -16.3826687719      -0.0000001699     1.000000    0.00013468
  135      -16.3826689408      -0.0000001689     1.000000    0.00013428
  136      -16.3826691086      -0.0000001678     1.000000    0.00013387
  137      -16.3826692755      -0.0000001668     1.000000    0.00013347
  138      -16.3826694413      -0.0000001658     1.000000    0.00013307
  139      -16.3826696061      -0.0000001648     1.000000    0.00013267
  140      -16.3826697699      -0.0000001638     1.000000    0.00013227
  141      -16.3826699327      -0.0000001628     1.000000    0.00013187
  142      -16.3826700946      -0.0000001618     1.000000    0.00013147
  143      -16.3826702555      -0.0000001609     1.000000    0.00013108
  144      -16.3826704154      -0.0000001599     1.000000    0.00013068
  145      -16.3826705743      -0.0000001589     1.000000    0.00013029
  146      -16.3826707323      -0.0000001580     1.000000    0.00012990
  147      -16.3826708893      -0.0000001570     1.000000    0.00012951
  148      -16.3826710454      -0.0000001561     1.000000    0.00012911
  149      -16.3826712006      -0.0000001552     1.000000    0.00012873
  150      -16.3826713548      -0.0000001542     1.000000    0.00012834
  151      -16.3826715081      -0.0000001533     1.000000    0.00012795
  152      -16.3826716605      -0.0000001524     1.000000    0.00012756
  153      -16.3826718120      -0.0000001515     1.000000    0.00012718
  154      -16.3826719626      -0.0000001506     1.000000    0.00012680
  155      -16.3826721123      -0.0000001497     1.000000    0.00012641
  156      -16.3826722611      -0.0000001488     1.000000    0.00012603
  157      -16.3826724090      -0.0000001479     1.000000    0.00012565
  158      -16.3826725560      -0.0000001470     1.000000    0.00012528
  159      -16.3826727021      -0.0000001461     1.000000    0.00012490
  160      -16.3826728474      -0.0000001453     1.000000    0.00012452
  161      -16.3826729918      -0.0000001444     1.000000    0.00012415
  162      -16.3826731354      -0.0000001436     1.000000    0.00012377
  163      -16.3826732781      -0.0000001427     1.000000    0.00012340
  164      -16.3826734200      -0.0000001419     1.000000    0.00012303
  165      -16.3826735610      -0.0000001410     1.000000    0.00012266
  166      -16.3826737012      -0.0000001402     1.000000    0.00012229
  167      -16.3826738406      -0.0000001394     1.000000    0.00012192
  168      -16.3826739792      -0.0000001386     1.000000    0.00012156
  169      -16.3826741169      -0.0000001377     1.000000    0.00012119
  170      -16.3826742538      -0.0000001369     1.000000    0.00012083
  171      -16.3826743900      -0.0000001361     1.000000    0.00012047
  172      -16.3826745253      -0.0000001353     1.000000    0.00012010
  173      -16.3826746598      -0.0000001345     1.000000    0.00011974
  174      -16.3826747936      -0.0000001338     1.000000    0.00011939
  175      -16.3826749266      -0.0000001330     1.000000    0.00011903
  176      -16.3826750588      -0.0000001322     1.000000    0.00011867
  177      -16.3826751902      -0.0000001314     1.000000    0.00011832
  178      -16.3826753209      -0.0000001307     1.000000    0.00011796
  179      -16.3826754508      -0.0000001299     1.000000    0.00011761
  180      -16.3826755800      -0.0000001292     1.000000    0.00011726
  181      -16.3826757084      -0.0000001284     1.000000    0.00011691
  182      -16.3826758361      -0.0000001277     1.000000    0.00011656
  183      -16.3826759630      -0.0000001269     1.000000    0.00011621
  184      -16.3826760892      -0.0000001262     1.000000    0.00011587
  185      -16.3826762147      -0.0000001255     1.000000    0.00011552
  186      -16.3826763394      -0.0000001248     1.000000    0.00011518
  187      -16.3826764635      -0.0000001240     1.000000    0.00011484
  188      -16.3826765868      -0.0000001233     1.000000    0.00011450
  189      -16.3826767094      -0.0000001226     1.000000    0.00011416
  190      -16.3826768313      -0.0000001219     1.000000    0.00011382
  191      -16.3826769526      -0.0000001212     1.000000    0.00011348
  192      -16.3826770731      -0.0000001205     1.000000    0.00011314
  193      -16.3826771930      -0.0000001198     1.000000    0.00011281
  194      -16.3826773121      -0.0000001192     1.000000    0.00011248
  195      -16.3826774306      -0.0000001185     1.000000    0.00011214
  196      -16.3826775484      -0.0000001178     1.000000    0.00011181
  197      -16.3826776656      -0.0000001172     1.000000    0.00011148
  198      -16.3826777821      -0.0000001165     1.000000    0.00011115
  199      -16.3826778979      -0.0000001158     1.000000    0.00011083
  200      -16.3826780131      -0.0000001152     1.000000    0.00011050
  201      -16.3826781277      -0.0000001145     1.000000    0.00011018
  202      -16.3826782415      -0.0000001139     1.000000    0.00010985
  203      -16.3826783548      -0.0000001133     1.000000    0.00010953
  204      -16.3826784674      -0.0000001126     1.000000    0.00010921
  205      -16.3826785794      -0.0000001120     1.000000    0.00010889
  206      -16.3826786908      -0.0000001114     1.000000    0.00010857
  207      -16.3826788015      -0.0000001107     1.000000    0.00010826
  208      -16.3826789117      -0.0000001101     1.000000    0.00010794
  209      -16.3826790212      -0.0000001095     1.000000    0.00010763
  210      -16.3826791301      -0.0000001089     1.000000    0.00010731
  211      -16.3826792384      -0.0000001083     1.000000    0.00010700
  212      -16.3826793461      -0.0000001077     1.000000    0.00010669
  213      -16.3826794533      -0.0000001071     1.000000    0.00010638
  214      -16.3826795598      -0.0000001065     1.000000    0.00010607
  215      -16.3826796657      -0.0000001059     1.000000    0.00010577
  216      -16.3826797711      -0.0000001054     1.000000    0.00010546
  217      -16.3826798759      -0.0000001048     1.000000    0.00010516
  218      -16.3826799801      -0.0000001042     1.000000    0.00010485
  219      -16.3826800838      -0.0000001036     1.000000    0.00010455
  220      -16.3826801869      -0.0000001031     1.000000    0.00010425
  221      -16.3826802894      -0.0000001025     1.000000    0.00010395
  222      -16.3826803914      -0.0000001020     1.000000    0.00010365
  223      -16.3826804928      -0.0000001014     1.000000    0.00010335
  224      -16.3826805936      -0.0000001009     1.000000    0.00010306
  225      -16.3826806940      -0.0000001003     1.000000    0.00010276
  226      -16.3826807937      -0.0000000998     1.000000    0.00010247
  227      -16.3826808930      -0.0000000992     1.000000    0.00010218
  228      -16.3826809917      -0.0000000987     1.000000    0.00010189
  229      -16.3826810899      -0.0000000982     1.000000    0.00010160
  230      -16.3826811876      -0.0000000977     1.000000    0.00010131
  231      -16.3826812847      -0.0000000971     1.000000    0.00010102
  232      -16.3826813813      -0.0000000966     1.000000    0.00010074
  233      -16.3826814774      -0.0000000961     1.000000    0.00010045
  234      -16.3826815730      -0.0000000956     1.000000    0.00010017
  235      -16.3826816681      -0.0000000951     1.000000    0.00009988
  236      -16.3826817627      -0.0000000946     1.000000    0.00009960
  237      -16.3826818568      -0.0000000941     1.000000    0.00009932
  238      -16.3826819504      -0.0000000936     1.000000    0.00009904
  239      -16.3826820435      -0.0000000931     1.000000    0.00009877
  240      -16.3826821362      -0.0000000926     1.000000    0.00009849
  241      -16.3826822283      -0.0000000921     1.000000    0.00009821
  242      -16.3826823199      -0.0000000917     1.000000    0.00009794
  243      -16.3826824111      -0.0000000912     1.000000    0.00009767
  244      -16.3826825018      -0.0000000907     1.000000    0.00009739
  245      -16.3826825921      -0.0000000902     1.000000    0.00009712
  246      -16.3826826818      -0.0000000898     1.000000    0.00009685
  247      -16.3826827711      -0.0000000893     1.000000    0.00009659
  248      -16.3826828600      -0.0000000888     1.000000    0.00009632
  249      -16.3826829484      -0.0000000884     1.000000    0.00009605
  250      -16.3826830363      -0.0000000879     1.000000    0.00009579
  251      -16.3826831238      -0.0000000875     1.000000    0.00009552
  252      -16.3826832108      -0.0000000870     1.000000    0.00009526
  253      -16.3826832974      -0.0000000866     1.000000    0.00009500
  254      -16.3826833835      -0.0000000861     1.000000    0.00009474
  255      -16.3826834693      -0.0000000857     1.000000    0.00009448
  256      -16.3826835545      -0.0000000853     1.000000    0.00009422
  257      -16.3826836394      -0.0000000848     1.000000    0.00009397
  258      -16.3826837238      -0.0000000844     1.000000    0.00009371
  259      -16.3826838078      -0.0000000840     1.000000    0.00009346
  260      -16.3826838914      -0.0000000836     1.000000    0.00009320
  261      -16.3826839745      -0.0000000832     1.000000    0.00009295
  262      -16.3826840572      -0.0000000827     1.000000    0.00009270
  263      -16.3826841396      -0.0000000823     1.000000    0.00009245
  264      -16.3826842215      -0.0000000819     1.000000    0.00009220
  265      -16.3826843030      -0.0000000815     1.000000    0.00009195
  266      -16.3826843841      -0.0000000811     1.000000    0.00009170
  267      -16.3826844648      -0.0000000807     1.000000    0.00009146
  268      -16.3826845451      -0.0000000803     1.000000    0.00009121
  269      -16.3826846250      -0.0000000799     1.000000    0.00009097
  270      -16.3826847045      -0.0000000795     1.000000    0.00009073
  271      -16.3826847836      -0.0000000791     1.000000    0.00009049
  272      -16.3826848624      -0.0000000787     1.000000    0.00009025
  273      -16.3826849407      -0.0000000784     1.000000    0.00009001
  274      -16.3826850187      -0.0000000780     1.000000    0.00008977
  275      -16.3826850963      -0.0000000776     1.000000    0.00008953
  276      -16.3826851735      -0.0000000772     1.000000    0.00008929
  277      -16.3826852504      -0.0000000768     1.000000    0.00008906
  278      -16.3826853268      -0.0000000765     1.000000    0.00008883
  279      -16.3826854029      -0.0000000761     1.000000    0.00008859
  280      -16.3826854787      -0.0000000757     1.000000    0.00008836
  281      -16.3826855541      -0.0000000754     1.000000    0.00008813
  282      -16.3826856291      -0.0000000750     1.000000    0.00008790
  283      -16.3826857037      -0.0000000747     1.000000    0.00008767
  284      -16.3826857780      -0.0000000743     1.000000    0.00008744
  285      -16.3826858520      -0.0000000740     1.000000    0.00008722
  286      -16.3826859256      -0.0000000736     1.000000    0.00008699
  287      -16.3826859989      -0.0000000733     1.000000    0.00008677
  288      -16.3826860718      -0.0000000729     1.000000    0.00008654
  289      -16.3826861443      -0.0000000726     1.000000    0.00008632
  290      -16.3826862166      -0.0000000722     1.000000    0.00008610
  291      -16.3826862885      -0.0000000719     1.000000    0.00008588
  292      -16.3826863600      -0.0000000716     1.000000    0.00008566
  293      -16.3826864313      -0.0000000712     1.000000    0.00008544
  294      -16.3826865022      -0.0000000709     1.000000    0.00008522
  295      -16.3826865727      -0.0000000706     1.000000    0.00008501
  296      -16.3826866430      -0.0000000702     1.000000    0.00008479
  297      -16.3826867129      -0.0000000699     1.000000    0.00008458
  298      -16.3826867825      -0.0000000696     1.000000    0.00008436
  299      -16.3826868518      -0.0000000693     1.000000    0.00008415
  300      -16.3826869207      -0.0000000690     1.000000    0.00008394
  301      -16.3826869894      -0.0000000687     1.000000    0.00008373
  302      -16.3826870577      -0.0000000683     1.000000    0.00008352
  303      -16.3826871258      -0.0000000680     1.000000    0.00008331
  304      -16.3826871935      -0.0000000677     1.000000    0.00008310
  305      -16.3826872609      -0.0000000674     1.000000    0.00008290
  306      -16.3826873280      -0.0000000671     1.000000    0.00008269
  307      -16.3826873948      -0.0000000668     1.000000    0.00008249
  308      -16.3826874614      -0.0000000665     1.000000    0.00008228
  309      -16.3826875276      -0.0000000662     1.000000    0.00008208
  310      -16.3826875935      -0.0000000659     1.000000    0.00008188
  311      -16.3826876591      -0.0000000656     1.000000    0.00008168
  312      -16.3826877245      -0.0000000653     1.000000    0.00008148
  313      -16.3826877895      -0.0000000651     1.000000    0.00008128
  314      -16.3826878543      -0.0000000648     1.000000    0.00008108
  315      -16.3826879188      -0.0000000645     1.000000    0.00008088
  316      -16.3826879830      -0.0000000642     1.000000    0.00008069
  317      -16.3826880469      -0.0000000639     1.000000    0.00008049
  318      -16.3826881106      -0.0000000636     1.000000    0.00008030
  319      -16.3826881740      -0.0000000634     1.000000    0.00008010
  320      -16.3826882371      -0.0000000631     1.000000    0.00007991
  321      -16.3826882999      -0.0000000628     1.000000    0.00007972
  322      -16.3826883625      -0.0000000626     1.000000    0.00007953
  323      -16.3826884247      -0.0000000623     1.000000    0.00007934
  324      -16.3826884868      -0.0000000620     1.000000    0.00007915
  325      -16.3826885485      -0.0000000618     1.000000    0.00007896
  326      -16.3826886100      -0.0000000615     1.000000    0.00007877
  327      -16.3826886713      -0.0000000612     1.000000    0.00007859
  328      -16.3826887322      -0.0000000610     1.000000    0.00007840
  329      -16.3826887930      -0.0000000607     1.000000    0.00007822
  330      -16.3826888534      -0.0000000605     1.000000    0.00007803
  331      -16.3826889136      -0.0000000602     1.000000    0.00007785
  332      -16.3826889736      -0.0000000600     1.000000    0.00007767
  333      -16.3826890333      -0.0000000597     1.000000    0.00007749
  334      -16.3826890928      -0.0000000595     1.000000    0.00007731
  335      -16.3826891520      -0.0000000592     1.000000    0.00007713
  336      -16.3826892110      -0.0000000590     1.000000    0.00007695
  337      -16.3826892697      -0.0000000587     1.000000    0.00007677
  338      -16.3826893282      -0.0000000585     1.000000    0.00007659
  339      -16.3826893865      -0.0000000583     1.000000    0.00007642
  340      -16.3826894445      -0.0000000580     1.000000    0.00007624
  341      -16.3826895023      -0.0000000578     1.000000    0.00007607
  342      -16.3826895598      -0.0000000575     1.000000    0.00007590
  343      -16.3826896171      -0.0000000573     1.000000    0.00007572
  344      -16.3826896742      -0.0000000571     1.000000    0.00007555
  345      -16.3826897311      -0.0000000569     1.000000    0.00007538
  346      -16.3826897877      -0.0000000566     1.000000    0.00007521
  347      -16.3826898441      -0.0000000564     1.000000    0.00007504
  348      -16.3826899003      -0.0000000562     1.000000    0.00007487
  349      -16.3826899562      -0.0000000560     1.000000    0.00007471
  350      -16.3826900120      -0.0000000557     1.000000    0.00007454
  351      -16.3826900675      -0.0000000555     1.000000    0.00007437
  352      -16.3826901228      -0.0000000553     1.000000    0.00007421
  353      -16.3826901779      -0.0000000551     1.000000    0.00007404
  354      -16.3826902327      -0.0000000549     1.000000    0.00007388
  355      -16.3826902874      -0.0000000547     1.000000    0.00007372
  356      -16.3826903418      -0.0000000544     1.000000    0.00007355
  357      -16.3826903961      -0.0000000542     1.000000    0.00007339
  358      -16.3826904501      -0.0000000540     1.000000    0.00007323
  359      -16.3826905039      -0.0000000538     1.000000    0.00007307
  360      -16.3826905575      -0.0000000536     1.000000    0.00007291
  361      -16.3826906109      -0.0000000534     1.000000    0.00007276
  362      -16.3826906642      -0.0000000532     1.000000    0.00007260
  363      -16.3826907172      -0.0000000530     1.000000    0.00007244
  364      -16.3826907700      -0.0000000528     1.000000    0.00007229
  365      -16.3826908226      -0.0000000526     1.000000    0.00007213
  366      -16.3826908750      -0.0000000524     1.000000    0.00007198
  367      -16.3826909272      -0.0000000522     1.000000    0.00007182
  368      -16.3826909792      -0.0000000520     1.000000    0.00007167
  369      -16.3826910310      -0.0000000518     1.000000    0.00007152
  370      -16.3826910827      -0.0000000516     1.000000    0.00007137
  371      -16.3826911341      -0.0000000514     1.000000    0.00007122
  372      -16.3826911854      -0.0000000513     1.000000    0.00007107
  373      -16.3826912365      -0.0000000511     1.000000    0.00007092
  374      -16.3826912873      -0.0000000509     1.000000    0.00007077
  375      -16.3826913380      -0.0000000507     1.000000    0.00007062
  376      -16.3826913886      -0.0000000505     1.000000    0.00007048
  377      -16.3826914389      -0.0000000503     1.000000    0.00007033
  378      -16.3826914890      -0.0000000502     1.000000    0.00007018
  379      -16.3826915390      -0.0000000500     1.000000    0.00007004
  380      -16.3826915888      -0.0000000498     1.000000    0.00006990
  381      -16.3826916384      -0.0000000496     1.000000    0.00006975
  382      -16.3826916879      -0.0000000494     1.000000    0.00006961
  383      -16.3826917372      -0.0000000493     1.000000    0.00006947
  384      -16.3826917863      -0.0000000491     1.000000    0.00006933
  385      -16.3826918352      -0.0000000489     1.000000    0.00006919
  386      -16.3826918839      -0.0000000488     1.000000    0.00006905
  387      -16.3826919325      -0.0000000486     1.000000    0.00006891
  388      -16.3826919809      -0.0000000484     1.000000    0.00006877
  389      -16.3826920292      -0.0000000483     1.000000    0.00006863
  390      -16.3826920773      -0.0000000481     1.000000    0.00006850
  391      -16.3826921252      -0.0000000479     1.000000    0.00006836
  392      -16.3826921729      -0.0000000478     1.000000    0.00006822
  393      -16.3826922205      -0.0000000476     1.000000    0.00006809
  394      -16.3826922680      -0.0000000474     1.000000    0.00006796
  395      -16.3826923153      -0.0000000473     1.000000    0.00006782
  396      -16.3826923624      -0.0000000471     1.000000    0.00006769
  397      -16.3826924093      -0.0000000470     1.000000    0.00006756
  398      -16.3826924561      -0.0000000468     1.000000    0.00006743
  399      -16.3826925028      -0.0000000466     1.000000    0.00006730
  400      -16.3826925493      -0.0000000465     1.000000    0.00006717
  401      -16.3826925956      -0.0000000463     1.000000    0.00006704
  402      -16.3826926418      -0.0000000462     1.000000    0.00006691
  403      -16.3826926878      -0.0000000460     1.000000    0.00006678
  404      -16.3826927337      -0.0000000459     1.000000    0.00006665
  405      -16.3826927795      -0.0000000457     1.000000    0.00006653
  406      -16.3826928251      -0.0000000456     1.000000    0.00006640
  407      -16.3826928705      -0.0000000454     1.000000    0.00006627
  408      -16.3826929158      -0.0000000453     1.000000    0.00006615
  409      -16.3826929610      -0.0000000452     1.000000    0.00006603
  410      -16.3826930060      -0.0000000450     1.000000    0.00006590
  411      -16.3826930508      -0.0000000449     1.000000    0.00006578
  412      -16.3826930956      -0.0000000447     1.000000    0.00006566
  413      -16.3826931401      -0.0000000446     1.000000    0.00006554
  414      -16.3826931846      -0.0000000444     1.000000    0.00006541
  415      -16.3826932289      -0.0000000443     1.000000    0.00006529
  416      -16.3826932731      -0.0000000442     1.000000    0.00006517
  417      -16.3826933171      -0.0000000440     1.000000    0.00006506
  418      -16.3826933610      -0.0000000439     1.000000    0.00006494
  419      -16.3826934048      -0.0000000438     1.000000    0.00006482
  420      -16.3826934484      -0.0000000436     1.000000    0.00006470
  421      -16.3826934919      -0.0000000435     1.000000    0.00006459
  422      -16.3826935353      -0.0000000434     1.000000    0.00006447
  423      -16.3826935785      -0.0000000432     1.000000    0.00006435
  424      -16.3826936217      -0.0000000431     1.000000    0.00006424
  425      -16.3826936646      -0.0000000430     1.000000    0.00006413
  426      -16.3826937075      -0.0000000429     1.000000    0.00006401
  427      -16.3826937502      -0.0000000427     1.000000    0.00006390
  428      -16.3826937928      -0.0000000426     1.000000    0.00006379
  429      -16.3826938353      -0.0000000425     1.000000    0.00006368
  430      -16.3826938777      -0.0000000424     1.000000    0.00006356
  431      -16.3826939199      -0.0000000422     1.000000    0.00006345
  432      -16.3826939620      -0.0000000421     1.000000    0.00006334
  433      -16.3826940040      -0.0000000420     1.000000    0.00006324
  434      -16.3826940459      -0.0000000419     1.000000    0.00006313
  435      -16.3826940876      -0.0000000418     1.000000    0.00006302
  436      -16.3826941293      -0.0000000416     1.000000    0.00006291
  437      -16.3826941708      -0.0000000415     1.000000    0.00006280
  438      -16.3826942122      -0.0000000414     1.000000    0.00006270
  439      -16.3826942535      -0.0000000413     1.000000    0.00006259
  440      -16.3826942947      -0.0000000412     1.000000    0.00006249
  441      -16.3826943357      -0.0000000411     1.000000    0.00006238
  442      -16.3826943767      -0.0000000409     1.000000    0.00006228
  443      -16.3826944175      -0.0000000408     1.000000    0.00006217
  444      -16.3826944582      -0.0000000407     1.000000    0.00006207
  445      -16.3826944988      -0.0000000406     1.000000    0.00006197
  446      -16.3826945393      -0.0000000405     1.000000    0.00006187
  447      -16.3826945797      -0.0000000404     1.000000    0.00006177
  448      -16.3826946200      -0.0000000403     1.000000    0.00006167
  449      -16.3826946602      -0.0000000402     1.000000    0.00006157
  450      -16.3826947003      -0.0000000401     1.000000    0.00006147
  451      -16.3826947402      -0.0000000400     1.000000    0.00006137
  452      -16.3826947801      -0.0000000399     1.000000    0.00006127
  453      -16.3826948199      -0.0000000398     1.000000    0.00006117
  454      -16.3826948595      -0.0000000397     1.000000    0.00006107
  455      -16.3826948991      -0.0000000396     1.000000    0.00006098
  456      -16.3826949385      -0.0000000395     1.000000    0.00006088
  457      -16.3826949779      -0.0000000394     1.000000    0.00006078
  458      -16.3826950171      -0.0000000393     1.000000    0.00006069
  459      -16.3826950563      -0.0000000392     1.000000    0.00006059
  460      -16.3826950953      -0.0000000391     1.000000    0.00006050
  461      -16.3826951343      -0.0000000390     1.000000    0.00006041
  462      -16.3826951732      -0.0000000389     1.000000    0.00006031
  463      -16.3826952119      -0.0000000388     1.000000    0.00006022
  464      -16.3826952506      -0.0000000387     1.000000    0.00006013
  465      -16.3826952892      -0.0000000386     1.000000    0.00006004
  466      -16.3826953277      -0.0000000385     1.000000    0.00005995
  467      -16.3826953661      -0.0000000384     1.000000    0.00005986
  468      -16.3826954044      -0.0000000383     1.000000    0.00005977
  469      -16.3826954426      -0.0000000382     1.000000    0.00005968
  470      -16.3826954807      -0.0000000381     1.000000    0.00005959
  471      -16.3826955187      -0.0000000380     1.000000    0.00005950
  472      -16.3826955566      -0.0000000379     1.000000    0.00005941
  473      -16.3826955945      -0.0000000378     1.000000    0.00005933
  474      -16.3826956323      -0.0000000378     1.000000    0.00005924
  475      -16.3826956699      -0.0000000377     1.000000    0.00005915
  476      -16.3826957075      -0.0000000376     1.000000    0.00005907
  477      -16.3826957450      -0.0000000375     1.000000    0.00005898
  478      -16.3826957824      -0.0000000374     1.000000    0.00005890
  479      -16.3826958198      -0.0000000373     1.000000    0.00005881
  480      -16.3826958570      -0.0000000373     1.000000    0.00005873
  481      -16.3826958942      -0.0000000372     1.000000    0.00005865
  482      -16.3826959313      -0.0000000371     1.000000    0.00005856
  483      -16.3826959683      -0.0000000370     1.000000    0.00005848
  484      -16.3826960052      -0.0000000369     1.000000    0.00005840
  485      -16.3826960420      -0.0000000368     1.000000    0.00005832
  486      -16.3826960788      -0.0000000368     1.000000    0.00005824
  487      -16.3826961155      -0.0000000367     1.000000    0.00005816
  488      -16.3826961521      -0.0000000366     1.000000    0.00005808
  489      -16.3826961886      -0.0000000365     1.000000    0.00005800
  490      -16.3826962251      -0.0000000365     1.000000    0.00005792
  491      -16.3826962615      -0.0000000364     1.000000    0.00005784
  492      -16.3826962978      -0.0000000363     1.000000    0.00005776
  493      -16.3826963340      -0.0000000362     1.000000    0.00005769
  494      -16.3826963701      -0.0000000362     1.000000    0.00005761
  495      -16.3826964062      -0.0000000361     1.000000    0.00005753
  496      -16.3826964422      -0.0000000360     1.000000    0.00005746
  497      -16.3826964782      -0.0000000359     1.000000    0.00005738
  498      -16.3826965140      -0.0000000359     1.000000    0.00005731
  499      -16.3826965498      -0.0000000358     1.000000    0.00005723
  500      -16.3826965855      -0.0000000357     1.000000    0.00005716
  501      -16.3826966212      -0.0000000357     1.000000    0.00005708
  502      -16.3826966568      -0.0000000356     1.000000    0.00005701
  503      -16.3826966923      -0.0000000355     1.000000    0.00005694
  504      -16.3826967277      -0.0000000354     1.000000    0.00005687
  505      -16.3826967631      -0.0000000354     1.000000    0.00005680
  506      -16.3826967984      -0.0000000353     1.000000    0.00005672
  507      -16.3826968337      -0.0000000352     1.000000    0.00005665
  508      -16.3826968689      -0.0000000352     1.000000    0.00005658
  509      -16.3826969040      -0.0000000351     1.000000    0.00005651
  510      -16.3826969390      -0.0000000351     1.000000    0.00005644
  511      -16.3826969740      -0.0000000350     1.000000    0.00005638
  512      -16.3826970090      -0.0000000349     1.000000    0.00005631
  513      -16.3826970438      -0.0000000349     1.000000    0.00005624
  514      -16.3826970786      -0.0000000348     1.000000    0.00005617
  515      -16.3826971134      -0.0000000347     1.000000    0.00005610
  516      -16.3826971481      -0.0000000347     1.000000    0.00005604
  517      -16.3826971827      -0.0000000346     1.000000    0.00005597
  518      -16.3826972173      -0.0000000346     1.000000    0.00005591
  519      -16.3826972518      -0.0000000345     1.000000    0.00005584
  520      -16.3826972862      -0.0000000344     1.000000    0.00005578
  521      -16.3826973206      -0.0000000344     1.000000    0.00005571
  522      -16.3826973549      -0.0000000343     1.000000    0.00005565
  523      -16.3826973892      -0.0000000343     1.000000    0.00005558
  524      -16.3826974234      -0.0000000342     1.000000    0.00005552
  525      -16.3826974576      -0.0000000342     1.000000    0.00005546
  526      -16.3826974917      -0.0000000341     1.000000    0.00005540
  527      -16.3826975258      -0.0000000341     1.000000    0.00005533
  528      -16.3826975598      -0.0000000340     1.000000    0.00005527
  529      -16.3826975937      -0.0000000340     1.000000    0.00005521
  530      -16.3826976276      -0.0000000339     1.000000    0.00005515
  531      -16.3826976615      -0.0000000338     1.000000    0.00005509
  532      -16.3826976953      -0.0000000338     1.000000    0.00005503
  533      -16.3826977290      -0.0000000337     1.000000    0.00005497
  534      -16.3826977627      -0.0000000337     1.000000    0.00005491
  535      -16.3826977963      -0.0000000336     1.000000    0.00005486
  536      -16.3826978299      -0.0000000336     1.000000    0.00005480
  537      -16.3826978635      -0.0000000335     1.000000    0.00005474
  538      -16.3826978970      -0.0000000335     1.000000    0.00005468
  539      -16.3826979304      -0.0000000335     1.000000    0.00005463
  540      -16.3826979638      -0.0000000334     1.000000    0.00005457
  541      -16.3826979972      -0.0000000334     1.000000    0.00005452
  542      -16.3826980305      -0.0000000333     1.000000    0.00005446
  543      -16.3826980638      -0.0000000333     1.000000    0.00005441
  544      -16.3826980970      -0.0000000332     1.000000    0.00005435
  545      -16.3826981302      -0.0000000332     1.000000    0.00005430
  546      -16.3826981633      -0.0000000331     1.000000    0.00005424
  547      -16.3826981964      -0.0000000331     1.000000    0.00005419
  548      -16.3826982295      -0.0000000330     1.000000    0.00005414
  549      -16.3826982625      -0.0000000330     1.000000    0.00005409
  550      -16.3826982954      -0.0000000330     1.000000    0.00005403
  551      -16.3826983284      -0.0000000329     1.000000    0.00005398
  552      -16.3826983612      -0.0000000329     1.000000    0.00005393
  553      -16.3826983941      -0.0000000328     1.000000    0.00005388
  554      -16.3826984269      -0.0000000328     1.000000    0.00005383
  555      -16.3826984597      -0.0000000328     1.000000    0.00005378
  556      -16.3826984924      -0.0000000327     1.000000    0.00005373
  557      -16.3826985251      -0.0000000327     1.000000    0.00005368
  558      -16.3826985577      -0.0000000327     1.000000    0.00005363
  559      -16.3826985903      -0.0000000326     1.000000    0.00005359
  560      -16.3826986229      -0.0000000326     1.000000    0.00005354
  561      -16.3826986555      -0.0000000325     1.000000    0.00005349
  562      -16.3826986880      -0.0000000325     1.000000    0.00005344
  563      -16.3826987204      -0.0000000325     1.000000    0.00005340
  564      -16.3826987529      -0.0000000324     1.000000    0.00005335
  565      -16.3826987853      -0.0000000324     1.000000    0.00005331
  566      -16.3826988177      -0.0000000324     1.000000    0.00005326
  567      -16.3826988500      -0.0000000323     1.000000    0.00005322
  568      -16.3826988823      -0.0000000323     1.000000    0.00005317
  569      -16.3826989146      -0.0000000323     1.000000    0.00005313
  570      -16.3826989468      -0.0000000322     1.000000    0.00005308
  571      -16.3826989790      -0.0000000322     1.000000    0.00005304
  572      -16.3826990112      -0.0000000322     1.000000    0.00005300
  573      -16.3826990434      -0.0000000322     1.000000    0.00005295
  574      -16.3826990755      -0.0000000321     1.000000    0.00005291
  575      -16.3826991076      -0.0000000321     1.000000    0.00005287
  576      -16.3826991397      -0.0000000321     1.000000    0.00005283
  577      -16.3826991717      -0.0000000320     1.000000    0.00005279
  578      -16.3826992037      -0.0000000320     1.000000    0.00005275
  579      -16.3826992357      -0.0000000320     1.000000    0.00005271
  580      -16.3826992676      -0.0000000320     1.000000    0.00005267
  581      -16.3826992996      -0.0000000319     1.000000    0.00005263
  582      -16.3826993315      -0.0000000319     1.000000    0.00005259
  583      -16.3826993634      -0.0000000319     1.000000    0.00005255
  584      -16.3826993952      -0.0000000319     1.000000    0.00005251
  585      -16.3826994270      -0.0000000318     1.000000    0.00005247
  586      -16.3826994589      -0.0000000318     1.000000    0.00005244
  587      -16.3826994906      -0.0000000318     1.000000    0.00005240
  588      -16.3826995224      -0.0000000318     1.000000    0.00005236
  589      -16.3826995542      -0.0000000317     1.000000    0.00005233
  590      -16.3826995859      -0.0000000317     1.000000    0.00005229
  591      -16.3826996176      -0.0000000317     1.000000    0.00005226
  592      -16.3826996492      -0.0000000317     1.000000    0.00005222
  593      -16.3826996809      -0.0000000317     1.000000    0.00005219
  594      -16.3826997125      -0.0000000316     1.000000    0.00005215
  595      -16.3826997442      -0.0000000316     1.000000    0.00005212
  596      -16.3826997758      -0.0000000316     1.000000    0.00005208
  597      -16.3826998074      -0.0000000316     1.000000    0.00005205
  598      -16.3826998389      -0.0000000316     1.000000    0.00005202
  599      -16.3826998705      -0.0000000315     1.000000    0.00005199
  600      -16.3826999020      -0.0000000315     1.000000    0.00005195
  601      -16.3826999335      -0.0000000315     1.000000    0.00005192
  602      -16.3826999650      -0.0000000315     1.000000    0.00005189
  603      -16.3826999965      -0.0000000315     1.000000    0.00005186
  604      -16.3827000280      -0.0000000315     1.000000    0.00005183
  605      -16.3827000594      -0.0000000315     1.000000    0.00005180
  606      -16.3827000909      -0.0000000314     1.000000    0.00005177
  607      -16.3827001223      -0.0000000314     1.000000    0.00005174
  608      -16.3827001537      -0.0000000314     1.000000    0.00005171
  609      -16.3827001851      -0.0000000314     1.000000    0.00005168
  610      -16.3827002165      -0.0000000314     1.000000    0.00005166
  611      -16.3827002479      -0.0000000314     1.000000    0.00005163
  612      -16.3827002793      -0.0000000314     1.000000    0.00005160
  613      -16.3827003106      -0.0000000314     1.000000    0.00005157
  614      -16.3827003420      -0.0000000313     1.000000    0.00005155
  615      -16.3827003733      -0.0000000313     1.000000    0.00005152
  616      -16.3827004046      -0.0000000313     1.000000    0.00005149
  617      -16.3827004360      -0.0000000313     1.000000    0.00005147
  618      -16.3827004673      -0.0000000313     1.000000    0.00005144
  619      -16.3827004986      -0.0000000313     1.000000    0.00005142
  620      -16.3827005299      -0.0000000313     1.000000    0.00005139
  621      -16.3827005612      -0.0000000313     1.000000    0.00005137
  622      -16.3827005925      -0.0000000313     1.000000    0.00005135
  623      -16.3827006237      -0.0000000313     1.000000    0.00005132
  624      -16.3827006550      -0.0000000313     1.000000    0.00005130
  625      -16.3827006863      -0.0000000313     1.000000    0.00005128
  626      -16.3827007175      -0.0000000313     1.000000    0.00005126
  627      -16.3827007488      -0.0000000313     1.000000    0.00005123
  628      -16.3827007801      -0.0000000313     1.000000    0.00005121
  629      -16.3827008113      -0.0000000313     1.000000    0.00005119
  630      -16.3827008426      -0.0000000313     1.000000    0.00005117
  631      -16.3827008738      -0.0000000313     1.000000    0.00005115
  632      -16.3827009051      -0.0000000313     1.000000    0.00005113
  633      -16.3827009363      -0.0000000313     1.000000    0.00005111
  634      -16.3827009676      -0.0000000313     1.000000    0.00005109
  635      -16.3827009988      -0.0000000313     1.000000    0.00005107
  636      -16.3827010301      -0.0000000313     1.000000    0.00005105
  637      -16.3827010613      -0.0000000313     1.000000    0.00005104
  638      -16.3827010926      -0.0000000313     1.000000    0.00005102
  639      -16.3827011238      -0.0000000313     1.000000    0.00005100
  640      -16.3827011551      -0.0000000313     1.000000    0.00005098
  641      -16.3827011864      -0.0000000313     1.000000    0.00005097
  642      -16.3827012176      -0.0000000313     1.000000    0.00005095
  643      -16.3827012489      -0.0000000313     1.000000    0.00005094
  644      -16.3827012802      -0.0000000313     1.000000    0.00005092
  645      -16.3827013115      -0.0000000313     1.000000    0.00005091
  646      -16.3827013427      -0.0000000313     1.000000    0.00005089
  647      -16.3827013740      -0.0000000313     1.000000    0.00005088
  648      -16.3827014053      -0.0000000313     1.000000    0.00005086
  649      -16.3827014366      -0.0000000313     1.000000    0.00005085
  650      -16.3827014679      -0.0000000313     1.000000    0.00005084
  651      -16.3827014993      -0.0000000313     1.000000    0.00005082
  652      -16.3827015306      -0.0000000313     1.000000    0.00005081
  653      -16.3827015619      -0.0000000313     1.000000    0.00005080
  654      -16.3827015933      -0.0000000313     1.000000    0.00005079
  655      -16.3827016246      -0.0000000314     1.000000    0.00005078
  656      -16.3827016560      -0.0000000314     1.000000    0.00005077
  657      -16.3827016874      -0.0000000314     1.000000    0.00005075
  658      -16.3827017188      -0.0000000314     1.000000    0.00005074
  659      -16.3827017502      -0.0000000314     1.000000    0.00005073
  660      -16.3827017816      -0.0000000314     1.000000    0.00005073
  661      -16.3827018130      -0.0000000314     1.000000    0.00005072
  662      -16.3827018444      -0.0000000314     1.000000    0.00005071
  663      -16.3827018759      -0.0000000315     1.000000    0.00005070
  664      -16.3827019074      -0.0000000315     1.000000    0.00005069
  665      -16.3827019389      -0.0000000315     1.000000    0.00005068
  666      -16.3827019704      -0.0000000315     1.000000    0.00005068
  667      -16.3827020019      -0.0000000315     1.000000    0.00005067
  668      -16.3827020334      -0.0000000315     1.000000    0.00005066
  669      -16.3827020650      -0.0000000315     1.000000    0.00005066
  670      -16.3827020965      -0.0000000316     1.000000    0.00005065
  671      -16.3827021281      -0.0000000316     1.000000    0.00005065
  672      -16.3827021597      -0.0000000316     1.000000    0.00005064
  673      -16.3827021913      -0.0000000316     1.000000    0.00005064
  674      -16.3827022230      -0.0000000316     1.000000    0.00005063
  675      -16.3827022546      -0.0000000317     1.000000    0.00005063
  676      -16.3827022863      -0.0000000317     1.000000    0.00005063
  677      -16.3827023180      -0.0000000317     1.000000    0.00005062
  678      -16.3827023498      -0.0000000317     1.000000    0.00005062
  679      -16.3827023815      -0.0000000318     1.000000    0.00005062
  680      -16.3827024133      -0.0000000318     1.000000    0.00005062
  681      -16.3827024451      -0.0000000318     1.000000    0.00005061
  682      -16.3827024769      -0.0000000318     1.000000    0.00005061
  683      -16.3827025088      -0.0000000318     1.000000    0.00005061
  684      -16.3827025406      -0.0000000319     1.000000    0.00005061
  685      -16.3827025725      -0.0000000319     1.000000    0.00005061
  686      -16.3827026044      -0.0000000319     1.000000    0.00005061
  687      -16.3827026364      -0.0000000320     1.000000    0.00005061
  688      -16.3827026684      -0.0000000320     1.000000    0.00005062
  689      -16.3827027004      -0.0000000320     1.000000    0.00005062
  690      -16.3827027324      -0.0000000320     1.000000    0.00005062
  691      -16.3827027645      -0.0000000321     1.000000    0.00005062
  692      -16.3827027966      -0.0000000321     1.000000    0.00005062
  693      -16.3827028287      -0.0000000321     1.000000    0.00005063
  694      -16.3827028608      -0.0000000322     1.000000    0.00005063
  695      -16.3827028930      -0.0000000322     1.000000    0.00005063
  696      -16.3827029252      -0.0000000322     1.000000    0.00005064
  697      -16.3827029575      -0.0000000322     1.000000    0.00005064
  698      -16.3827029898      -0.0000000323     1.000000    0.00005065
  699      -16.3827030221      -0.0000000323     1.000000    0.00005065
  700      -16.3827030544      -0.0000000324     1.000000    0.00005066
  701      -16.3827030868      -0.0000000324     1.000000    0.00005067
  702      -16.3827031192      -0.0000000324     1.000000    0.00005067
  703      -16.3827031517      -0.0000000325     1.000000    0.00005068
  704      -16.3827031842      -0.0000000325     1.000000    0.00005069
  705      -16.3827032167      -0.0000000325     1.000000    0.00005069
  706      -16.3827032493      -0.0000000326     1.000000    0.00005070
  707      -16.3827032819      -0.0000000326     1.000000    0.00005071
  708      -16.3827033146      -0.0000000326     1.000000    0.00005072
  709      -16.3827033472      -0.0000000327     1.000000    0.00005073
  710      -16.3827033800      -0.0000000327     1.000000    0.00005074
  711      -16.3827034127      -0.0000000328     1.000000    0.00005075
  712      -16.3827034455      -0.0000000328     1.000000    0.00005076
  713      -16.3827034784      -0.0000000329     1.000000    0.00005077
  714      -16.3827035113      -0.0000000329     1.000000    0.00005078
  715      -16.3827035442      -0.0000000329     1.000000    0.00005079
  716      -16.3827035772      -0.0000000330     1.000000    0.00005081
  717      -16.3827036102      -0.0000000330     1.000000    0.00005082
  718      -16.3827036433      -0.0000000331     1.000000    0.00005083
  719      -16.3827036764      -0.0000000331     1.000000    0.00005085
  720      -16.3827037096      -0.0000000332     1.000000    0.00005086
  721      -16.3827037428      -0.0000000332     1.000000    0.00005087
  722      -16.3827037760      -0.0000000333     1.000000    0.00005089
  723      -16.3827038094      -0.0000000333     1.000000    0.00005090
  724      -16.3827038427      -0.0000000334     1.000000    0.00005092
  725      -16.3827038761      -0.0000000334     1.000000    0.00005093
  726      -16.3827039096      -0.0000000335     1.000000    0.00005095
  727      -16.3827039431      -0.0000000335     1.000000    0.00005097
  728      -16.3827039766      -0.0000000336     1.000000    0.00005098
  729      -16.3827040103      -0.0000000336     1.000000    0.00005100
  730      -16.3827040439      -0.0000000337     1.000000    0.00005102
  731      -16.3827040776      -0.0000000337     1.000000    0.00005104
  732      -16.3827041114      -0.0000000338     1.000000    0.00005106
  733      -16.3827041452      -0.0000000338     1.000000    0.00005108
  734      -16.3827041791      -0.0000000339     1.000000    0.00005109
  735      -16.3827042131      -0.0000000339     1.000000    0.00005111
  736      -16.3827042471      -0.0000000340     1.000000    0.00005113
  737      -16.3827042811      -0.0000000341     1.000000    0.00005116
  738      -16.3827043152      -0.0000000341     1.000000    0.00005118
  739      -16.3827043494      -0.0000000342     1.000000    0.00005120
  740      -16.3827043837      -0.0000000342     1.000000    0.00005122
  741      -16.3827044180      -0.0000000343     1.000000    0.00005124
  742      -16.3827044523      -0.0000000344     1.000000    0.00005127
  743      -16.3827044867      -0.0000000344     1.000000    0.00005129
  744      -16.3827045212      -0.0000000345     1.000000    0.00005131
  745      -16.3827045558      -0.0000000346     1.000000    0.00005134
  746      -16.3827045904      -0.0000000346     1.000000    0.00005136
  747      -16.3827046251      -0.0000000347     1.000000    0.00005139
  748      -16.3827046598      -0.0000000347     1.000000    0.00005141
  749      -16.3827046946      -0.0000000348     1.000000    0.00005144
  750      -16.3827047295      -0.0000000349     1.000000    0.00005146
  751      -16.3827047645      -0.0000000350     1.000000    0.00005149
  752      -16.3827047995      -0.0000000350     1.000000    0.00005152
  753      -16.3827048346      -0.0000000351     1.000000    0.00005155
  754      -16.3827048697      -0.0000000352     1.000000    0.00005157
  755      -16.3827049050      -0.0000000352     1.000000    0.00005160
  756      -16.3827049403      -0.0000000353     1.000000    0.00005163
  757      -16.3827049757      -0.0000000354     1.000000    0.00005166
  758      -16.3827050111      -0.0000000355     1.000000    0.00005169
  759      -16.3827050466      -0.0000000355     1.000000    0.00005172
  760      -16.3827050822      -0.0000000356     1.000000    0.00005175
  761      -16.3827051179      -0.0000000357     1.000000    0.00005178
  762      -16.3827051537      -0.0000000358     1.000000    0.00005182
  763      -16.3827051895      -0.0000000358     1.000000    0.00005185
  764      -16.3827052254      -0.0000000359     1.000000    0.00005188
  765      -16.3827052614      -0.0000000360     1.000000    0.00005191
  766      -16.3827052975      -0.0000000361     1.000000    0.00005195
  767      -16.3827053337      -0.0000000362     1.000000    0.00005198
  768      -16.3827053699      -0.0000000362     1.000000    0.00005201
  769      -16.3827054063      -0.0000000363     1.000000    0.00005205
  770      -16.3827054427      -0.0000000364     1.000000    0.00005209
  771      -16.3827054792      -0.0000000365     1.000000    0.00005212
  772      -16.3827055158      -0.0000000366     1.000000    0.00005216
  773      -16.3827055524      -0.0000000367     1.000000    0.00005219
  774      -16.3827055892      -0.0000000368     1.000000    0.00005223
  775      -16.3827056260      -0.0000000369     1.000000    0.00005227
  776      -16.3827056630      -0.0000000369     1.000000    0.00005231
  777      -16.3827057000      -0.0000000370     1.000000    0.00005235
  778      -16.3827057371      -0.0000000371     1.000000    0.00005238
  779      -16.3827057744      -0.0000000372     1.000000    0.00005242
  780      -16.3827058117      -0.0000000373     1.000000    0.00005246
  781      -16.3827058491      -0.0000000374     1.000000    0.00005251
  782      -16.3827058866      -0.0000000375     1.000000    0.00005255
  783      -16.3827059242      -0.0000000376     1.000000    0.00005259
  784      -16.3827059619      -0.0000000377     1.000000    0.00005263
  785      -16.3827059997      -0.0000000378     1.000000    0.00005267
  786      -16.3827060376      -0.0000000379     1.000000    0.00005272
  787      -16.3827060756      -0.0000000380     1.000000    0.00005276
  788      -16.3827061137      -0.0000000381     1.000000    0.00005280
  789      -16.3827061519      -0.0000000382     1.000000    0.00005285
  790      -16.3827061902      -0.0000000383     1.000000    0.00005289
  791      -16.3827062286      -0.0000000384     1.000000    0.00005294
  792      -16.3827062671      -0.0000000385     1.000000    0.00005298
  793      -16.3827063058      -0.0000000386     1.000000    0.00005303
  794      -16.3827063445      -0.0000000387     1.000000    0.00005308
  795      -16.3827063834      -0.0000000388     1.000000    0.00005312
  796      -16.3827064223      -0.0000000390     1.000000    0.00005317
  797      -16.3827064614      -0.0000000391     1.000000    0.00005322
  798      -16.3827065006      -0.0000000392     1.000000    0.00005327
  799      -16.3827065399      -0.0000000393     1.000000    0.00005332
  800      -16.3827065793      -0.0000000394     1.000000    0.00005337
  801      -16.3827066188      -0.0000000395     1.000000    0.00005342
  802      -16.3827066585      -0.0000000396     1.000000    0.00005347
  803      -16.3827066982      -0.0000000398     1.000000    0.00005352
  804      -16.3827067381      -0.0000000399     1.000000    0.00005358
  805      -16.3827067781      -0.0000000400     1.000000    0.00005363
  806      -16.3827068183      -0.0000000401     1.000000    0.00005368
  807      -16.3827068585      -0.0000000403     1.000000    0.00005374
  808      -16.3827068989      -0.0000000404     1.000000    0.00005379
  809      -16.3827069394      -0.0000000405     1.000000    0.00005384
  810      -16.3827069800      -0.0000000406     1.000000    0.00005390
  811      -16.3827070208      -0.0000000408     1.000000    0.00005396
  812      -16.3827070617      -0.0000000409     1.000000    0.00005401
  813      -16.3827071027      -0.0000000410     1.000000    0.00005407
  814      -16.3827071439      -0.0000000412     1.000000    0.00005413
  815      -16.3827071852      -0.0000000413     1.000000    0.00005419
  816      -16.3827072266      -0.0000000414     1.000000    0.00005424
  817      -16.3827072682      -0.0000000416     1.000000    0.00005430
  818      -16.3827073099      -0.0000000417     1.000000    0.00005436
  819      -16.3827073517      -0.0000000418     1.000000    0.00005442
  820      -16.3827073937      -0.0000000420     1.000000    0.00005449
  821      -16.3827074358      -0.0000000421     1.000000    0.00005455
  822      -16.3827074781      -0.0000000423     1.000000    0.00005461
  823      -16.3827075205      -0.0000000424     1.000000    0.00005467
  824      -16.3827075631      -0.0000000426     1.000000    0.00005474
  825      -16.3827076058      -0.0000000427     1.000000    0.00005480
  826      -16.3827076486      -0.0000000429     1.000000    0.00005486
  827      -16.3827076917      -0.0000000430     1.000000    0.00005493
  828      -16.3827077348      -0.0000000432     1.000000    0.00005499
  829      -16.3827077781      -0.0000000433     1.000000    0.00005506
  830      -16.3827078216      -0.0000000435     1.000000    0.00005513
  831      -16.3827078652      -0.0000000436     1.000000    0.00005525
  832      -16.3827079090      -0.0000000438     1.000000    0.00005540
  833      -16.3827079530      -0.0000000440     1.000000    0.00005555
  834      -16.3827079971      -0.0000000441     1.000000    0.00005571
  835      -16.3827080414      -0.0000000443     1.000000    0.00005587
  836      -16.3827080858      -0.0000000444     1.000000    0.00005602
  837      -16.3827081304      -0.0000000446     1.000000    0.00005618
  838      -16.3827081752      -0.0000000448     1.000000    0.00005634
  839      -16.3827082201      -0.0000000449     1.000000    0.00005650
  840      -16.3827082653      -0.0000000451     1.000000    0.00005667
  841      -16.3827083106      -0.0000000453     1.000000    0.00005683
  842      -16.3827083560      -0.0000000455     1.000000    0.00005699
  843      -16.3827084017      -0.0000000456     1.000000    0.00005716
  844      -16.3827084475      -0.0000000458     1.000000    0.00005733
  845      -16.3827084935      -0.0000000460     1.000000    0.00005749
  846      -16.3827085397      -0.0000000462     1.000000    0.00005766
  847      -16.3827085861      -0.0000000464     1.000000    0.00005783
  848      -16.3827086326      -0.0000000466     1.000000    0.00005800
  849      -16.3827086794      -0.0000000467     1.000000    0.00005818
  850      -16.3827087263      -0.0000000469     1.000000    0.00005835
  851      -16.3827087734      -0.0000000471     1.000000    0.00005853
  852      -16.3827088207      -0.0000000473     1.000000    0.00005870
  853      -16.3827088683      -0.0000000475     1.000000    0.00005888
  854      -16.3827089160      -0.0000000477     1.000000    0.00005906
  855      -16.3827089639      -0.0000000479     1.000000    0.00005924
  856      -16.3827090120      -0.0000000481     1.000000    0.00005942
  857      -16.3827090603      -0.0000000483     1.000000    0.00005960
  858      -16.3827091088      -0.0000000485     1.000000    0.00005979
  859      -16.3827091576      -0.0000000487     1.000000    0.00005997
  860      -16.3827092065      -0.0000000489     1.000000    0.00006016
  861      -16.3827092557      -0.0000000492     1.000000    0.00006035
  862      -16.3827093050      -0.0000000494     1.000000    0.00006054
  863      -16.3827093546      -0.0000000496     1.000000    0.00006073
  864      -16.3827094044      -0.0000000498     1.000000    0.00006092
  865      -16.3827094544      -0.0000000500     1.000000    0.00006112
  866      -16.3827095047      -0.0000000502     1.000000    0.00006131
  867      -16.3827095552      -0.0000000505     1.000000    0.00006151
  868      -16.3827096059      -0.0000000507     1.000000    0.00006171
  869      -16.3827096568      -0.0000000509     1.000000    0.00006191
  870      -16.3827097080      -0.0000000512     1.000000    0.00006211
  871      -16.3827097594      -0.0000000514     1.000000    0.00006231
  872      -16.3827098110      -0.0000000516     1.000000    0.00006251
  873      -16.3827098629      -0.0000000519     1.000000    0.00006272
  874      -16.3827099150      -0.0000000521     1.000000    0.00006293
  875      -16.3827099673      -0.0000000524     1.000000    0.00006314
  876      -16.3827100199      -0.0000000526     1.000000    0.00006335
  877      -16.3827100728      -0.0000000529     1.000000    0.00006356
  878      -16.3827101259      -0.0000000531     1.000000    0.00006377
  879      -16.3827101793      -0.0000000534     1.000000    0.00006398
  880      -16.3827102329      -0.0000000536     1.000000    0.00006420
  881      -16.3827102868      -0.0000000539     1.000000    0.00006442
  882      -16.3827103409      -0.0000000541     1.000000    0.00006464
  883      -16.3827103953      -0.0000000544     1.000000    0.00006486
  884      -16.3827104500      -0.0000000547     1.000000    0.00006508
  885      -16.3827105049      -0.0000000549     1.000000    0.00006531
  886      -16.3827105601      -0.0000000552     1.000000    0.00006553
  887      -16.3827106156      -0.0000000555     1.000000    0.00006576
  888      -16.3827106714      -0.0000000558     1.000000    0.00006599
  889      -16.3827107275      -0.0000000561     1.000000    0.00006622
  890      -16.3827107838      -0.0000000563     1.000000    0.00006646
  891      -16.3827108405      -0.0000000566     1.000000    0.00006669
  892      -16.3827108974      -0.0000000569     1.000000    0.00006693
  893      -16.3827109546      -0.0000000572     1.000000    0.00006717
  894      -16.3827110121      -0.0000000575     1.000000    0.00006741
  895      -16.3827110699      -0.0000000578     1.000000    0.00006765
  896      -16.3827111280      -0.0000000581     1.000000    0.00006790
  897      -16.3827111865      -0.0000000584     1.000000    0.00006814
  898      -16.3827112452      -0.0000000587     1.000000    0.00006839
  899      -16.3827113043      -0.0000000591     1.000000    0.00006864
  900      -16.3827113636      -0.0000000594     1.000000    0.00006889
  901      -16.3827114233      -0.0000000597     1.000000    0.00006915
  902      -16.3827114833      -0.0000000600     1.000000    0.00006940
  903      -16.3827115437      -0.0000000603     1.000000    0.00006966
  904      -16.3827116044      -0.0000000607     1.000000    0.00006992
  905      -16.3827116654      -0.0000000610     1.000000    0.00007018
  906      -16.3827117267      -0.0000000613     1.000000    0.00007045
  907      -16.3827117884      -0.0000000617     1.000000    0.00007071
  908      -16.3827118504      -0.0000000620     1.000000    0.00007098
  909      -16.3827119128      -0.0000000624     1.000000    0.00007125
  910      -16.3827119756      -0.0000000627     1.000000    0.00007152
  911      -16.3827120387      -0.0000000631     1.000000    0.00007180
  912      -16.3827121021      -0.0000000635     1.000000    0.00007207
  913      -16.3827121659      -0.0000000638     1.000000    0.00007235
  914      -16.3827122301      -0.0000000642     1.000000    0.00007263
  915      -16.3827122947      -0.0000000646     1.000000    0.00007292
  916      -16.3827123596      -0.0000000649     1.000000    0.00007320
  917      -16.3827124249      -0.0000000653     1.000000    0.00007349
  918      -16.3827124906      -0.0000000657     1.000000    0.00007378
  919      -16.3827125567      -0.0000000661     1.000000    0.00007408
  920      -16.3827126232      -0.0000000665     1.000000    0.00007437
  921      -16.3827126901      -0.0000000669     1.000000    0.00007467
  922      -16.3827127574      -0.0000000673     1.000000    0.00007497
  923      -16.3827128251      -0.0000000677     1.000000    0.00007527
  924      -16.3827128932      -0.0000000681     1.000000    0.00007558
  925      -16.3827129618      -0.0000000685     1.000000    0.00007588
  926      -16.3827130307      -0.0000000690     1.000000    0.00007619
  927      -16.3827131001      -0.0000000694     1.000000    0.00007651
  928      -16.3827131699      -0.0000000698     1.000000    0.00007682
  929      -16.3827132402      -0.0000000702     1.000000    0.00007714
  930      -16.3827133109      -0.0000000707     1.000000    0.00007746
  931      -16.3827133820      -0.0000000711     1.000000    0.00007778
  932      -16.3827134536      -0.0000000716     1.000000    0.00007811
  933      -16.3827135256      -0.0000000720     1.000000    0.00007844
  934      -16.3827135981      -0.0000000725     1.000000    0.00007877
  935      -16.3827136711      -0.0000000730     1.000000    0.00007910
  936      -16.3827137445      -0.0000000734     1.000000    0.00007944
  937      -16.3827138185      -0.0000000739     1.000000    0.00007978
  938      -16.3827138929      -0.0000000744     1.000000    0.00008012
  939      -16.3827139678      -0.0000000749     1.000000    0.00008046
  940      -16.3827140432      -0.0000000754     1.000000    0.00008081
  941      -16.3827141191      -0.0000000759     1.000000    0.00008116
  942      -16.3827141955      -0.0000000764     1.000000    0.00008152
  943      -16.3827142724      -0.0000000769     1.000000    0.00008187
  944      -16.3827143498      -0.0000000774     1.000000    0.00008224
  945      -16.3827144278      -0.0000000780     1.000000    0.00008260
  946      -16.3827145062      -0.0000000785     1.000000    0.00008296
  947      -16.3827145853      -0.0000000790     1.000000    0.00008333
  948      -16.3827146648      -0.0000000796     1.000000    0.00008371
  949      -16.3827147450      -0.0000000801     1.000000    0.00008408
  950      -16.3827148256      -0.0000000807     1.000000    0.00008446
  951      -16.3827149069      -0.0000000812     1.000000    0.00008485
  952      -16.3827149887      -0.0000000818     1.000000    0.00008523
  953      -16.3827150711      -0.0000000824     1.000000    0.00008562
  954      -16.3827151541      -0.0000000830     1.000000    0.00008601
  955      -16.3827152376      -0.0000000836     1.000000    0.00008641
  956      -16.3827153218      -0.0000000842     1.000000    0.00008681
  957      -16.3827154066      -0.0000000848     1.000000    0.00008721
  958      -16.3827154920      -0.0000000854     1.000000    0.00008762
  959      -16.3827155780      -0.0000000860     1.000000    0.00008803
  960      -16.3827156646      -0.0000000866     1.000000    0.00008845
  961      -16.3827157519      -0.0000000873     1.000000    0.00008886
  962      -16.3827158398      -0.0000000879     1.000000    0.00008928
  963      -16.3827159284      -0.0000000886     1.000000    0.00008971
  964      -16.3827160176      -0.0000000892     1.000000    0.00009014
  965      -16.3827161075      -0.0000000899     1.000000    0.00009057
  966      -16.3827161981      -0.0000000906     1.000000    0.00009101
  967      -16.3827162894      -0.0000000913     1.000000    0.00009145
  968      -16.3827163814      -0.0000000920     1.000000    0.00009190
  969      -16.3827164740      -0.0000000927     1.000000    0.00009235
  970      -16.3827165674      -0.0000000934     1.000000    0.00009280
  971      -16.3827166615      -0.0000000941     1.000000    0.00009326
  972      -16.3827167564      -0.0000000948     1.000000    0.00009372
  973      -16.3827168519      -0.0000000956     1.000000    0.00009418
  974      -16.3827169483      -0.0000000963     1.000000    0.00009465
  975      -16.3827170453      -0.0000000971     1.000000    0.00009513
  976      -16.3827171432      -0.0000000979     1.000000    0.00009561
  977      -16.3827172418      -0.0000000986     1.000000    0.00009609
  978      -16.3827173413      -0.0000000994     1.000000    0.00009658
  979      -16.3827174415      -0.0000001002     1.000000    0.00009707
  980      -16.3827175425      -0.0000001010     1.000000    0.00009757
  981      -16.3827176444      -0.0000001019     1.000000    0.00009807
  982      -16.3827177471      -0.0000001027     1.000000    0.00009858
  983      -16.3827178506      -0.0000001035     1.000000    0.00009909
  984      -16.3827179550      -0.0000001044     1.000000    0.00009961
  985      -16.3827180603      -0.0000001053     1.000000    0.00010013
  986      -16.3827181664      -0.0000001061     1.000000    0.00010065
  987      -16.3827182734      -0.0000001070     1.000000    0.00010119
  988      -16.3827183814      -0.0000001079     1.000000    0.00010172
  989      -16.3827184902      -0.0000001088     1.000000    0.00010226
  990      -16.3827186000      -0.0000001098     1.000000    0.00010281
  991      -16.3827187107      -0.0000001107     1.000000    0.00010336
  992      -16.3827188223      -0.0000001117     1.000000    0.00010392
  993      -16.3827189350      -0.0000001126     1.000000    0.00010448
  994      -16.3827190486      -0.0000001136     1.000000    0.00010505
  995      -16.3827191631      -0.0000001146     1.000000    0.00010563
  996      -16.3827192787      -0.0000001156     1.000000    0.00010621
  997      -16.3827193954      -0.0000001166     1.000000    0.00010679
  998      -16.3827195130      -0.0000001176     1.000000    0.00010739
  999      -16.3827196317      -0.0000001187     1.000000    0.00010798
 1000      -16.3827197515      -0.0000001198     1.000000    0.00010859

Total Energy:                      -16.3827197515 H         -445.7965 eV
Extrapolated to 0:                 -16.3214088625 H         -444.1281 eV

----------------------------------------------------------------------------------
 Solving CP-REKS equation for  1 state vector...
----------------------------------------------------------------------------------
  CG solver: Constructing Y initial guess
  CG solver: Iteration    1    eps =    0.026464076798
  CG solver: Iteration    2    eps =    0.018494803882
  CG solver: Iteration    3    eps =    0.050152406288
  CG solver: Iteration    4    eps =    1.039466709018
  CG solver: Iteration    5    eps =    0.834949012499
  CG solver: Iteration    6    eps =    0.084702742821
  CG solver: Iteration    7    eps =    0.006860108895
  CG solver: Iteration    8    eps =    0.007359325407
  CG solver: Iteration    9    eps =    0.000992716866
  CG solver: Iteration   10    eps =    0.000102529129
  CG solver: Iteration   11    eps =    0.000019997871
  CG solver: Iteration   12    eps =    0.000006051269
  CG solver: Iteration   13    eps =    0.000000496158
  CG solver: Iteration   14    eps =    0.000000050948
  CG solver: Iteration   15    eps =    0.000000004506
  Convergence reached in CG solver after   15 iterations
  CG solver: Calculating converged R, Z, Q2 matrix
----------------------------------------------------------------------------------

----------------------------------------------------------------------------------
 Solving CP-REKS equation for SI between  1 and  2 state vectors...
----------------------------------------------------------------------------------
  CG solver: Constructing Y initial guess
  CG solver: Iteration    1    eps =    0.011951470422
  CG solver: Iteration    2    eps =    0.002172553603
  CG solver: Iteration    3    eps =    0.000162064610
  CG solver: Iteration    4    eps =    0.000322452925
  CG solver: Iteration    5    eps =    0.001044349806
  CG solver: Iteration    6    eps =    0.002828945364
  CG solver: Iteration    7    eps =    0.047630349015
  CG solver: Iteration    8    eps =    0.004438269441
  CG solver: Iteration    9    eps =    0.000443406022
  CG solver: Iteration   10    eps =    0.000072617858
  CG solver: Iteration   11    eps =    0.000007409972
  CG solver: Iteration   12    eps =    0.000000659836
  CG solver: Iteration   13    eps =    0.000000067652
  CG solver: Iteration   14    eps =    0.000000011202
  CG solver: Iteration   15    eps =    0.000000001575
  Convergence reached in CG solver after   15 iterations
  CG solver: Calculating converged R, Z, Q2 matrix
----------------------------------------------------------------------------------

--------------------------------------------------
 Gradient Information
--------------------------------------------------
           1 st state (SSR)
     0.00000000     0.00000000     0.00000000
     0.00000000     0.00000000     0.00000000
     0.00000000     0.00000000     0.00000000
     0.00000000     0.00000000     0.00000000
     0.00000000     0.00000000     0.00000000
     0.00000000     0.00000000     0.00000000
     0.00000000     0.00000000     0.00000000
     0.00000000     0.00000000     0.00000000
     0.00000000     0.00000000     0.00000000
     0.00000000     0.00000000     0.00000000
     0.00000000     0.00000000     0.00000000
     0.00000000     0.00000000     0.00000000
     0.00000000     0.00000000     0.00000000
     0.00000000     0.00000000     0.00000000

           2 st state (SSR)
     0.00000000     0.00000000     0.00000000
     0.00000000     0.00000000     0.00000000
     0.00000000     0.00000000     0.00000000
     0.00000000     0.00000000     0.00000000
     0.00000000     0.00000000     0.00000000
     0.00000000     0.00000000     0.00000000
     0.00000000     0.00000000     0.00000000
     0.00000000     0.00000000     0.00000000
     0.00000000     0.00000000     0.00000000
     0.00000000     0.00000000     0.00000000
     0.00000000     0.00000000     0.00000000
     0.00000000     0.00000000     0.00000000
     0.00000000     0.00000000     0.00000000
     0.00000000     0.00000000     0.00000000
--------------------------------------------------
 Coupling Information
--------------------------------------------------
 between  1 and  2 states
--------------------------------------------------
 g vector - difference gradient
    -0.51122670     0.98477609     0.45168618
    -0.20533581    -0.76695387    -0.28898267
     0.24499044     0.07614629     0.11405110
    -0.05519764     0.03233039     0.09393951
     0.16015751    -0.05092197    -0.03324530
    -0.50809302     0.07551594    -0.41275469
     0.49144512     0.09066572     0.01209192
     0.10161235    -0.26492506     0.03868465
    -0.07713098    -0.20564993     0.14118998
     0.14850877    -0.69241524     0.04188388
     0.06576424     0.08439117     0.01603683
     0.11664019     0.62686630    -0.12852243
    -0.11030754     0.04821872    -0.12630189
     0.13817307    -0.03804455     0.08024293

 h vector - derivative coupling
    -0.06138082     0.10761733     0.07979659
    -0.02027437    -0.08670705    -0.04921224
     0.00575409     0.00080131     0.00677371
     0.00397229     0.00327470     0.00075555
     0.02557972     0.00211548    -0.00376077
    -0.05659245    -0.00100502    -0.04009450
     0.06166999     0.04630288     0.00498299
     0.00284265    -0.03158182     0.00215495
     0.00267709    -0.02527411     0.00844508
     0.02825718    -0.04267090    -0.02133935
     0.01589417     0.00433269     0.00780326
    -0.00648588     0.02319931     0.00700707
    -0.00355681    -0.00006826    -0.00243239
     0.00164316    -0.00033653    -0.00087995

 G vector - GDV
     0.00000000     0.00000000     0.00000000
     0.00000000     0.00000000     0.00000000
     0.00000000     0.00000000     0.00000000
     0.00000000     0.00000000     0.00000000
     0.00000000     0.00000000     0.00000000
     0.00000000     0.00000000     0.00000000
     0.00000000     0.00000000     0.00000000
     0.00000000     0.00000000     0.00000000
     0.00000000     0.00000000     0.00000000
     0.00000000     0.00000000     0.00000000
     0.00000000     0.00000000     0.00000000
     0.00000000     0.00000000     0.00000000
     0.00000000     0.00000000     0.00000000
     0.00000000     0.00000000     0.00000000

 H vector - DCV - non-adiabatic coupling
     0.00000000     0.00000000     0.00000000
     0.00000000     0.00000000     0.00000000
     0.00000000     0.00000000     0.00000000
     0.00000000     0.00000000     0.00000000
     0.00000000     0.00000000     0.00000000
     0.00000000     0.00000000     0.00000000
     0.00000000     0.00000000     0.00000000
     0.00000000     0.00000000     0.00000000
     0.00000000     0.00000000     0.00000000
     0.00000000     0.00000000     0.00000000
     0.00000000     0.00000000     0.00000000
     0.00000000     0.00000000     0.00000000
     0.00000000     0.00000000     0.00000000
     0.00000000     0.00000000     0.00000000
--------------------------------------------------

WARNING!
-> SCC is NOT converged, maximal SCC iterations exceeded

--------------------------------------------------------------------------------
DFTB+ running times                          cpu [s]             wall clock [s]
--------------------------------------------------------------------------------
SCC                                    +     1.42  ( 78.0%)      1.42  ( 77.7%)
      Sparse to dense                        0.08  (  4.2%)      0.06  (  3.5%)
      Dense to sparse                        0.27  ( 14.6%)      0.26  ( 14.3%)
      Range separated Hamiltonian            0.12  (  6.8%)      0.13  (  7.3%)
  Density matrix creation                    0.16  (  8.7%)      0.16  (  8.7%)
  Force calculation                          0.40  ( 21.9%)      0.40  ( 21.9%)
--------------------------------------------------------------------------------
Missing                                +     0.40  ( 22.0%)      0.41  ( 22.3%)
Total                                  =     1.82  (100.0%)      1.83  (100.0%)
--------------------------------------------------------------------------------
