    14
  Step:     0            Position(A)                                  Velocity(au)
C        -5.98018419    -0.70729569    -0.13398551    -0.00027859     0.00008926     0.00009674
C        -4.69849122    -0.78126566     0.12001263     0.00011780    -0.00019322    -0.00001295
H        -6.60167728     0.15650412    -0.44796227    -0.00042880     0.00069680    -0.00086286
H        -6.62949623    -1.58083790     0.07669605    -0.00040153    -0.00023936    -0.00064723
H        -4.28450298    -1.73449805     0.51022158     0.00020596     0.00009530     0.00002185
C        -3.90620294     0.40086990    -0.02714481     0.00024942     0.00009558     0.00010393
C        -2.53502201     0.51904910     0.19466965    -0.00001563    -0.00015304    -0.00013853
H        -4.44124994     1.35486651    -0.31465750     0.00002695     0.00002186     0.00053789
H        -1.90108145    -0.33593027     0.45704457    -0.00068696     0.00074825     0.00043542
C        -1.86705134     1.70940467     0.00164921     0.00002830    -0.00016910    -0.00005671
H        -2.39429597     2.64611049    -0.29437304     0.00032725    -0.00033951     0.00011864
N        -0.53354150     1.79468238     0.20586135     0.00010234     0.00014404     0.00004864
H        -0.06611065     2.69487689    -0.01769269    -0.00118739     0.00035779    -0.00035091
H         0.00892706     0.90686363     0.33438999    -0.00048461     0.00059588     0.00016090
    14
  Step:     1            Position(A)                                  Velocity(au)
C        -5.98397805    -0.70639944    -0.13298875    -0.00041154     0.00007565     0.00008515
C        -4.69664284    -0.78333446     0.11997458     0.00021597    -0.00018314     0.00000494
H        -6.60518567     0.16396818    -0.45742199    -0.00020031     0.00064692    -0.00085581
H        -6.63350589    -1.58310410     0.06935224    -0.00033023    -0.00016986    -0.00069283
H        -4.28208011    -1.73271754     0.51003190     0.00023821     0.00022053    -0.00005439
C        -3.90391140     0.40192704    -0.02606749     0.00016851     0.00009636     0.00009321
C        -2.53482037     0.51732983     0.19320520     0.00005105    -0.00015906    -0.00012960
H        -4.44045554     1.35382329    -0.30854024     0.00011615    -0.00020693     0.00057865
H        -1.90905807    -0.32784965     0.46190891    -0.00074879     0.00069763     0.00046236
C        -1.86680829     1.70769110     0.00099485     0.00001750    -0.00014455    -0.00006269
H        -2.39024171     2.64154989    -0.29276025     0.00040505    -0.00048284     0.00017120
N        -0.53225978     1.79627031     0.20638559     0.00012855     0.00014727     0.00004706
H        -0.07922897     2.69746827    -0.02117038    -0.00119374     0.00013077    -0.00028739
H         0.00303596     0.91503327     0.33596791    -0.00056715     0.00086769     0.00013138
    14
  Step:     2            Position(A)                                  Velocity(au)
C        -5.98918738    -0.70564062    -0.13212275    -0.00053493     0.00006393     0.00007321
C        -4.69376642    -0.78527212     0.12012081     0.00030389    -0.00016889     0.00002030
H        -6.60605946     0.17065681    -0.46668482     0.00004639     0.00056122    -0.00082897
H        -6.63672069    -1.58455401     0.06153909    -0.00026049    -0.00009471    -0.00073217
H        -4.27929172    -1.72967363     0.50903169     0.00027494     0.00032192    -0.00012435
C        -3.90251650     0.40297795    -0.02510569     0.00008638     0.00009392     0.00008305
C        -2.53390510     0.51556944     0.19183438     0.00011438    -0.00016023    -0.00012160
H        -4.43870896     1.35033943    -0.30199833     0.00019654    -0.00041699     0.00061321
H        -1.91746266    -0.32066823     0.46715967    -0.00076356     0.00058305     0.00050691
C        -1.86666846     1.70624235     0.00027764     0.00000995    -0.00012149    -0.00006791
H        -2.38543465     2.63554744    -0.29062775     0.00046159    -0.00059711     0.00021178
N        -0.53072912     1.79790429     0.20689098     0.00014684     0.00015271     0.00004515
H        -0.09222591     2.69773778    -0.02397997    -0.00116155    -0.00005691    -0.00023124
H        -0.00348049     0.92584608     0.33726415    -0.00059189     0.00106620     0.00011168
    14
  Step:     3            Position(A)                                  Velocity(au)
C        -5.99568075    -0.70500078    -0.13138704    -0.00064431     0.00005371     0.00006166
C        -4.68999455    -0.78702927     0.12041878     0.00037830    -0.00014983     0.00003236
H        -6.60417083     0.17624596    -0.47555740     0.00029843     0.00045218    -0.00078683
H        -6.63920459    -1.58517609     0.05333467    -0.00020061    -0.00002302    -0.00076369
H        -4.27606531    -1.72567499     0.50731158     0.00032010     0.00039155    -0.00018436
C        -3.90202174     0.40398168    -0.02425070     0.00000474     0.00008717     0.00007390
C        -2.53231817     0.51382445     0.19054507     0.00017365    -0.00015616    -0.00011479
H        -4.43615589     1.34470083    -0.29512504     0.00025914    -0.00059360     0.00063708
H        -1.92576245    -0.31509434     0.47299863    -0.00073044     0.00040619     0.00056976
C        -1.86659062     1.70503317    -0.00049085     0.00000657    -0.00010152    -0.00007181
H        -2.38014346     2.62848689    -0.28812726     0.00049077    -0.00067104     0.00023684
N        -0.52904747     1.79961113     0.20737327     0.00015544     0.00016077     0.00004281
H        -0.10464009     2.69622336    -0.02622909    -0.00108486    -0.00018733    -0.00018707
H        -0.00991286     0.93835834     0.33841114    -0.00054674     0.00116845     0.00010599
    14
  Step:     4            Position(A)                                  Velocity(au)
C        -6.00328283    -0.70446555    -0.13077382    -0.00073622     0.00004463     0.00005109
C        -4.68549029    -0.78855000     0.12082864     0.00043702    -0.00012544     0.00004056
H        -6.59953079     0.18054911    -0.48389826     0.00054350     0.00033232    -0.00073432
H        -6.64110942    -1.58505770     0.04483199    -0.00015816     0.00003648    -0.00078624
H        -4.27228887    -1.72110774     0.50499854     0.00037675     0.00042361    -0.00023164
C        -3.90241290     0.40488491    -0.02348890    -0.00007494     0.00007494     0.00006621
C        -2.53010606     0.51215307     0.18932309     0.00022880    -0.00014702    -0.00010925
H        -4.43303985     1.33735327    -0.28806092     0.00029527    -0.00072259     0.00064620
H        -1.93344253    -0.31178215     0.47962426    -0.00065400     0.00017592     0.00064923
C        -1.86652483     1.70402133    -0.00129335     0.00000800    -0.00008607    -0.00007392
H        -2.37469813     2.62086713    -0.28544651     0.00048782    -0.00069555     0.00024354
N        -0.52732849     1.80142135     0.20782753     0.00015339     0.00017160     0.00004002
H        -0.11595931     2.69363954    -0.02807254    -0.00096082    -0.00024738    -0.00015855
H        -0.01544146     0.95140815     0.33958296    -0.00042513     0.00116011     0.00011731
    14
  Step:     5            Position(A)                                  Velocity(au)
C        -6.01178701    -0.70402434    -0.13026933    -0.00080848     0.00003634     0.00004198
C        -4.68043398    -0.78977342     0.12130621     0.00047912    -0.00009537     0.00004469
H        -6.59228072     0.18351614    -0.49162197     0.00077023     0.00021401    -0.00067674
H        -6.64266463    -1.58437807     0.03613407    -0.00013950     0.00007604    -0.00079914
H        -4.26782311    -1.71640777     0.50224397     0.00044663     0.00041527    -0.00026474
C        -3.90366126     0.40562106    -0.02280224    -0.00015149     0.00005603     0.00006033
C        -2.52731279     0.51060810     0.18815496     0.00028030    -0.00013363    -0.00010478
H        -4.42969638     1.32889285    -0.28098815     0.00029709    -0.00079114     0.00063720
H        -1.94006986    -0.31124571     0.48720183    -0.00054436    -0.00009125     0.00074089
C        -1.86641560     1.70315024    -0.00210808     0.00001459    -0.00007623    -0.00007393
H        -2.36947145     2.61327031    -0.28279931     0.00045009    -0.00066521     0.00023021
N        -0.52569177     1.80336523     0.20824872     0.00014070     0.00018493     0.00003678
H        -0.12565977     2.69081144    -0.02969777    -0.00079048    -0.00023117    -0.00014760
H        -0.01921343     0.96373798     0.34097751    -0.00022884     0.00104036     0.00014660
    14
  Step:     6            Position(A)                                  Velocity(au)
C        -6.02096997    -0.70367054    -0.12985546    -0.00086022     0.00002845     0.00003466
C        -4.67500868    -0.79063640     0.12180627     0.00050500    -0.00005958     0.00004480
H        -6.58268048     0.18523089    -0.49870330     0.00096847     0.00010924    -0.00061970
H        -6.64416119    -1.58339410     0.02734925    -0.00014926     0.00008962    -0.00080219
H        -4.26251796    -1.71202292     0.49920677     0.00052977     0.00036748    -0.00028387
C        -3.90572694     0.40611060    -0.02216896    -0.00022401     0.00002938     0.00005657
C        -2.52397392     0.50922956     0.18703084     0.00032903    -0.00011749    -0.00010092
H        -4.42654040     1.32004550    -0.27412106     0.00025866    -0.00078954     0.00060782
H        -1.94535136    -0.31377846     0.49583263    -0.00041605    -0.00037259     0.00083764
C        -1.86620572     1.70235357    -0.00291061     0.00002634    -0.00007256    -0.00007167
H        -2.36485156     2.60631446    -0.28041033     0.00037776    -0.00057963     0.00019673
N        -0.52425043     1.80546699     0.20863221     0.00011858     0.00019988     0.00003317
H        -0.13325253     2.68858236    -0.03130163    -0.00057936    -0.00014210    -0.00015376
H        -0.02044782     0.97416796     0.34279015     0.00002989     0.00082565     0.00019208
    14
  Step:     7            Position(A)                                  Velocity(au)
C        -6.03060600    -0.70340204    -0.12951109    -0.00089184     0.00002049     0.00002935
C        -4.66938610    -0.79107695     0.12228623     0.00051623    -0.00001843     0.00004129
H        -6.57109351     0.18590607    -0.50517908     0.00112965     0.00002932    -0.00056882
H        -6.64593004    -1.58241754     0.01858465    -0.00018985     0.00007364    -0.00079581
H        -4.25623344    -1.70836845     0.49603385     0.00062419     0.00028544    -0.00029106
C        -3.90856201     0.40626384    -0.02156463    -0.00029181    -0.00000561     0.00005510
C        -2.52011467     0.50803779     0.18594714     0.00037573    -0.00010063    -0.00009705
H        -4.42403774     1.31162010    -0.26769096     0.00017723    -0.00071339     0.00055744
H        -1.94917165    -0.31939683     0.50552691    -0.00028557    -0.00064210     0.00093050
C        -1.86583943     1.70156289    -0.00367610     0.00004299    -0.00007476    -0.00006727
H        -2.36120721     2.60058979    -0.27849536     0.00027451    -0.00044486     0.00014504
N        -0.52309751     1.80773795     0.20897443     0.00008944     0.00021506     0.00002930
H        -0.13833444     2.68770265    -0.03306165    -0.00033751     0.00000606    -0.00017385
H        -0.01855960     0.98180057     0.34517971     0.00032813     0.00054995     0.00024894
    14
  Step:     8            Position(A)                                  Velocity(au)
C        -6.04048067    -0.70322236    -0.12921329    -0.00090483     0.00001189     0.00002619
C        -4.66371522    -0.79103963     0.12270966     0.00051515     0.00002717     0.00003489
H        -6.55796712     0.18587241    -0.51114732     0.00124719    -0.00001583    -0.00052947
H        -6.64831453    -1.58178306     0.00993941    -0.00026103     0.00002777    -0.00078105
H        -4.24886263    -1.70577833     0.49283919     0.00072584     0.00017863    -0.00029020
C        -3.91211074     0.40598778    -0.02096352    -0.00035404    -0.00004873     0.00005595
C        -2.51575408     0.50702802     0.18490776     0.00042049    -0.00008549    -0.00009248
H        -4.42266324     1.30443864    -0.26192598     0.00005462    -0.00056596     0.00048751
H        -1.95159876    -0.32782560     0.51618907    -0.00016839    -0.00087463     0.00100993
C        -1.86526530     1.70071805    -0.00438224     0.00006408    -0.00008156    -0.00006107
H        -2.35884607     2.59658231    -0.27723737     0.00014770    -0.00027373     0.00007915
N        -0.52229377     1.81017174     0.20927327     0.00005656     0.00022883     0.00002530
H        -0.14063617     2.68871489    -0.03510499    -0.00007883     0.00019008    -0.00020205
H        -0.01326940     0.98619909     0.34823611     0.00063508     0.00025962     0.00030987
    14
  Step:     9            Position(A)                                  Velocity(au)
C        -6.05040087    -0.70314183    -0.12893821    -0.00090140     0.00000202     0.00002522
C        -4.65811621    -0.79048262     0.12304945     0.00050434     0.00007559     0.00002651
H        -6.54380876     0.18555972    -0.51676221     0.00131710    -0.00001880    -0.00050615
H        -6.65164067    -1.58181006     0.00149779    -0.00035974    -0.00004466    -0.00075953
H        -4.24035431    -1.70446066     0.48968526     0.00082891     0.00005994    -0.00028650
C        -3.91630722     0.40519786    -0.02034052    -0.00040962    -0.00009850     0.00005897
C        -2.51091559     0.50616761     0.18392388     0.00046238    -0.00007455    -0.00008664
H        -4.42284293     1.29923864    -0.25702567    -0.00010184    -0.00035985     0.00040185
H        -1.95285547    -0.33853105     0.52762104    -0.00007627    -0.00104978     0.00106742
C        -1.86443758     1.69977859    -0.00501213     0.00008900    -0.00009075    -0.00005368
H        -2.35797603     2.59460143    -0.27676370     0.00000775    -0.00008475     0.00000493
N        -0.52186023     1.81274405     0.20952787     0.00002365     0.00023979     0.00002125
H        -0.14005889     2.69186111    -0.03748194     0.00018040     0.00038049    -0.00023071
H        -0.00466594     0.98748034     0.35195877     0.00091749     0.00000395     0.00036648
    14
  Step:    10            Position(A)                                  Velocity(au)
C        -6.06020053    -0.70317812    -0.12866166    -0.00088413    -0.00000976     0.00002643
C        -4.65268187    -0.78938593     0.12328964     0.00048601     0.00012454     0.00001721
H        -6.52915308     0.18546123    -0.52222042     0.00133861     0.00002386    -0.00050174
H        -6.65618449    -1.58276007    -0.00667676    -0.00048006    -0.00013653    -0.00073333
H        -4.23072858    -1.70446710     0.48657155     0.00092659    -0.00005590    -0.00028578
C        -3.92107197     0.40383300    -0.01967351    -0.00045729    -0.00015213     0.00006374
C        -2.50563873     0.50539700     0.18301226     0.00049959    -0.00007002    -0.00007913
H        -4.42489109     1.29656616    -0.25313472    -0.00027952    -0.00011673     0.00030645
H        -1.95326724    -0.35079154     0.53954093    -0.00001583    -0.00115449     0.00109668
C        -1.86331830     1.69873271    -0.00555661     0.00011690    -0.00009960    -0.00004586
H        -2.35867650     2.59472819    -0.27712960    -0.00013308     0.00010042    -0.00007082
N        -0.52177646     1.81541763     0.20973819    -0.00000570     0.00024716     0.00001721
H        -0.13668950     2.69703874    -0.04015231     0.00042360     0.00054653    -0.00025170
H         0.00680251     0.98628558     0.35625367     0.00114593    -0.00017547     0.00041102
    14
  Step:    11            Position(A)                                  Velocity(au)
C        -6.06974282    -0.70335542    -0.12836005    -0.00085565    -0.00002395     0.00002971
C        -4.64748385    -0.78775799     0.12342586     0.00046171     0.00017127     0.00000798
H        -6.51452404     0.18608165    -0.52773883     0.00131447     0.00011025    -0.00051675
H        -6.66214298    -1.58479683    -0.01454530    -0.00061385    -0.00023756    -0.00070471
H        -4.22008347    -1.70568352     0.48343332     0.00101192    -0.00015438    -0.00029353
C        -3.92631121     0.40186967    -0.01894602    -0.00049586    -0.00020579     0.00006967
C        -2.49998604     0.50463582     0.18219273     0.00053004    -0.00007334    -0.00006979
H        -4.42895807     1.29668491    -0.25032153    -0.00046216     0.00013528     0.00020882
H        -1.95320173    -0.36378768     0.55161295     0.00001157    -0.00118388     0.00109439
C        -1.86188009     1.69759976    -0.00601535     0.00014671    -0.00010543    -0.00003838
H        -2.36088748     2.59679825    -0.27831300    -0.00026251     0.00026038    -0.00014131
N        -0.52198502     1.81815120     0.20990431    -0.00002854     0.00025099     0.00001315
H        -0.13079188     2.70381742    -0.04298844     0.00063604     0.00066166    -0.00025790
H         0.02040348     0.98364158     0.36095057     0.00129979    -0.00025251     0.00043789
    14
  Step:    12            Position(A)                                  Velocity(au)
C        -6.07891945    -0.70370197    -0.12801177    -0.00081850    -0.00004069     0.00003477
C        -4.64258103    -0.78563906     0.12346421     0.00043224     0.00021286    -0.00000031
H        -6.50039644     0.18787319    -0.53352523     0.00125078     0.00023234    -0.00054871
H        -6.66961362    -1.58795712    -0.02209367    -0.00075160    -0.00033561    -0.00067579
H        -4.20859084    -1.70784454     0.48015004     0.00107880    -0.00022331    -0.00031405
C        -3.93191976     0.39933091    -0.01814930    -0.00052448    -0.00025511     0.00007600
C        -2.49404307     0.50379263     0.18148551     0.00055188    -0.00008506    -0.00005868
H        -4.43500183     1.29952561    -0.24856637    -0.00063245     0.00036612     0.00011688
H        -1.95301423    -0.37669118     0.56348276     0.00000874    -0.00114030     0.00106025
C        -1.86010863     1.69642623    -0.00639623     0.00017719    -0.00010618    -0.00003192
H        -2.36441939     2.60042454    -0.28022095    -0.00036993     0.00037734    -0.00020082
N        -0.52240082     1.82090842     0.21002587    -0.00004286     0.00025200     0.00000903
H        -0.12277499     2.71151377    -0.04579426     0.00080663     0.00070784    -0.00024441
H         0.03523792     0.98076137     0.36583328     0.00136947    -0.00021904     0.00044444
    14
  Step:    13            Position(A)                                  Velocity(au)
C        -6.08764898    -0.70424555    -0.12759934    -0.00077498    -0.00005971     0.00004114
C        -4.63802771    -0.78310123     0.12341917     0.00039771     0.00024655    -0.00000701
H        -6.48716094     0.19116451    -0.53974302     0.00115625     0.00037606    -0.00059212
H        -6.67858576    -1.59213885    -0.02932945    -0.00088364    -0.00041832    -0.00064829
H        -4.19648271    -1.71056879     0.47656290     0.00112264    -0.00025427    -0.00034984
C        -3.93778528     0.39628860    -0.01728343    -0.00054267    -0.00029584     0.00008194
C        -2.48791261     0.50277501     0.18090903     0.00056388    -0.00010485    -0.00004605
H        -4.44279408     1.30469456    -0.24776457    -0.00077509     0.00054913     0.00003763
H        -1.95301046    -0.38873397     0.57480796    -0.00001871    -0.00103161     0.00099652
C        -1.85800363     1.69527689    -0.00671361     0.00020710    -0.00010066    -0.00002695
H        -2.36898045     2.60505331    -0.28270627    -0.00044776     0.00043949    -0.00024541
N        -0.52292267     1.82366413     0.21010185    -0.00004772     0.00025133     0.00000479
H        -0.11314537     2.71930271    -0.04833531     0.00092884     0.00067753    -0.00020924
H         0.05036320     0.97884965     0.37067349     0.00135570    -0.00008270     0.00043090
    14
  Step:    14            Position(A)                                  Velocity(au)
C        -6.09587363    -0.70500826    -0.12711178    -0.00072709    -0.00008029     0.00004813
C        -4.63388036    -0.78024524     0.12331089     0.00035773     0.00026997    -0.00001173
H        -6.47510124     0.19610017    -0.54647891     0.00104094     0.00052300    -0.00063895
H        -6.68894495    -1.59710876    -0.03627622    -0.00100119    -0.00047488    -0.00062334
H        -4.18403100    -1.71340727     0.47249670     0.00114077    -0.00024340    -0.00040141
C        -3.94379172     0.39285879    -0.01635681    -0.00055017    -0.00032438     0.00008679
C        -2.48170711     0.50149883     0.18047818     0.00056551    -0.00013164    -0.00003227
H        -4.45195849     1.31153878    -0.24774312    -0.00087916     0.00066514    -0.00002381
H        -1.95342365    -0.39925959     0.58528346    -0.00006381    -0.00086932     0.00090736
C        -1.85557791     1.69422411    -0.00698577     0.00023533    -0.00008865    -0.00002371
H        -2.37421493     2.61003922    -0.28558975    -0.00049196     0.00044196    -0.00027319
N        -0.52344471     1.82640674     0.21013073    -0.00004312     0.00025017     0.00000042
H        -0.10245476     2.72633597    -0.05037177     0.00100085     0.00057345    -0.00015327
H         0.06489655     0.97895220     0.37526012     0.00126724     0.00013782     0.00039980
    14
  Step:    15            Position(A)                                  Velocity(au)
C        -6.10355549    -0.70600196    -0.12654636    -0.00067643    -0.00010135     0.00005497
C        -4.63020158    -0.77719511     0.12316262     0.00031168     0.00028130    -0.00001429
H        -6.46438837     0.20260619    -0.55372138     0.00091465     0.00065324    -0.00068001
H        -6.70048882    -1.60252781    -0.04296618    -0.00109730    -0.00049733    -0.00060139
H        -4.17152612    -1.71589363     0.46778133     0.00113245    -0.00019123    -0.00046745
C        -3.94982138     0.38919207    -0.01538464    -0.00054691    -0.00033815     0.00009006
C        -2.47554102     0.49989505     0.18020311     0.00055688    -0.00016384    -0.00001781
H        -4.46202730     1.31924573    -0.24828544    -0.00093908     0.00070465    -0.00006470
H        -1.95440633    -0.40775207     0.59465815    -0.00011915    -0.00066698     0.00079820
C        -1.85285542     1.69333757    -0.00723235     0.00026097    -0.00007076    -0.00002223
H        -2.37974308     2.61472211    -0.28868287    -0.00050188     0.00038625    -0.00028416
N        -0.52386595     1.82913710     0.21011102    -0.00002984     0.00024954    -0.00000407
H        -0.09124993     2.73184799    -0.05168847     0.00102499     0.00040680    -0.00007981
H         0.07808651     0.98186464     0.37941998     0.00111804     0.00041765     0.00035519
    14
  Step:    16            Position(A)                                  Velocity(au)
C        -6.11067180    -0.70722554    -0.12590922    -0.00062418    -0.00012172     0.00006087
C        -4.62706178    -0.77409124     0.12299821     0.00025889     0.00027943    -0.00001474
H        -6.45509160     0.21039115    -0.56135551     0.00078561     0.00074857    -0.00070640
H        -6.71295060    -1.60798870    -0.04943270    -0.00116730    -0.00048133    -0.00058226
H        -4.15925641    -1.71759083     0.46227027     0.00109866    -0.00010220    -0.00054520
C        -3.95575639     0.38546113    -0.01438663    -0.00053294    -0.00033572     0.00009142
C        -2.46952438     0.49791457     0.18008849     0.00053858    -0.00019946    -0.00000321
H        -4.47250267     1.32695430    -0.24915854    -0.00095438     0.00066745    -0.00008456
H        -1.95603023    -0.41385113     0.60274571    -0.00017750    -0.00043917     0.00067531
C        -1.84986871     1.69267614    -0.00747210     0.00028336    -0.00004825    -0.00002235
H        -2.38519460     2.61848915    -0.29180630    -0.00047960     0.00027883    -0.00027980
N        -0.52409756     1.83186586     0.21004173    -0.00000924     0.00025020    -0.00000861
H        -0.08003116     2.73523541    -0.05211779     0.00100691     0.00019468     0.00000614
H         0.08935577     0.98808911     0.38303051     0.00092511     0.00072935     0.00030202
    14
  Step:    17            Position(A)                                  Velocity(au)
C        -6.11721052    -0.70866482    -0.12521473    -0.00057112    -0.00014029     0.00006517
C        -4.62453777    -0.77108199     0.12284017     0.00019894     0.00026403    -0.00001326
H        -6.44720157     0.21898256    -0.56917516     0.00065972     0.00079526    -0.00071098
H        -6.72602578    -1.61305782    -0.05570418    -0.00120889    -0.00042626    -0.00056529
H        -4.14749086    -1.71812943     0.45585401     0.00104174     0.00001625    -0.00063087
C        -3.96148037     0.38184766    -0.01338474    -0.00050852    -0.00031681     0.00009076
C        -2.46375864     0.49553138     0.18013281     0.00051153    -0.00023633     0.00001096
H        -4.48290622     1.33384737    -0.25013539    -0.00092843     0.00056068    -0.00008472
H        -1.95828958    -0.41735966     0.60943189    -0.00023197    -0.00020094     0.00054544
C        -1.84665644     1.69228203    -0.00772121     0.00030204    -0.00002280    -0.00002377
H        -2.39023524     2.62082216    -0.29480402    -0.00042923     0.00012973    -0.00026268
N        -0.52406803     1.83461063     0.20992260     0.00001694     0.00025267    -0.00001314
H        -0.06922188     2.73610702    -0.05155405     0.00095468    -0.00004220     0.00009856
H         0.09832495     0.99782059     0.38602719     0.00070714     0.00104493     0.00024581
    14
  Step:    18            Position(A)                                  Velocity(au)
C        -6.12316609    -0.71029467    -0.12448349    -0.00051770    -0.00015622     0.00006742
C        -4.62270969    -0.76831513     0.12270802     0.00013171     0.00023556    -0.00001020
H        -6.44065895     0.22778892    -0.57690945     0.00054032     0.00078572    -0.00068932
H        -6.73939748    -1.61731385    -0.06179940    -0.00122196    -0.00033472    -0.00054947
H        -4.13646628    -1.71723543     0.44846874     0.00096505     0.00015459    -0.00072014
C        -3.96688123     0.37853031    -0.01240100    -0.00047420    -0.00028222     0.00008818
C        -2.45833366     0.49274446     0.18032818     0.00047684    -0.00027211     0.00002410
H        -4.49281392     1.33922020    -0.25101195    -0.00086708     0.00039647    -0.00006774
H        -1.96110509    -0.41824712     0.61467822    -0.00027602     0.00003241     0.00041564
C        -1.84326107     1.69217725    -0.00799214     0.00031675     0.00000368    -0.00002614
H        -2.39458474     2.62132734    -0.29755301    -0.00035618    -0.00004902    -0.00023606
N        -0.52372707     1.83739349     0.20975422     0.00004660     0.00025730    -0.00001759
H        -0.05914574     2.73431231    -0.04996161     0.00087812    -0.00028128     0.00019089
H         0.10482581     1.01094902     0.38840813     0.00048388     0.00133677     0.00019247
    14
  Step:    19            Position(A)                                  Velocity(au)
C        -6.12853627    -0.71208253    -0.12373989    -0.00046415    -0.00016900     0.00006737
C        -4.62165641    -0.76592870     0.12261707     0.00005757     0.00019534    -0.00000596
H        -6.43538103     0.23617180    -0.58425531     0.00042868     0.00071862    -0.00063989
H        -6.75275841    -1.62038046    -0.06772491    -0.00120817    -0.00021198    -0.00053367
H        -4.12637850    -1.71474758     0.44009966     0.00087261     0.00030204    -0.00080852
C        -3.97185440     0.37567355    -0.01145573    -0.00043084    -0.00023369     0.00008387
C        -2.45332686     0.48957840     0.18066003     0.00043563    -0.00030451     0.00003560
H        -4.50187522     1.34252091    -0.25161742    -0.00077740     0.00018969    -0.00003688
H        -1.96432800    -0.41665052     0.61852484    -0.00030347     0.00024568     0.00029323
C        -1.83972687     1.69236244    -0.00829306     0.00032743     0.00002925    -0.00002904
H        -2.39802730     2.61974976    -0.29996821    -0.00026668    -0.00024440    -0.00020352
N        -0.52304848     1.84023953     0.20953775     0.00007747     0.00026431    -0.00002193
H        -0.05001128     2.72995344    -0.04737805     0.00078819    -0.00049949     0.00027645
H         0.10891076     1.02706502     0.39023788     0.00027578     0.00157792     0.00014820
    14
  Step:    20            Position(A)                                  Velocity(au)
C        -6.13332028    -0.71399193    -0.12300962    -0.00041054    -0.00017841     0.00006502
C        -4.62145013    -0.76404179     0.12257763    -0.00002263     0.00014546    -0.00000104
H        -6.43128069     0.24351013    -0.59090828     0.00032462     0.00059797    -0.00056378
H        -6.76582847    -1.62195136    -0.07347446    -0.00117061    -0.00006519    -0.00051670
H        -4.11737621    -1.71062770     0.43078076     0.00076894     0.00044716    -0.00089167
C        -3.97630658     0.37341781    -0.01056611    -0.00037962    -0.00017381     0.00007821
C        -2.44880344     0.48608279     0.18110692     0.00038898    -0.00033131     0.00004484
H        -4.50982106     1.34337008    -0.25181872    -0.00066697    -0.00004348     0.00000428
H        -1.96774416    -0.41287246     0.62109320    -0.00030860     0.00042401     0.00018554
C        -1.83609781     1.69281715    -0.00862750     0.00033421     0.00005205    -0.00003206
H        -2.40041898     2.61598053    -0.30200532    -0.00016754    -0.00044300    -0.00016887
N        -0.52203230     1.84317581     0.20927453     0.00010710     0.00027385    -0.00002615