|===============================================================================
|
|  DFTB+ release 20.1
|
|  Copyright (C) 2006 - 2020  DFTB+ developers group
|
|===============================================================================
|
|  When publishing results obtained with DFTB+, please cite the following
|  reference:
|
|  * DFTB+, a software package for efficient approximate density functional
|    theory based atomistic simulations, J. Chem. Phys. 152, 124101 (2020).
|    [doi: 10.1063/1.5143190]
|
|  You should also cite additional publications crediting the parametrization
|  data you use. Please consult the documentation of the SK-files for the
|  references.
|
|===============================================================================

Reading input file 'dftb_in.hsd'
Parser version: 8

--------------------------------------------------------------------------------
Reading SK-files:
Done.


Processed input in HSD format written to 'dftb_pin.hsd'

Starting initialization...
--------------------------------------------------------------------------------
OpenMP threads:              1
Chosen random seed:          451830485
Mode:                        Static calculation
Self consistent charges:     Yes
SCC-tolerance:                 0.100000E-05
Max. scc iterations:                   1000
Shell resolved Hubbard:      No
Spin polarisation:           No
Nr. of up electrons:             6.000000
Nr. of down electrons:           6.000000
Periodic boundaries:         No
Electronic solver:           Relatively robust
Maximal SCC-cycles:                    1000
Initial charges:             Set automatically (system chrg:   0.100E+01)
Included shells:             C:  s, p
                             N:  s, p
                             H:  s
Spin coupling constants:     C   1(s)-1(s):  -0.455900E-01
                             C   1(s)-2(p):  -0.293000E-01
                             C   2(p)-1(s):  -0.293000E-01
                             C   2(p)-2(p):  -0.275500E-01
                             N   1(s)-1(s):  -0.468700E-01
                             N   1(s)-2(p):  -0.317000E-01
                             N   2(p)-1(s):  -0.317000E-01
                             N   2(p)-2(p):  -0.307200E-01
                             H   1(s)-1(s):  -0.792500E-01
Range separated hybrid:      Yes
  Screening parameter omega:   0.300000E+00
  Range separated algorithm:   MatrixBased
Extra options:
                             Mulliken analysis
                             Force calculation
Force type                   original
                             Eigenvector printing


REKS Calcuation:             Yes
SSR(2,2) Calcuation:         Yes
Energy Functional:           (PPS+OSS)/2
Number of Core Orbitals:                  5
Number of Active Orbitals:                2
Number of Basis:                         12
Number of States:                         2
State-Averaging Weight:          0.500000
                                 0.500000
State of Interest:                        2
Initial Guess:               Diagonalize H0 matrix
Newton-Raphson for FON opt:  Yes
NR max. Iterations:                      50
Level Shifting:              Yes
Shift Value:                     0.300000
W Scale Factor:              C  =    3.200000
                             N  =    3.200000
                             H  =    3.200000
Transition Dipole:           No
Gradient of Microstate:      No
CP-REKS Solver:              Preconditioned Conjugate-Gradient
CG max. Iterations:                     100
CG Tolerance:                  0.100000E-07
Memory for A and Hxc:        Direct Updating Without Saving
Non-Adiabatic Coupling:      Yes

--------------------------------------------------------------------------------

***  Geometry step: 0

  iSCC       reks energy        Diff energy         x_a       SCC error   
    1       -6.1766243177       0.0000000000     0.999926    1.12672799
    2       -6.1932449543      -0.0166206366     1.000000    0.07361872
    3       -6.1964291701      -0.0031842157     1.000000    0.02566698
    4       -6.1978491293      -0.0014199593     1.000000    0.02675884
    5       -6.1986228906      -0.0007737613     1.000000    0.01604007
    6       -6.1990701650      -0.0004472744     1.000000    0.01636637
    7       -6.1993352854      -0.0002651204     1.000000    0.00983669
    8       -6.1994929116      -0.0001576263     1.000000    0.01048781
    9       -6.1995867229      -0.0000938113     1.000000    0.00648618
   10       -6.1996422212      -0.0000554983     1.000000    0.00691491
   11       -6.1996747567      -0.0000325355     1.000000    0.00599035
   12       -6.1996935256      -0.0000187689     1.000000    0.00485391
   13       -6.1997038009      -0.0000102753     1.000000    0.00618121
   14       -6.1997089757      -0.0000051748     1.000000    0.00564473
   15       -6.1997105623      -0.0000015867     1.000000    0.00692093
   16       -6.1997100046       0.0000005578     1.000000    0.00701580
   17       -6.1997072235       0.0000027811     1.000000    0.00815461
   18       -6.1997032148       0.0000040086     1.000000    0.00870952
   19       -6.1996968588       0.0000063560     1.000000    0.00988594
   20       -6.1996894780       0.0000073808     1.000000    0.01082205
   21       -6.1996786855       0.0000107925     1.000000    0.01216226
   22       -6.1996669002       0.0000117853     1.000000    0.01346032
   23       -6.1996495985       0.0000173017     1.000000    0.01506369
   24       -6.1996315572       0.0000180413     1.000000    0.01674129
   25       -6.1996043362       0.0000272210     1.000000    0.01869292
   26       -6.1995774465       0.0000268897     1.000000    0.02078755
   27       -6.1995351978       0.0000422487     1.000000    0.02316115
   28       -6.1994963384       0.0000388594     1.000000    0.02571359
   29       -6.1994319147       0.0000644238     1.000000    0.02856408
   30       -6.1993781709       0.0000537438     1.000000    0.03159727
   31       -6.1992824764       0.0000956945     1.000000    0.03494130
   32       -6.1992128817       0.0000695947     1.000000    0.03843156
   33       -6.1990760678       0.0001368139     1.000000    0.04221664
   34       -6.1989946101       0.0000814577     1.000000    0.04606005
   35       -6.1988090128       0.0001855972     1.000000    0.05013116
   36       -6.1987280155       0.0000809973     1.000000    0.05412011
   37       -6.1984924137       0.0002356018     1.000000    0.05820801
   38       -6.1984333411       0.0000590726     1.000000    0.06204559
   39       -6.1981559499       0.0002773913     1.000000    0.06580883
   40       -6.1981441194       0.0000118305     1.000000    0.06918057
   41       -6.1978408835       0.0003032359     1.000000    0.07230800
   42       -6.1978950307      -0.0000541472     1.000000    0.07498699
   43       -6.1975832461       0.0003117846     1.000000    0.07730874
   44       -6.1977074155      -0.0001241694     1.000000    0.07922646
   45       -6.1973994705       0.0003079450     1.000000    0.08075592
   46       -6.1975836337      -0.0001841631     1.000000    0.08199215
   47       -6.1972850481       0.0002985855     1.000000    0.08287742
   48       -6.1975123178      -0.0002272697     1.000000    0.08359204
   49       -6.1972235344       0.0002887834     1.000000    0.08402864
   50       -6.1974773872      -0.0002538527     1.000000    0.08439131
   51       -6.1971964764       0.0002809108     1.000000    0.08455515
   52       -6.1974643992      -0.0002679228     1.000000    0.08470508
   53       -6.1971889409       0.0002754583     1.000000    0.08472470
   54       -6.1974629309      -0.0002739899     1.000000    0.08475971
   55       -6.1971908702       0.0002720607     1.000000    0.08471620
   56       -6.1974664747      -0.0002756045     1.000000    0.08469768
   57       -6.1971963399       0.0002701348     1.000000    0.08463617
   58       -6.1974714381      -0.0002750982     1.000000    0.08459892
   59       -6.1972022817       0.0002691564     1.000000    0.08454112
   60       -6.1974760996      -0.0002738179     1.000000    0.08450272
   61       -6.1972073624       0.0002687372     1.000000    0.08445677
   62       -6.1974798131      -0.0002724507     1.000000    0.08442462
   63       -6.1972111940       0.0002686190     1.000000    0.08439169
   64       -6.1974824844      -0.0002712904     1.000000    0.08436771
   65       -6.1972138407       0.0002686438     1.000000    0.08434596
   66       -6.1974842600      -0.0002704193     1.000000    0.08432950
   67       -6.1972155380       0.0002687220     1.000000    0.08431617
   68       -6.1974853577      -0.0002698196     1.000000    0.08430566
   69       -6.1972165498       0.0002688079     1.000000    0.08429814
   70       -6.1974859860      -0.0002694362     1.000000    0.08429188
   71       -6.1972171045       0.0002688815     1.000000    0.08428806
   72       -6.1974863127      -0.0002692083     1.000000    0.08428463
   73       -6.1972173757       0.0002689371     1.000000    0.08428299
   74       -6.1974864595      -0.0002690839     1.000000    0.08428131
   75       -6.1972174842       0.0002689753     1.000000    0.08428085
   76       -6.1974865076      -0.0002690234     1.000000    0.08428016
   77       -6.1972175079       0.0002689997     1.000000    0.08428027
   78       -6.1974865074      -0.0002689995     1.000000    0.08428010
   79       -6.1972174934       0.0002690140     1.000000    0.08428042
   80       -6.1974864879      -0.0002689945     1.000000    0.08428049
   81       -6.1972174662       0.0002690217     1.000000    0.08428084
   82       -6.1974864643      -0.0002689981     1.000000    0.08428098
   83       -6.1972174390       0.0002690253     1.000000    0.08428128
   84       -6.1974864434      -0.0002690044     1.000000    0.08428143
   85       -6.1972174167       0.0002690266     1.000000    0.08428165
   86       -6.1974864274      -0.0002690107     1.000000    0.08428178
   87       -6.1972174006       0.0002690268     1.000000    0.08428193
   88       -6.1974864163      -0.0002690157     1.000000    0.08428202
   89       -6.1972173899       0.0002690264     1.000000    0.08428212
   90       -6.1974864093      -0.0002690194     1.000000    0.08428217
   91       -6.1972173834       0.0002690259     1.000000    0.08428223
   92       -6.1974864052      -0.0002690218     1.000000    0.08428227
   93       -6.1972173798       0.0002690254     1.000000    0.08428230
   94       -6.1974864030      -0.0002690233     1.000000    0.08428232
   95       -6.1972173780       0.0002690251     1.000000    0.08428233
   96       -6.1974864021      -0.0002690241     1.000000    0.08428234
   97       -6.1972173773       0.0002690248     1.000000    0.08428234
   98       -6.1974864018      -0.0002690245     1.000000    0.08428235
   99       -6.1972173771       0.0002690246     1.000000    0.08428235
  100       -6.1974864018      -0.0002690247     1.000000    0.08428235
  101       -6.1972173773       0.0002690245     1.000000    0.08428235
  102       -6.1974864019      -0.0002690247     1.000000    0.08428235
  103       -6.1972173775       0.0002690245     1.000000    0.08428234
  104       -6.1974864021      -0.0002690246     1.000000    0.08428234
  105       -6.1972173777       0.0002690244     1.000000    0.08428234
  106       -6.1974864023      -0.0002690246     1.000000    0.08428234
  107       -6.1972173779       0.0002690244     1.000000    0.08428234
  108       -6.1974864024      -0.0002690245     1.000000    0.08428234
  109       -6.1972173780       0.0002690244     1.000000    0.08428233
  110       -6.1974864025      -0.0002690245     1.000000    0.08428233
  111       -6.1972173781       0.0002690244     1.000000    0.08428233
  112       -6.1974864026      -0.0002690245     1.000000    0.08428233
  113       -6.1972173782       0.0002690244     1.000000    0.08428233
  114       -6.1974864026      -0.0002690245     1.000000    0.08428233
  115       -6.1972173782       0.0002690244     1.000000    0.08428233
  116       -6.1974864026      -0.0002690244     1.000000    0.08428233
  117       -6.1972173782       0.0002690244     1.000000    0.08428233
  118       -6.1974864027      -0.0002690244     1.000000    0.08428233
  119       -6.1972173782       0.0002690244     1.000000    0.08428233
  120       -6.1974864027      -0.0002690244     1.000000    0.08428233
  121       -6.1972173782       0.0002690244     1.000000    0.08428233
  122       -6.1974864027      -0.0002690244     1.000000    0.08428233
  123       -6.1972173782       0.0002690244     1.000000    0.08428233
  124       -6.1974864027      -0.0002690244     1.000000    0.08428233
  125       -6.1972173782       0.0002690244     1.000000    0.08428233
  126       -6.1974864027      -0.0002690244     1.000000    0.08428233
  127       -6.1972173782       0.0002690244     1.000000    0.08428233
  128       -6.1974864027      -0.0002690244     1.000000    0.08428233
  129       -6.1972173782       0.0002690244     1.000000    0.08428233
  130       -6.1974864027      -0.0002690244     1.000000    0.08428233
  131       -6.1972173782       0.0002690244     1.000000    0.08428233
  132       -6.1974864027      -0.0002690244     1.000000    0.08428233
  133       -6.1972173782       0.0002690244     1.000000    0.08428233
  134       -6.1974864027      -0.0002690244     1.000000    0.08428233
  135       -6.1972173782       0.0002690244     1.000000    0.08428233
  136       -6.1974864027      -0.0002690244     1.000000    0.08428233
  137       -6.1972173782       0.0002690244     1.000000    0.08428233
  138       -6.1974864027      -0.0002690244     1.000000    0.08428233
  139       -6.1972173782       0.0002690244     1.000000    0.08428233
  140       -6.1974864027      -0.0002690244     1.000000    0.08428233
  141       -6.1972173782       0.0002690244     1.000000    0.08428233
  142       -6.1974864027      -0.0002690244     1.000000    0.08428233
  143       -6.1972173782       0.0002690244     1.000000    0.08428233
  144       -6.1974864027      -0.0002690244     1.000000    0.08428233
  145       -6.1972173782       0.0002690244     1.000000    0.08428233
  146       -6.1974864027      -0.0002690244     1.000000    0.08428233
  147       -6.1972173782       0.0002690244     1.000000    0.08428233
  148       -6.1974864027      -0.0002690244     1.000000    0.08428233
  149       -6.1972173782       0.0002690244     1.000000    0.08428233
  150       -6.1974864027      -0.0002690244     1.000000    0.08428233
  151       -6.1972173782       0.0002690244     1.000000    0.08428233
  152       -6.1974864027      -0.0002690244     1.000000    0.08428233
  153       -6.1972173782       0.0002690244     1.000000    0.08428233
  154       -6.1974864027      -0.0002690244     1.000000    0.08428233
  155       -6.1972173782       0.0002690244     1.000000    0.08428233
  156       -6.1974864027      -0.0002690244     1.000000    0.08428233
  157       -6.1972173782       0.0002690244     1.000000    0.08428233
  158       -6.1974864027      -0.0002690244     1.000000    0.08428233
  159       -6.1972173782       0.0002690244     1.000000    0.08428233
  160       -6.1974864027      -0.0002690244     1.000000    0.08428233
  161       -6.1972173782       0.0002690244     1.000000    0.08428233
  162       -6.1974864027      -0.0002690244     1.000000    0.08428233
  163       -6.1972173782       0.0002690244     1.000000    0.08428233
  164       -6.1974864027      -0.0002690244     1.000000    0.08428233
  165       -6.1972173782       0.0002690244     1.000000    0.08428233
  166       -6.1974864027      -0.0002690244     1.000000    0.08428233
  167       -6.1972173782       0.0002690244     1.000000    0.08428233
  168       -6.1974864027      -0.0002690244     1.000000    0.08428233
  169       -6.1972173782       0.0002690244     1.000000    0.08428233
  170       -6.1974864027      -0.0002690244     1.000000    0.08428233
  171       -6.1972173782       0.0002690244     1.000000    0.08428233
  172       -6.1974864027      -0.0002690244     1.000000    0.08428233
  173       -6.1972173782       0.0002690244     1.000000    0.08428233
  174       -6.1974864027      -0.0002690244     1.000000    0.08428233
  175       -6.1972173782       0.0002690244     1.000000    0.08428233
  176       -6.1974864027      -0.0002690244     1.000000    0.08428233
  177       -6.1972173782       0.0002690244     1.000000    0.08428233
  178       -6.1974864027      -0.0002690244     1.000000    0.08428233
  179       -6.1972173782       0.0002690244     1.000000    0.08428233
  180       -6.1974864027      -0.0002690244     1.000000    0.08428233
  181       -6.1972173782       0.0002690244     1.000000    0.08428233
  182       -6.1974864027      -0.0002690244     1.000000    0.08428233
  183       -6.1972173782       0.0002690244     1.000000    0.08428233
  184       -6.1974864027      -0.0002690244     1.000000    0.08428233
  185       -6.1972173782       0.0002690244     1.000000    0.08428233
  186       -6.1974864027      -0.0002690244     1.000000    0.08428233
  187       -6.1972173782       0.0002690244     1.000000    0.08428233
  188       -6.1974864027      -0.0002690244     1.000000    0.08428233
  189       -6.1972173782       0.0002690244     1.000000    0.08428233
  190       -6.1974864027      -0.0002690244     1.000000    0.08428233
  191       -6.1972173782       0.0002690244     1.000000    0.08428233
  192       -6.1974864027      -0.0002690244     1.000000    0.08428233
  193       -6.1972173782       0.0002690244     1.000000    0.08428233
  194       -6.1974864027      -0.0002690244     1.000000    0.08428233
  195       -6.1972173782       0.0002690244     1.000000    0.08428233
  196       -6.1974864027      -0.0002690244     1.000000    0.08428233
  197       -6.1972173782       0.0002690244     1.000000    0.08428233
  198       -6.1974864027      -0.0002690244     1.000000    0.08428233
  199       -6.1972173782       0.0002690244     1.000000    0.08428233
  200       -6.1974864027      -0.0002690244     1.000000    0.08428233
  201       -6.1972173782       0.0002690244     1.000000    0.08428233
  202       -6.1974864027      -0.0002690244     1.000000    0.08428233
  203       -6.1972173782       0.0002690244     1.000000    0.08428233
  204       -6.1974864027      -0.0002690244     1.000000    0.08428233
  205       -6.1972173782       0.0002690244     1.000000    0.08428233
  206       -6.1974864027      -0.0002690244     1.000000    0.08428233
  207       -6.1972173782       0.0002690244     1.000000    0.08428233
  208       -6.1974864027      -0.0002690244     1.000000    0.08428233
  209       -6.1972173782       0.0002690244     1.000000    0.08428233
  210       -6.1974864027      -0.0002690244     1.000000    0.08428233
  211       -6.1972173782       0.0002690244     1.000000    0.08428233
  212       -6.1974864027      -0.0002690244     1.000000    0.08428233
  213       -6.1972173782       0.0002690244     1.000000    0.08428233
  214       -6.1974864027      -0.0002690244     1.000000    0.08428233
  215       -6.1972173782       0.0002690244     1.000000    0.08428233
  216       -6.1974864027      -0.0002690244     1.000000    0.08428233
  217       -6.1972173782       0.0002690244     1.000000    0.08428233
  218       -6.1974864027      -0.0002690244     1.000000    0.08428233
  219       -6.1972173782       0.0002690244     1.000000    0.08428233
  220       -6.1974864027      -0.0002690244     1.000000    0.08428233
  221       -6.1972173782       0.0002690244     1.000000    0.08428233
  222       -6.1974864027      -0.0002690244     1.000000    0.08428233
  223       -6.1972173782       0.0002690244     1.000000    0.08428233
  224       -6.1974864027      -0.0002690244     1.000000    0.08428233
  225       -6.1972173782       0.0002690244     1.000000    0.08428233
  226       -6.1974864027      -0.0002690244     1.000000    0.08428233
  227       -6.1972173782       0.0002690244     1.000000    0.08428233
  228       -6.1974864027      -0.0002690244     1.000000    0.08428233
  229       -6.1972173782       0.0002690244     1.000000    0.08428233
  230       -6.1974864027      -0.0002690244     1.000000    0.08428233
  231       -6.1972173782       0.0002690244     1.000000    0.08428233
  232       -6.1974864027      -0.0002690244     1.000000    0.08428233
  233       -6.1972173782       0.0002690244     1.000000    0.08428233
  234       -6.1974864027      -0.0002690244     1.000000    0.08428233
  235       -6.1972173782       0.0002690244     1.000000    0.08428233
  236       -6.1974864027      -0.0002690244     1.000000    0.08428233
  237       -6.1972173782       0.0002690244     1.000000    0.08428233
  238       -6.1974864027      -0.0002690244     1.000000    0.08428233
  239       -6.1972173782       0.0002690244     1.000000    0.08428233
  240       -6.1974864027      -0.0002690244     1.000000    0.08428233
  241       -6.1972173782       0.0002690244     1.000000    0.08428233
  242       -6.1974864027      -0.0002690244     1.000000    0.08428233
  243       -6.1972173782       0.0002690244     1.000000    0.08428233
  244       -6.1974864027      -0.0002690244     1.000000    0.08428233
  245       -6.1972173782       0.0002690244     1.000000    0.08428233
  246       -6.1974864027      -0.0002690244     1.000000    0.08428233
  247       -6.1972173782       0.0002690244     1.000000    0.08428233
  248       -6.1974864027      -0.0002690244     1.000000    0.08428233
  249       -6.1972173782       0.0002690244     1.000000    0.08428233
  250       -6.1974864027      -0.0002690244     1.000000    0.08428233
  251       -6.1972173782       0.0002690244     1.000000    0.08428233
  252       -6.1974864027      -0.0002690244     1.000000    0.08428233
  253       -6.1972173782       0.0002690244     1.000000    0.08428233
  254       -6.1974864027      -0.0002690244     1.000000    0.08428233
  255       -6.1972173782       0.0002690244     1.000000    0.08428233
  256       -6.1974864027      -0.0002690244     1.000000    0.08428233
  257       -6.1972173782       0.0002690244     1.000000    0.08428233
  258       -6.1974864027      -0.0002690244     1.000000    0.08428233
  259       -6.1972173782       0.0002690244     1.000000    0.08428233
  260       -6.1974864027      -0.0002690244     1.000000    0.08428233
  261       -6.1972173782       0.0002690244     1.000000    0.08428233
  262       -6.1974864027      -0.0002690244     1.000000    0.08428233
  263       -6.1972173782       0.0002690244     1.000000    0.08428233
  264       -6.1974864027      -0.0002690244     1.000000    0.08428233
  265       -6.1972173782       0.0002690244     1.000000    0.08428233
  266       -6.1974864027      -0.0002690244     1.000000    0.08428233
  267       -6.1972173782       0.0002690244     1.000000    0.08428233
  268       -6.1974864027      -0.0002690244     1.000000    0.08428233
  269       -6.1972173782       0.0002690244     1.000000    0.08428233
  270       -6.1974864027      -0.0002690244     1.000000    0.08428233
  271       -6.1972173782       0.0002690244     1.000000    0.08428233
  272       -6.1974864027      -0.0002690244     1.000000    0.08428233
  273       -6.1972173782       0.0002690244     1.000000    0.08428233
  274       -6.1974864027      -0.0002690244     1.000000    0.08428233
  275       -6.1972173782       0.0002690244     1.000000    0.08428233
  276       -6.1974864027      -0.0002690244     1.000000    0.08428233
  277       -6.1972173782       0.0002690244     1.000000    0.08428233
  278       -6.1974864027      -0.0002690244     1.000000    0.08428233
  279       -6.1972173782       0.0002690244     1.000000    0.08428233
  280       -6.1974864027      -0.0002690244     1.000000    0.08428233
  281       -6.1972173782       0.0002690244     1.000000    0.08428233
  282       -6.1974864027      -0.0002690244     1.000000    0.08428233
  283       -6.1972173782       0.0002690244     1.000000    0.08428233
  284       -6.1974864027      -0.0002690244     1.000000    0.08428233
  285       -6.1972173782       0.0002690244     1.000000    0.08428233
  286       -6.1974864027      -0.0002690244     1.000000    0.08428233
  287       -6.1972173782       0.0002690244     1.000000    0.08428233
  288       -6.1974864027      -0.0002690244     1.000000    0.08428233
  289       -6.1972173782       0.0002690244     1.000000    0.08428233
  290       -6.1974864027      -0.0002690244     1.000000    0.08428233
  291       -6.1972173782       0.0002690244     1.000000    0.08428233
  292       -6.1974864027      -0.0002690244     1.000000    0.08428233
  293       -6.1972173782       0.0002690244     1.000000    0.08428233
  294       -6.1974864027      -0.0002690244     1.000000    0.08428233
  295       -6.1972173782       0.0002690244     1.000000    0.08428233
  296       -6.1974864027      -0.0002690244     1.000000    0.08428233
  297       -6.1972173782       0.0002690244     1.000000    0.08428233
  298       -6.1974864027      -0.0002690244     1.000000    0.08428233
  299       -6.1972173782       0.0002690244     1.000000    0.08428233
  300       -6.1974864027      -0.0002690244     1.000000    0.08428233
  301       -6.1972173782       0.0002690244     1.000000    0.08428233
  302       -6.1974864027      -0.0002690244     1.000000    0.08428233
  303       -6.1972173782       0.0002690244     1.000000    0.08428233
  304       -6.1974864027      -0.0002690244     1.000000    0.08428233
  305       -6.1972173782       0.0002690244     1.000000    0.08428233
  306       -6.1974864027      -0.0002690244     1.000000    0.08428233
  307       -6.1972173782       0.0002690244     1.000000    0.08428233
  308       -6.1974864027      -0.0002690244     1.000000    0.08428233
  309       -6.1972173782       0.0002690244     1.000000    0.08428233
  310       -6.1974864027      -0.0002690244     1.000000    0.08428233
  311       -6.1972173782       0.0002690244     1.000000    0.08428233
  312       -6.1974864027      -0.0002690244     1.000000    0.08428233
  313       -6.1972173782       0.0002690244     1.000000    0.08428233
  314       -6.1974864027      -0.0002690244     1.000000    0.08428233
  315       -6.1972173782       0.0002690244     1.000000    0.08428233
  316       -6.1974864027      -0.0002690244     1.000000    0.08428233
  317       -6.1972173782       0.0002690244     1.000000    0.08428233
  318       -6.1974864027      -0.0002690244     1.000000    0.08428233
  319       -6.1972173782       0.0002690244     1.000000    0.08428233
  320       -6.1974864027      -0.0002690244     1.000000    0.08428233
  321       -6.1972173782       0.0002690244     1.000000    0.08428233
  322       -6.1974864027      -0.0002690244     1.000000    0.08428233
  323       -6.1972173782       0.0002690244     1.000000    0.08428233
  324       -6.1974864027      -0.0002690244     1.000000    0.08428233
  325       -6.1972173782       0.0002690244     1.000000    0.08428233
  326       -6.1974864027      -0.0002690244     1.000000    0.08428233
  327       -6.1972173782       0.0002690244     1.000000    0.08428233
  328       -6.1974864027      -0.0002690244     1.000000    0.08428233
  329       -6.1972173782       0.0002690244     1.000000    0.08428233
  330       -6.1974864027      -0.0002690244     1.000000    0.08428233
  331       -6.1972173782       0.0002690244     1.000000    0.08428233
  332       -6.1974864027      -0.0002690244     1.000000    0.08428233
  333       -6.1972173782       0.0002690244     1.000000    0.08428233
  334       -6.1974864027      -0.0002690244     1.000000    0.08428233
  335       -6.1972173782       0.0002690244     1.000000    0.08428233
  336       -6.1974864027      -0.0002690244     1.000000    0.08428233
  337       -6.1972173782       0.0002690244     1.000000    0.08428233
  338       -6.1974864027      -0.0002690244     1.000000    0.08428233
  339       -6.1972173782       0.0002690244     1.000000    0.08428233
  340       -6.1974864027      -0.0002690244     1.000000    0.08428233
  341       -6.1972173782       0.0002690244     1.000000    0.08428233
  342       -6.1974864027      -0.0002690244     1.000000    0.08428233
  343       -6.1972173782       0.0002690244     1.000000    0.08428233
  344       -6.1974864027      -0.0002690244     1.000000    0.08428233
  345       -6.1972173782       0.0002690244     1.000000    0.08428233
  346       -6.1974864027      -0.0002690244     1.000000    0.08428233
  347       -6.1972173782       0.0002690244     1.000000    0.08428233
  348       -6.1974864027      -0.0002690244     1.000000    0.08428233
  349       -6.1972173782       0.0002690244     1.000000    0.08428233
  350       -6.1974864027      -0.0002690244     1.000000    0.08428233
  351       -6.1972173782       0.0002690244     1.000000    0.08428233
  352       -6.1974864027      -0.0002690244     1.000000    0.08428233
  353       -6.1972173782       0.0002690244     1.000000    0.08428233
  354       -6.1974864027      -0.0002690244     1.000000    0.08428233
  355       -6.1972173782       0.0002690244     1.000000    0.08428233
  356       -6.1974864027      -0.0002690244     1.000000    0.08428233
  357       -6.1972173782       0.0002690244     1.000000    0.08428233
  358       -6.1974864027      -0.0002690244     1.000000    0.08428233
  359       -6.1972173782       0.0002690244     1.000000    0.08428233
  360       -6.1974864027      -0.0002690244     1.000000    0.08428233
  361       -6.1972173782       0.0002690244     1.000000    0.08428233
  362       -6.1974864027      -0.0002690244     1.000000    0.08428233
  363       -6.1972173782       0.0002690244     1.000000    0.08428233
  364       -6.1974864027      -0.0002690244     1.000000    0.08428233
  365       -6.1972173782       0.0002690244     1.000000    0.08428233
  366       -6.1974864027      -0.0002690244     1.000000    0.08428233
  367       -6.1972173782       0.0002690244     1.000000    0.08428233
  368       -6.1974864027      -0.0002690244     1.000000    0.08428233
  369       -6.1972173782       0.0002690244     1.000000    0.08428233
  370       -6.1974864027      -0.0002690244     1.000000    0.08428233
  371       -6.1972173782       0.0002690244     1.000000    0.08428233
  372       -6.1974864027      -0.0002690244     1.000000    0.08428233
  373       -6.1972173782       0.0002690244     1.000000    0.08428233
  374       -6.1974864027      -0.0002690244     1.000000    0.08428233
  375       -6.1972173782       0.0002690244     1.000000    0.08428233
  376       -6.1974864027      -0.0002690244     1.000000    0.08428233
  377       -6.1972173782       0.0002690244     1.000000    0.08428233
  378       -6.1974864027      -0.0002690244     1.000000    0.08428233
  379       -6.1972173782       0.0002690244     1.000000    0.08428233
  380       -6.1974864027      -0.0002690244     1.000000    0.08428233
  381       -6.1972173782       0.0002690244     1.000000    0.08428233
  382       -6.1974864027      -0.0002690244     1.000000    0.08428233
  383       -6.1972173782       0.0002690244     1.000000    0.08428233
  384       -6.1974864027      -0.0002690244     1.000000    0.08428233
  385       -6.1972173782       0.0002690244     1.000000    0.08428233
  386       -6.1974864027      -0.0002690244     1.000000    0.08428233
  387       -6.1972173782       0.0002690244     1.000000    0.08428233
  388       -6.1974864027      -0.0002690244     1.000000    0.08428233
  389       -6.1972173782       0.0002690244     1.000000    0.08428233
  390       -6.1974864027      -0.0002690244     1.000000    0.08428233
  391       -6.1972173782       0.0002690244     1.000000    0.08428233
  392       -6.1974864027      -0.0002690244     1.000000    0.08428233
  393       -6.1972173782       0.0002690244     1.000000    0.08428233
  394       -6.1974864027      -0.0002690244     1.000000    0.08428233
  395       -6.1972173782       0.0002690244     1.000000    0.08428233
  396       -6.1974864027      -0.0002690244     1.000000    0.08428233
  397       -6.1972173782       0.0002690244     1.000000    0.08428233
  398       -6.1974864027      -0.0002690244     1.000000    0.08428233
  399       -6.1972173782       0.0002690244     1.000000    0.08428233
  400       -6.1974864027      -0.0002690244     1.000000    0.08428233
  401       -6.1972173782       0.0002690244     1.000000    0.08428233
  402       -6.1974864027      -0.0002690244     1.000000    0.08428233
  403       -6.1972173782       0.0002690244     1.000000    0.08428233
  404       -6.1974864027      -0.0002690244     1.000000    0.08428233
  405       -6.1972173782       0.0002690244     1.000000    0.08428233
  406       -6.1974864027      -0.0002690244     1.000000    0.08428233
  407       -6.1972173782       0.0002690244     1.000000    0.08428233
  408       -6.1974864027      -0.0002690244     1.000000    0.08428233
  409       -6.1972173782       0.0002690244     1.000000    0.08428233
  410       -6.1974864027      -0.0002690244     1.000000    0.08428233
  411       -6.1972173782       0.0002690244     1.000000    0.08428233
  412       -6.1974864027      -0.0002690244     1.000000    0.08428233
  413       -6.1972173782       0.0002690244     1.000000    0.08428233
  414       -6.1974864027      -0.0002690244     1.000000    0.08428233
  415       -6.1972173782       0.0002690244     1.000000    0.08428233
  416       -6.1974864027      -0.0002690244     1.000000    0.08428233
  417       -6.1972173782       0.0002690244     1.000000    0.08428233
  418       -6.1974864027      -0.0002690244     1.000000    0.08428233
  419       -6.1972173782       0.0002690244     1.000000    0.08428233
  420       -6.1974864027      -0.0002690244     1.000000    0.08428233
  421       -6.1972173782       0.0002690244     1.000000    0.08428233
  422       -6.1974864027      -0.0002690244     1.000000    0.08428233
  423       -6.1972173782       0.0002690244     1.000000    0.08428233
  424       -6.1974864027      -0.0002690244     1.000000    0.08428233
  425       -6.1972173782       0.0002690244     1.000000    0.08428233
  426       -6.1974864027      -0.0002690244     1.000000    0.08428233
  427       -6.1972173782       0.0002690244     1.000000    0.08428233
  428       -6.1974864027      -0.0002690244     1.000000    0.08428233
  429       -6.1972173782       0.0002690244     1.000000    0.08428233
  430       -6.1974864027      -0.0002690244     1.000000    0.08428233
  431       -6.1972173782       0.0002690244     1.000000    0.08428233
  432       -6.1974864027      -0.0002690244     1.000000    0.08428233
  433       -6.1972173782       0.0002690244     1.000000    0.08428233
  434       -6.1974864027      -0.0002690244     1.000000    0.08428233
  435       -6.1972173782       0.0002690244     1.000000    0.08428233
  436       -6.1974864027      -0.0002690244     1.000000    0.08428233
  437       -6.1972173782       0.0002690244     1.000000    0.08428233
  438       -6.1974864027      -0.0002690244     1.000000    0.08428233
  439       -6.1972173782       0.0002690244     1.000000    0.08428233
  440       -6.1974864027      -0.0002690244     1.000000    0.08428233
  441       -6.1972173782       0.0002690244     1.000000    0.08428233
  442       -6.1974864027      -0.0002690244     1.000000    0.08428233
  443       -6.1972173782       0.0002690244     1.000000    0.08428233
  444       -6.1974864027      -0.0002690244     1.000000    0.08428233
  445       -6.1972173782       0.0002690244     1.000000    0.08428233
  446       -6.1974864027      -0.0002690244     1.000000    0.08428233
  447       -6.1972173782       0.0002690244     1.000000    0.08428233
  448       -6.1974864027      -0.0002690244     1.000000    0.08428233
  449       -6.1972173782       0.0002690244     1.000000    0.08428233
  450       -6.1974864027      -0.0002690244     1.000000    0.08428233
  451       -6.1972173782       0.0002690244     1.000000    0.08428233
  452       -6.1974864027      -0.0002690244     1.000000    0.08428233
  453       -6.1972173782       0.0002690244     1.000000    0.08428233
  454       -6.1974864027      -0.0002690244     1.000000    0.08428233
  455       -6.1972173782       0.0002690244     1.000000    0.08428233
  456       -6.1974864027      -0.0002690244     1.000000    0.08428233
  457       -6.1972173782       0.0002690244     1.000000    0.08428233
  458       -6.1974864027      -0.0002690244     1.000000    0.08428233
  459       -6.1972173782       0.0002690244     1.000000    0.08428233
  460       -6.1974864027      -0.0002690244     1.000000    0.08428233
  461       -6.1972173782       0.0002690244     1.000000    0.08428233
  462       -6.1974864027      -0.0002690244     1.000000    0.08428233
  463       -6.1972173782       0.0002690244     1.000000    0.08428233
  464       -6.1974864027      -0.0002690244     1.000000    0.08428233
  465       -6.1972173782       0.0002690244     1.000000    0.08428233
  466       -6.1974864027      -0.0002690244     1.000000    0.08428233
  467       -6.1972173782       0.0002690244     1.000000    0.08428233
  468       -6.1974864027      -0.0002690244     1.000000    0.08428233
  469       -6.1972173782       0.0002690244     1.000000    0.08428233
  470       -6.1974864027      -0.0002690244     1.000000    0.08428233
  471       -6.1972173782       0.0002690244     1.000000    0.08428233
  472       -6.1974864027      -0.0002690244     1.000000    0.08428233
  473       -6.1972173782       0.0002690244     1.000000    0.08428233
  474       -6.1974864027      -0.0002690244     1.000000    0.08428233
  475       -6.1972173782       0.0002690244     1.000000    0.08428233
  476       -6.1974864027      -0.0002690244     1.000000    0.08428233
  477       -6.1972173782       0.0002690244     1.000000    0.08428233
  478       -6.1974864027      -0.0002690244     1.000000    0.08428233
  479       -6.1972173782       0.0002690244     1.000000    0.08428233
  480       -6.1974864027      -0.0002690244     1.000000    0.08428233
  481       -6.1972173782       0.0002690244     1.000000    0.08428233
  482       -6.1974864027      -0.0002690244     1.000000    0.08428233
  483       -6.1972173782       0.0002690244     1.000000    0.08428233
  484       -6.1974864027      -0.0002690244     1.000000    0.08428233
  485       -6.1972173782       0.0002690244     1.000000    0.08428233
  486       -6.1974864027      -0.0002690244     1.000000    0.08428233
  487       -6.1972173782       0.0002690244     1.000000    0.08428233
  488       -6.1974864027      -0.0002690244     1.000000    0.08428233
  489       -6.1972173782       0.0002690244     1.000000    0.08428233
  490       -6.1974864027      -0.0002690244     1.000000    0.08428233
  491       -6.1972173782       0.0002690244     1.000000    0.08428233
  492       -6.1974864027      -0.0002690244     1.000000    0.08428233
  493       -6.1972173782       0.0002690244     1.000000    0.08428233
  494       -6.1974864027      -0.0002690244     1.000000    0.08428233
  495       -6.1972173782       0.0002690244     1.000000    0.08428233
  496       -6.1974864027      -0.0002690244     1.000000    0.08428233
  497       -6.1972173782       0.0002690244     1.000000    0.08428233
  498       -6.1974864027      -0.0002690244     1.000000    0.08428233
  499       -6.1972173782       0.0002690244     1.000000    0.08428233
  500       -6.1974864027      -0.0002690244     1.000000    0.08428233
  501       -6.1972173782       0.0002690244     1.000000    0.08428233
  502       -6.1974864027      -0.0002690244     1.000000    0.08428233
  503       -6.1972173782       0.0002690244     1.000000    0.08428233
  504       -6.1974864027      -0.0002690244     1.000000    0.08428233
  505       -6.1972173782       0.0002690244     1.000000    0.08428233
  506       -6.1974864027      -0.0002690244     1.000000    0.08428233
  507       -6.1972173782       0.0002690244     1.000000    0.08428233
  508       -6.1974864027      -0.0002690244     1.000000    0.08428233
  509       -6.1972173782       0.0002690244     1.000000    0.08428233
  510       -6.1974864027      -0.0002690244     1.000000    0.08428233
  511       -6.1972173782       0.0002690244     1.000000    0.08428233
  512       -6.1974864027      -0.0002690244     1.000000    0.08428233
  513       -6.1972173782       0.0002690244     1.000000    0.08428233
  514       -6.1974864027      -0.0002690244     1.000000    0.08428233
  515       -6.1972173782       0.0002690244     1.000000    0.08428233
  516       -6.1974864027      -0.0002690244     1.000000    0.08428233
  517       -6.1972173782       0.0002690244     1.000000    0.08428233
  518       -6.1974864027      -0.0002690244     1.000000    0.08428233
  519       -6.1972173782       0.0002690244     1.000000    0.08428233
  520       -6.1974864027      -0.0002690244     1.000000    0.08428233
  521       -6.1972173782       0.0002690244     1.000000    0.08428233
  522       -6.1974864027      -0.0002690244     1.000000    0.08428233
  523       -6.1972173782       0.0002690244     1.000000    0.08428233
  524       -6.1974864027      -0.0002690244     1.000000    0.08428233
  525       -6.1972173782       0.0002690244     1.000000    0.08428233
  526       -6.1974864027      -0.0002690244     1.000000    0.08428233
  527       -6.1972173782       0.0002690244     1.000000    0.08428233
  528       -6.1974864027      -0.0002690244     1.000000    0.08428233
  529       -6.1972173782       0.0002690244     1.000000    0.08428233
  530       -6.1974864027      -0.0002690244     1.000000    0.08428233
  531       -6.1972173782       0.0002690244     1.000000    0.08428233
  532       -6.1974864027      -0.0002690244     1.000000    0.08428233
  533       -6.1972173782       0.0002690244     1.000000    0.08428233
  534       -6.1974864027      -0.0002690244     1.000000    0.08428233
  535       -6.1972173782       0.0002690244     1.000000    0.08428233
  536       -6.1974864027      -0.0002690244     1.000000    0.08428233
  537       -6.1972173782       0.0002690244     1.000000    0.08428233
  538       -6.1974864027      -0.0002690244     1.000000    0.08428233
  539       -6.1972173782       0.0002690244     1.000000    0.08428233
  540       -6.1974864027      -0.0002690244     1.000000    0.08428233
  541       -6.1972173782       0.0002690244     1.000000    0.08428233
  542       -6.1974864027      -0.0002690244     1.000000    0.08428233
  543       -6.1972173782       0.0002690244     1.000000    0.08428233
  544       -6.1974864027      -0.0002690244     1.000000    0.08428233
  545       -6.1972173782       0.0002690244     1.000000    0.08428233
  546       -6.1974864027      -0.0002690244     1.000000    0.08428233
  547       -6.1972173782       0.0002690244     1.000000    0.08428233
  548       -6.1974864027      -0.0002690244     1.000000    0.08428233
  549       -6.1972173782       0.0002690244     1.000000    0.08428233
  550       -6.1974864027      -0.0002690244     1.000000    0.08428233
  551       -6.1972173782       0.0002690244     1.000000    0.08428233
  552       -6.1974864027      -0.0002690244     1.000000    0.08428233
  553       -6.1972173782       0.0002690244     1.000000    0.08428233
  554       -6.1974864027      -0.0002690244     1.000000    0.08428233
  555       -6.1972173782       0.0002690244     1.000000    0.08428233
  556       -6.1974864027      -0.0002690244     1.000000    0.08428233
  557       -6.1972173782       0.0002690244     1.000000    0.08428233
  558       -6.1974864027      -0.0002690244     1.000000    0.08428233
  559       -6.1972173782       0.0002690244     1.000000    0.08428233
  560       -6.1974864027      -0.0002690244     1.000000    0.08428233
  561       -6.1972173782       0.0002690244     1.000000    0.08428233
  562       -6.1974864027      -0.0002690244     1.000000    0.08428233
  563       -6.1972173782       0.0002690244     1.000000    0.08428233
  564       -6.1974864027      -0.0002690244     1.000000    0.08428233
  565       -6.1972173782       0.0002690244     1.000000    0.08428233
  566       -6.1974864027      -0.0002690244     1.000000    0.08428233
  567       -6.1972173782       0.0002690244     1.000000    0.08428233
  568       -6.1974864027      -0.0002690244     1.000000    0.08428233
  569       -6.1972173782       0.0002690244     1.000000    0.08428233
  570       -6.1974864027      -0.0002690244     1.000000    0.08428233
  571       -6.1972173782       0.0002690244     1.000000    0.08428233
  572       -6.1974864027      -0.0002690244     1.000000    0.08428233
  573       -6.1972173782       0.0002690244     1.000000    0.08428233
  574       -6.1974864027      -0.0002690244     1.000000    0.08428233
  575       -6.1972173782       0.0002690244     1.000000    0.08428233
  576       -6.1974864027      -0.0002690244     1.000000    0.08428233
  577       -6.1972173782       0.0002690244     1.000000    0.08428233
  578       -6.1974864027      -0.0002690244     1.000000    0.08428233
  579       -6.1972173782       0.0002690244     1.000000    0.08428233
  580       -6.1974864027      -0.0002690244     1.000000    0.08428233
  581       -6.1972173782       0.0002690244     1.000000    0.08428233
  582       -6.1974864027      -0.0002690244     1.000000    0.08428233
  583       -6.1972173782       0.0002690244     1.000000    0.08428233
  584       -6.1974864027      -0.0002690244     1.000000    0.08428233
  585       -6.1972173782       0.0002690244     1.000000    0.08428233
  586       -6.1974864027      -0.0002690244     1.000000    0.08428233
  587       -6.1972173782       0.0002690244     1.000000    0.08428233
  588       -6.1974864027      -0.0002690244     1.000000    0.08428233
  589       -6.1972173782       0.0002690244     1.000000    0.08428233
  590       -6.1974864027      -0.0002690244     1.000000    0.08428233
  591       -6.1972173782       0.0002690244     1.000000    0.08428233
  592       -6.1974864027      -0.0002690244     1.000000    0.08428233
  593       -6.1972173782       0.0002690244     1.000000    0.08428233
  594       -6.1974864027      -0.0002690244     1.000000    0.08428233
  595       -6.1972173782       0.0002690244     1.000000    0.08428233
  596       -6.1974864027      -0.0002690244     1.000000    0.08428233
  597       -6.1972173782       0.0002690244     1.000000    0.08428233
  598       -6.1974864027      -0.0002690244     1.000000    0.08428233
  599       -6.1972173782       0.0002690244     1.000000    0.08428233
  600       -6.1974864027      -0.0002690244     1.000000    0.08428233
  601       -6.1972173782       0.0002690244     1.000000    0.08428233
  602       -6.1974864027      -0.0002690244     1.000000    0.08428233
  603       -6.1972173782       0.0002690244     1.000000    0.08428233
  604       -6.1974864027      -0.0002690244     1.000000    0.08428233
  605       -6.1972173782       0.0002690244     1.000000    0.08428233
  606       -6.1974864027      -0.0002690244     1.000000    0.08428233
  607       -6.1972173782       0.0002690244     1.000000    0.08428233
  608       -6.1974864027      -0.0002690244     1.000000    0.08428233
  609       -6.1972173782       0.0002690244     1.000000    0.08428233
  610       -6.1974864027      -0.0002690244     1.000000    0.08428233
  611       -6.1972173782       0.0002690244     1.000000    0.08428233
  612       -6.1974864027      -0.0002690244     1.000000    0.08428233
  613       -6.1972173782       0.0002690244     1.000000    0.08428233
  614       -6.1974864027      -0.0002690244     1.000000    0.08428233
  615       -6.1972173782       0.0002690244     1.000000    0.08428233
  616       -6.1974864027      -0.0002690244     1.000000    0.08428233
  617       -6.1972173782       0.0002690244     1.000000    0.08428233
  618       -6.1974864027      -0.0002690244     1.000000    0.08428233
  619       -6.1972173782       0.0002690244     1.000000    0.08428233
  620       -6.1974864027      -0.0002690244     1.000000    0.08428233
  621       -6.1972173782       0.0002690244     1.000000    0.08428233
  622       -6.1974864027      -0.0002690244     1.000000    0.08428233
  623       -6.1972173782       0.0002690244     1.000000    0.08428233
  624       -6.1974864027      -0.0002690244     1.000000    0.08428233
  625       -6.1972173782       0.0002690244     1.000000    0.08428233
  626       -6.1974864027      -0.0002690244     1.000000    0.08428233
  627       -6.1972173782       0.0002690244     1.000000    0.08428233
  628       -6.1974864027      -0.0002690244     1.000000    0.08428233
  629       -6.1972173782       0.0002690244     1.000000    0.08428233
  630       -6.1974864027      -0.0002690244     1.000000    0.08428233
  631       -6.1972173782       0.0002690244     1.000000    0.08428233
  632       -6.1974864027      -0.0002690244     1.000000    0.08428233
  633       -6.1972173782       0.0002690244     1.000000    0.08428233
  634       -6.1974864027      -0.0002690244     1.000000    0.08428233
  635       -6.1972173782       0.0002690244     1.000000    0.08428233
  636       -6.1974864027      -0.0002690244     1.000000    0.08428233
  637       -6.1972173782       0.0002690244     1.000000    0.08428233
  638       -6.1974864027      -0.0002690244     1.000000    0.08428233
  639       -6.1972173782       0.0002690244     1.000000    0.08428233
  640       -6.1974864027      -0.0002690244     1.000000    0.08428233
  641       -6.1972173782       0.0002690244     1.000000    0.08428233
  642       -6.1974864027      -0.0002690244     1.000000    0.08428233
  643       -6.1972173782       0.0002690244     1.000000    0.08428233
  644       -6.1974864027      -0.0002690244     1.000000    0.08428233
  645       -6.1972173782       0.0002690244     1.000000    0.08428233
  646       -6.1974864027      -0.0002690244     1.000000    0.08428233
  647       -6.1972173782       0.0002690244     1.000000    0.08428233
  648       -6.1974864027      -0.0002690244     1.000000    0.08428233
  649       -6.1972173782       0.0002690244     1.000000    0.08428233
  650       -6.1974864027      -0.0002690244     1.000000    0.08428233
  651       -6.1972173782       0.0002690244     1.000000    0.08428233
  652       -6.1974864027      -0.0002690244     1.000000    0.08428233
  653       -6.1972173782       0.0002690244     1.000000    0.08428233
  654       -6.1974864027      -0.0002690244     1.000000    0.08428233
  655       -6.1972173782       0.0002690244     1.000000    0.08428233
  656       -6.1974864027      -0.0002690244     1.000000    0.08428233
  657       -6.1972173782       0.0002690244     1.000000    0.08428233
  658       -6.1974864027      -0.0002690244     1.000000    0.08428233
  659       -6.1972173782       0.0002690244     1.000000    0.08428233
  660       -6.1974864027      -0.0002690244     1.000000    0.08428233
  661       -6.1972173782       0.0002690244     1.000000    0.08428233
  662       -6.1974864027      -0.0002690244     1.000000    0.08428233
  663       -6.1972173782       0.0002690244     1.000000    0.08428233
  664       -6.1974864027      -0.0002690244     1.000000    0.08428233
  665       -6.1972173782       0.0002690244     1.000000    0.08428233
  666       -6.1974864027      -0.0002690244     1.000000    0.08428233
  667       -6.1972173782       0.0002690244     1.000000    0.08428233
  668       -6.1974864027      -0.0002690244     1.000000    0.08428233
  669       -6.1972173782       0.0002690244     1.000000    0.08428233
  670       -6.1974864027      -0.0002690244     1.000000    0.08428233
  671       -6.1972173782       0.0002690244     1.000000    0.08428233
  672       -6.1974864027      -0.0002690244     1.000000    0.08428233
  673       -6.1972173782       0.0002690244     1.000000    0.08428233
  674       -6.1974864027      -0.0002690244     1.000000    0.08428233
  675       -6.1972173782       0.0002690244     1.000000    0.08428233
  676       -6.1974864027      -0.0002690244     1.000000    0.08428233
  677       -6.1972173782       0.0002690244     1.000000    0.08428233
  678       -6.1974864027      -0.0002690244     1.000000    0.08428233
  679       -6.1972173782       0.0002690244     1.000000    0.08428233
  680       -6.1974864027      -0.0002690244     1.000000    0.08428233
  681       -6.1972173782       0.0002690244     1.000000    0.08428233
  682       -6.1974864027      -0.0002690244     1.000000    0.08428233
  683       -6.1972173782       0.0002690244     1.000000    0.08428233
  684       -6.1974864027      -0.0002690244     1.000000    0.08428233
  685       -6.1972173782       0.0002690244     1.000000    0.08428233
  686       -6.1974864027      -0.0002690244     1.000000    0.08428233
  687       -6.1972173782       0.0002690244     1.000000    0.08428233
  688       -6.1974864027      -0.0002690244     1.000000    0.08428233
  689       -6.1972173782       0.0002690244     1.000000    0.08428233
  690       -6.1974864027      -0.0002690244     1.000000    0.08428233
  691       -6.1972173782       0.0002690244     1.000000    0.08428233
  692       -6.1974864027      -0.0002690244     1.000000    0.08428233
  693       -6.1972173782       0.0002690244     1.000000    0.08428233
  694       -6.1974864027      -0.0002690244     1.000000    0.08428233
  695       -6.1972173782       0.0002690244     1.000000    0.08428233
  696       -6.1974864027      -0.0002690244     1.000000    0.08428233
  697       -6.1972173782       0.0002690244     1.000000    0.08428233
  698       -6.1974864027      -0.0002690244     1.000000    0.08428233
  699       -6.1972173782       0.0002690244     1.000000    0.08428233
  700       -6.1974864027      -0.0002690244     1.000000    0.08428233
  701       -6.1972173782       0.0002690244     1.000000    0.08428233
  702       -6.1974864027      -0.0002690244     1.000000    0.08428233
  703       -6.1972173782       0.0002690244     1.000000    0.08428233
  704       -6.1974864027      -0.0002690244     1.000000    0.08428233
  705       -6.1972173782       0.0002690244     1.000000    0.08428233
  706       -6.1974864027      -0.0002690244     1.000000    0.08428233
  707       -6.1972173782       0.0002690244     1.000000    0.08428233
  708       -6.1974864027      -0.0002690244     1.000000    0.08428233
  709       -6.1972173782       0.0002690244     1.000000    0.08428233
  710       -6.1974864027      -0.0002690244     1.000000    0.08428233
  711       -6.1972173782       0.0002690244     1.000000    0.08428233
  712       -6.1974864027      -0.0002690244     1.000000    0.08428233
  713       -6.1972173782       0.0002690244     1.000000    0.08428233
  714       -6.1974864027      -0.0002690244     1.000000    0.08428233
  715       -6.1972173782       0.0002690244     1.000000    0.08428233
  716       -6.1974864027      -0.0002690244     1.000000    0.08428233
  717       -6.1972173782       0.0002690244     1.000000    0.08428233
  718       -6.1974864027      -0.0002690244     1.000000    0.08428233
  719       -6.1972173782       0.0002690244     1.000000    0.08428233
  720       -6.1974864027      -0.0002690244     1.000000    0.08428233
  721       -6.1972173782       0.0002690244     1.000000    0.08428233
  722       -6.1974864027      -0.0002690244     1.000000    0.08428233
  723       -6.1972173782       0.0002690244     1.000000    0.08428233
  724       -6.1974864027      -0.0002690244     1.000000    0.08428233
  725       -6.1972173782       0.0002690244     1.000000    0.08428233
  726       -6.1974864027      -0.0002690244     1.000000    0.08428233
  727       -6.1972173782       0.0002690244     1.000000    0.08428233
  728       -6.1974864027      -0.0002690244     1.000000    0.08428233
  729       -6.1972173782       0.0002690244     1.000000    0.08428233
  730       -6.1974864027      -0.0002690244     1.000000    0.08428233
  731       -6.1972173782       0.0002690244     1.000000    0.08428233
  732       -6.1974864027      -0.0002690244     1.000000    0.08428233
  733       -6.1972173782       0.0002690244     1.000000    0.08428233
  734       -6.1974864027      -0.0002690244     1.000000    0.08428233
  735       -6.1972173782       0.0002690244     1.000000    0.08428233
  736       -6.1974864027      -0.0002690244     1.000000    0.08428233
  737       -6.1972173782       0.0002690244     1.000000    0.08428233
  738       -6.1974864027      -0.0002690244     1.000000    0.08428233
  739       -6.1972173782       0.0002690244     1.000000    0.08428233
  740       -6.1974864027      -0.0002690244     1.000000    0.08428233
  741       -6.1972173782       0.0002690244     1.000000    0.08428233
  742       -6.1974864027      -0.0002690244     1.000000    0.08428233
  743       -6.1972173782       0.0002690244     1.000000    0.08428233
  744       -6.1974864027      -0.0002690244     1.000000    0.08428233
  745       -6.1972173782       0.0002690244     1.000000    0.08428233
  746       -6.1974864027      -0.0002690244     1.000000    0.08428233
  747       -6.1972173782       0.0002690244     1.000000    0.08428233
  748       -6.1974864027      -0.0002690244     1.000000    0.08428233
  749       -6.1972173782       0.0002690244     1.000000    0.08428233
  750       -6.1974864027      -0.0002690244     1.000000    0.08428233
  751       -6.1972173782       0.0002690244     1.000000    0.08428233
  752       -6.1974864027      -0.0002690244     1.000000    0.08428233
  753       -6.1972173782       0.0002690244     1.000000    0.08428233
  754       -6.1974864027      -0.0002690244     1.000000    0.08428233
  755       -6.1972173782       0.0002690244     1.000000    0.08428233
  756       -6.1974864027      -0.0002690244     1.000000    0.08428233
  757       -6.1972173782       0.0002690244     1.000000    0.08428233
  758       -6.1974864027      -0.0002690244     1.000000    0.08428233
  759       -6.1972173782       0.0002690244     1.000000    0.08428233
  760       -6.1974864027      -0.0002690244     1.000000    0.08428233
  761       -6.1972173782       0.0002690244     1.000000    0.08428233
  762       -6.1974864027      -0.0002690244     1.000000    0.08428233
  763       -6.1972173782       0.0002690244     1.000000    0.08428233
  764       -6.1974864027      -0.0002690244     1.000000    0.08428233
  765       -6.1972173782       0.0002690244     1.000000    0.08428233
  766       -6.1974864027      -0.0002690244     1.000000    0.08428233
  767       -6.1972173782       0.0002690244     1.000000    0.08428233
  768       -6.1974864027      -0.0002690244     1.000000    0.08428233
  769       -6.1972173782       0.0002690244     1.000000    0.08428233
  770       -6.1974864027      -0.0002690244     1.000000    0.08428233
  771       -6.1972173782       0.0002690244     1.000000    0.08428233
  772       -6.1974864027      -0.0002690244     1.000000    0.08428233
  773       -6.1972173782       0.0002690244     1.000000    0.08428233
  774       -6.1974864027      -0.0002690244     1.000000    0.08428233
  775       -6.1972173782       0.0002690244     1.000000    0.08428233
  776       -6.1974864027      -0.0002690244     1.000000    0.08428233
  777       -6.1972173782       0.0002690244     1.000000    0.08428233
  778       -6.1974864027      -0.0002690244     1.000000    0.08428233
  779       -6.1972173782       0.0002690244     1.000000    0.08428233
  780       -6.1974864027      -0.0002690244     1.000000    0.08428233
  781       -6.1972173782       0.0002690244     1.000000    0.08428233
  782       -6.1974864027      -0.0002690244     1.000000    0.08428233
  783       -6.1972173782       0.0002690244     1.000000    0.08428233
  784       -6.1974864027      -0.0002690244     1.000000    0.08428233
  785       -6.1972173782       0.0002690244     1.000000    0.08428233
  786       -6.1974864027      -0.0002690244     1.000000    0.08428233
  787       -6.1972173782       0.0002690244     1.000000    0.08428233
  788       -6.1974864027      -0.0002690244     1.000000    0.08428233
  789       -6.1972173782       0.0002690244     1.000000    0.08428233
  790       -6.1974864027      -0.0002690244     1.000000    0.08428233
  791       -6.1972173782       0.0002690244     1.000000    0.08428233
  792       -6.1974864027      -0.0002690244     1.000000    0.08428233
  793       -6.1972173782       0.0002690244     1.000000    0.08428233
  794       -6.1974864027      -0.0002690244     1.000000    0.08428233
  795       -6.1972173782       0.0002690244     1.000000    0.08428233
  796       -6.1974864027      -0.0002690244     1.000000    0.08428233
  797       -6.1972173782       0.0002690244     1.000000    0.08428233
  798       -6.1974864027      -0.0002690244     1.000000    0.08428233
  799       -6.1972173782       0.0002690244     1.000000    0.08428233
  800       -6.1974864027      -0.0002690244     1.000000    0.08428233
  801       -6.1972173782       0.0002690244     1.000000    0.08428233
  802       -6.1974864027      -0.0002690244     1.000000    0.08428233
  803       -6.1972173782       0.0002690244     1.000000    0.08428233
  804       -6.1974864027      -0.0002690244     1.000000    0.08428233
  805       -6.1972173782       0.0002690244     1.000000    0.08428233
  806       -6.1974864027      -0.0002690244     1.000000    0.08428233
  807       -6.1972173782       0.0002690244     1.000000    0.08428233
  808       -6.1974864027      -0.0002690244     1.000000    0.08428233
  809       -6.1972173782       0.0002690244     1.000000    0.08428233
  810       -6.1974864027      -0.0002690244     1.000000    0.08428233
  811       -6.1972173782       0.0002690244     1.000000    0.08428233
  812       -6.1974864027      -0.0002690244     1.000000    0.08428233
  813       -6.1972173782       0.0002690244     1.000000    0.08428233
  814       -6.1974864027      -0.0002690244     1.000000    0.08428233
  815       -6.1972173782       0.0002690244     1.000000    0.08428233
  816       -6.1974864027      -0.0002690244     1.000000    0.08428233
  817       -6.1972173782       0.0002690244     1.000000    0.08428233
  818       -6.1974864027      -0.0002690244     1.000000    0.08428233
  819       -6.1972173782       0.0002690244     1.000000    0.08428233
  820       -6.1974864027      -0.0002690244     1.000000    0.08428233
  821       -6.1972173782       0.0002690244     1.000000    0.08428233
  822       -6.1974864027      -0.0002690244     1.000000    0.08428233
  823       -6.1972173782       0.0002690244     1.000000    0.08428233
  824       -6.1974864027      -0.0002690244     1.000000    0.08428233
  825       -6.1972173782       0.0002690244     1.000000    0.08428233
  826       -6.1974864027      -0.0002690244     1.000000    0.08428233
  827       -6.1972173782       0.0002690244     1.000000    0.08428233
  828       -6.1974864027      -0.0002690244     1.000000    0.08428233
  829       -6.1972173782       0.0002690244     1.000000    0.08428233
  830       -6.1974864027      -0.0002690244     1.000000    0.08428233
  831       -6.1972173782       0.0002690244     1.000000    0.08428233
  832       -6.1974864027      -0.0002690244     1.000000    0.08428233
  833       -6.1972173782       0.0002690244     1.000000    0.08428233
  834       -6.1974864027      -0.0002690244     1.000000    0.08428233
  835       -6.1972173782       0.0002690244     1.000000    0.08428233
  836       -6.1974864027      -0.0002690244     1.000000    0.08428233
  837       -6.1972173782       0.0002690244     1.000000    0.08428233
  838       -6.1974864027      -0.0002690244     1.000000    0.08428233
  839       -6.1972173782       0.0002690244     1.000000    0.08428233
  840       -6.1974864027      -0.0002690244     1.000000    0.08428233
  841       -6.1972173782       0.0002690244     1.000000    0.08428233
  842       -6.1974864027      -0.0002690244     1.000000    0.08428233
  843       -6.1972173782       0.0002690244     1.000000    0.08428233
  844       -6.1974864027      -0.0002690244     1.000000    0.08428233
  845       -6.1972173782       0.0002690244     1.000000    0.08428233
  846       -6.1974864027      -0.0002690244     1.000000    0.08428233
  847       -6.1972173782       0.0002690244     1.000000    0.08428233
  848       -6.1974864027      -0.0002690244     1.000000    0.08428233
  849       -6.1972173782       0.0002690244     1.000000    0.08428233
  850       -6.1974864027      -0.0002690244     1.000000    0.08428233
  851       -6.1972173782       0.0002690244     1.000000    0.08428233
  852       -6.1974864027      -0.0002690244     1.000000    0.08428233
  853       -6.1972173782       0.0002690244     1.000000    0.08428233
  854       -6.1974864027      -0.0002690244     1.000000    0.08428233
  855       -6.1972173782       0.0002690244     1.000000    0.08428233
  856       -6.1974864027      -0.0002690244     1.000000    0.08428233
  857       -6.1972173782       0.0002690244     1.000000    0.08428233
  858       -6.1974864027      -0.0002690244     1.000000    0.08428233
  859       -6.1972173782       0.0002690244     1.000000    0.08428233
  860       -6.1974864027      -0.0002690244     1.000000    0.08428233
  861       -6.1972173782       0.0002690244     1.000000    0.08428233
  862       -6.1974864027      -0.0002690244     1.000000    0.08428233
  863       -6.1972173782       0.0002690244     1.000000    0.08428233
  864       -6.1974864027      -0.0002690244     1.000000    0.08428233
  865       -6.1972173782       0.0002690244     1.000000    0.08428233
  866       -6.1974864027      -0.0002690244     1.000000    0.08428233
  867       -6.1972173782       0.0002690244     1.000000    0.08428233
  868       -6.1974864027      -0.0002690244     1.000000    0.08428233
  869       -6.1972173782       0.0002690244     1.000000    0.08428233
  870       -6.1974864027      -0.0002690244     1.000000    0.08428233
  871       -6.1972173782       0.0002690244     1.000000    0.08428233
  872       -6.1974864027      -0.0002690244     1.000000    0.08428233
  873       -6.1972173782       0.0002690244     1.000000    0.08428233
  874       -6.1974864027      -0.0002690244     1.000000    0.08428233
  875       -6.1972173782       0.0002690244     1.000000    0.08428233
  876       -6.1974864027      -0.0002690244     1.000000    0.08428233
  877       -6.1972173782       0.0002690244     1.000000    0.08428233
  878       -6.1974864027      -0.0002690244     1.000000    0.08428233
  879       -6.1972173782       0.0002690244     1.000000    0.08428233
  880       -6.1974864027      -0.0002690244     1.000000    0.08428233
  881       -6.1972173782       0.0002690244     1.000000    0.08428233
  882       -6.1974864027      -0.0002690244     1.000000    0.08428233
  883       -6.1972173782       0.0002690244     1.000000    0.08428233
  884       -6.1974864027      -0.0002690244     1.000000    0.08428233
  885       -6.1972173782       0.0002690244     1.000000    0.08428233
  886       -6.1974864027      -0.0002690244     1.000000    0.08428233
  887       -6.1972173782       0.0002690244     1.000000    0.08428233
  888       -6.1974864027      -0.0002690244     1.000000    0.08428233
  889       -6.1972173782       0.0002690244     1.000000    0.08428233
  890       -6.1974864027      -0.0002690244     1.000000    0.08428233
  891       -6.1972173782       0.0002690244     1.000000    0.08428233
  892       -6.1974864027      -0.0002690244     1.000000    0.08428233
  893       -6.1972173782       0.0002690244     1.000000    0.08428233
  894       -6.1974864027      -0.0002690244     1.000000    0.08428233
  895       -6.1972173782       0.0002690244     1.000000    0.08428233
  896       -6.1974864027      -0.0002690244     1.000000    0.08428233
  897       -6.1972173782       0.0002690244     1.000000    0.08428233
  898       -6.1974864027      -0.0002690244     1.000000    0.08428233
  899       -6.1972173782       0.0002690244     1.000000    0.08428233
  900       -6.1974864027      -0.0002690244     1.000000    0.08428233
  901       -6.1972173782       0.0002690244     1.000000    0.08428233
  902       -6.1974864027      -0.0002690244     1.000000    0.08428233
  903       -6.1972173782       0.0002690244     1.000000    0.08428233
  904       -6.1974864027      -0.0002690244     1.000000    0.08428233
  905       -6.1972173782       0.0002690244     1.000000    0.08428233
  906       -6.1974864027      -0.0002690244     1.000000    0.08428233
  907       -6.1972173782       0.0002690244     1.000000    0.08428233
  908       -6.1974864027      -0.0002690244     1.000000    0.08428233
  909       -6.1972173782       0.0002690244     1.000000    0.08428233
  910       -6.1974864027      -0.0002690244     1.000000    0.08428233
  911       -6.1972173782       0.0002690244     1.000000    0.08428233
  912       -6.1974864027      -0.0002690244     1.000000    0.08428233
  913       -6.1972173782       0.0002690244     1.000000    0.08428233
  914       -6.1974864027      -0.0002690244     1.000000    0.08428233
  915       -6.1972173782       0.0002690244     1.000000    0.08428233
  916       -6.1974864027      -0.0002690244     1.000000    0.08428233
  917       -6.1972173782       0.0002690244     1.000000    0.08428233
  918       -6.1974864027      -0.0002690244     1.000000    0.08428233
  919       -6.1972173782       0.0002690244     1.000000    0.08428233
  920       -6.1974864027      -0.0002690244     1.000000    0.08428233
  921       -6.1972173782       0.0002690244     1.000000    0.08428233
  922       -6.1974864027      -0.0002690244     1.000000    0.08428233
  923       -6.1972173782       0.0002690244     1.000000    0.08428233
  924       -6.1974864027      -0.0002690244     1.000000    0.08428233
  925       -6.1972173782       0.0002690244     1.000000    0.08428233
  926       -6.1974864027      -0.0002690244     1.000000    0.08428233
  927       -6.1972173782       0.0002690244     1.000000    0.08428233
  928       -6.1974864027      -0.0002690244     1.000000    0.08428233
  929       -6.1972173782       0.0002690244     1.000000    0.08428233
  930       -6.1974864027      -0.0002690244     1.000000    0.08428233
  931       -6.1972173782       0.0002690244     1.000000    0.08428233
  932       -6.1974864027      -0.0002690244     1.000000    0.08428233
  933       -6.1972173782       0.0002690244     1.000000    0.08428233
  934       -6.1974864027      -0.0002690244     1.000000    0.08428233
  935       -6.1972173782       0.0002690244     1.000000    0.08428233
  936       -6.1974864027      -0.0002690244     1.000000    0.08428233
  937       -6.1972173782       0.0002690244     1.000000    0.08428233
  938       -6.1974864027      -0.0002690244     1.000000    0.08428233
  939       -6.1972173782       0.0002690244     1.000000    0.08428233
  940       -6.1974864027      -0.0002690244     1.000000    0.08428233
  941       -6.1972173782       0.0002690244     1.000000    0.08428233
  942       -6.1974864027      -0.0002690244     1.000000    0.08428233
  943       -6.1972173782       0.0002690244     1.000000    0.08428233
  944       -6.1974864027      -0.0002690244     1.000000    0.08428233
  945       -6.1972173782       0.0002690244     1.000000    0.08428233
  946       -6.1974864027      -0.0002690244     1.000000    0.08428233
  947       -6.1972173782       0.0002690244     1.000000    0.08428233
  948       -6.1974864027      -0.0002690244     1.000000    0.08428233
  949       -6.1972173782       0.0002690244     1.000000    0.08428233
  950       -6.1974864027      -0.0002690244     1.000000    0.08428233
  951       -6.1972173782       0.0002690244     1.000000    0.08428233
  952       -6.1974864027      -0.0002690244     1.000000    0.08428233
  953       -6.1972173782       0.0002690244     1.000000    0.08428233
  954       -6.1974864027      -0.0002690244     1.000000    0.08428233
  955       -6.1972173782       0.0002690244     1.000000    0.08428233
  956       -6.1974864027      -0.0002690244     1.000000    0.08428233
  957       -6.1972173782       0.0002690244     1.000000    0.08428233
  958       -6.1974864027      -0.0002690244     1.000000    0.08428233
  959       -6.1972173782       0.0002690244     1.000000    0.08428233
  960       -6.1974864027      -0.0002690244     1.000000    0.08428233
  961       -6.1972173782       0.0002690244     1.000000    0.08428233
  962       -6.1974864027      -0.0002690244     1.000000    0.08428233
  963       -6.1972173782       0.0002690244     1.000000    0.08428233
  964       -6.1974864027      -0.0002690244     1.000000    0.08428233
  965       -6.1972173782       0.0002690244     1.000000    0.08428233
  966       -6.1974864027      -0.0002690244     1.000000    0.08428233
  967       -6.1972173782       0.0002690244     1.000000    0.08428233
  968       -6.1974864027      -0.0002690244     1.000000    0.08428233
  969       -6.1972173782       0.0002690244     1.000000    0.08428233
  970       -6.1974864027      -0.0002690244     1.000000    0.08428233
  971       -6.1972173782       0.0002690244     1.000000    0.08428233
  972       -6.1974864027      -0.0002690244     1.000000    0.08428233
  973       -6.1972173782       0.0002690244     1.000000    0.08428233
  974       -6.1974864027      -0.0002690244     1.000000    0.08428233
  975       -6.1972173782       0.0002690244     1.000000    0.08428233
  976       -6.1974864027      -0.0002690244     1.000000    0.08428233
  977       -6.1972173782       0.0002690244     1.000000    0.08428233
  978       -6.1974864027      -0.0002690244     1.000000    0.08428233
  979       -6.1972173782       0.0002690244     1.000000    0.08428233
  980       -6.1974864027      -0.0002690244     1.000000    0.08428233
  981       -6.1972173782       0.0002690244     1.000000    0.08428233
  982       -6.1974864027      -0.0002690244     1.000000    0.08428233
  983       -6.1972173782       0.0002690244     1.000000    0.08428233
  984       -6.1974864027      -0.0002690244     1.000000    0.08428233
  985       -6.1972173782       0.0002690244     1.000000    0.08428233
  986       -6.1974864027      -0.0002690244     1.000000    0.08428233
  987       -6.1972173782       0.0002690244     1.000000    0.08428233
  988       -6.1974864027      -0.0002690244     1.000000    0.08428233
  989       -6.1972173782       0.0002690244     1.000000    0.08428233
  990       -6.1974864027      -0.0002690244     1.000000    0.08428233
  991       -6.1972173782       0.0002690244     1.000000    0.08428233
  992       -6.1974864027      -0.0002690244     1.000000    0.08428233
  993       -6.1972173782       0.0002690244     1.000000    0.08428233
  994       -6.1974864027      -0.0002690244     1.000000    0.08428233
  995       -6.1972173782       0.0002690244     1.000000    0.08428233
  996       -6.1974864027      -0.0002690244     1.000000    0.08428233
  997       -6.1972173782       0.0002690244     1.000000    0.08428233
  998       -6.1974864027      -0.0002690244     1.000000    0.08428233
  999       -6.1972173782       0.0002690244     1.000000    0.08428233
 1000       -6.1974864027      -0.0002690244     1.000000    0.08428233

Total Energy:                       -6.1974864027 H         -168.6422 eV
Extrapolated to 0:                  -6.2308440539 H         -169.5499 eV

----------------------------------------------------------------------------------
 Solving CP-REKS equation for  1 state vector...
----------------------------------------------------------------------------------
  CG solver: Constructing Y initial guess
  CG solver: Iteration    1    eps =    0.018454787568
  CG solver: Iteration    2    eps =    0.002876440414
  CG solver: Iteration    3    eps =    0.000580285218
  CG solver: Iteration    4    eps =    0.000063595384
  CG solver: Iteration    5    eps =    0.000007813962
  CG solver: Iteration    6    eps =    0.000000786096
  CG solver: Iteration    7    eps =    0.000000092020
  CG solver: Iteration    8    eps =    0.000000019121
  CG solver: Iteration    9    eps =    0.000000000620
  Convergence reached in CG solver after    9 iterations
  CG solver: Calculating converged R, Z, Q2 matrix
----------------------------------------------------------------------------------

----------------------------------------------------------------------------------
 Solving CP-REKS equation for SI between  1 and  2 state vectors...
----------------------------------------------------------------------------------
  CG solver: Constructing Y initial guess
  CG solver: Iteration    1    eps =    0.001093562323
  CG solver: Iteration    2    eps =    0.000166805291
  CG solver: Iteration    3    eps =    0.000051137009
  CG solver: Iteration    4    eps =    0.000005151603
  CG solver: Iteration    5    eps =    0.000000266128
  CG solver: Iteration    6    eps =    0.000000024485
  CG solver: Iteration    7    eps =    0.000000001851
  Convergence reached in CG solver after    7 iterations
  CG solver: Calculating converged R, Z, Q2 matrix
----------------------------------------------------------------------------------

--------------------------------------------------
 Gradient Information
--------------------------------------------------
           1 st state (SSR)
     0.00000000     0.00000000     0.00000000
     0.00000000     0.00000000     0.00000000
     0.00000000     0.00000000     0.00000000
     0.00000000     0.00000000     0.00000000
     0.00000000     0.00000000     0.00000000
     0.00000000     0.00000000     0.00000000

           2 st state (SSR)
     0.00000000     0.00000000     0.00000000
     0.00000000     0.00000000     0.00000000
     0.00000000     0.00000000     0.00000000
     0.00000000     0.00000000     0.00000000
     0.00000000     0.00000000     0.00000000
     0.00000000     0.00000000     0.00000000
--------------------------------------------------
 Coupling Information
--------------------------------------------------
 between  1 and  2 states
--------------------------------------------------
 g vector - difference gradient
     0.17582282    -0.12608003     0.58602604
     0.55402512     0.04435065    -0.77892054
    -0.16841290     0.22403932    -0.02144575
    -0.01205698     0.03225510     0.09547630
    -0.28641055    -0.27852705     0.15257188
    -0.26296751     0.10396200    -0.03370793

 h vector - derivative coupling
     0.00238074    -0.00596102    -0.00529668
     0.01377551     0.03907810     0.02328425
     0.00983936     0.00404793     0.00030046
    -0.00654832    -0.02586137    -0.00829997
    -0.00525401    -0.00249516    -0.01153938
    -0.01419328    -0.00880848     0.00155132

 G vector - GDV
     0.00000000     0.00000000     0.00000000
     0.00000000     0.00000000     0.00000000
     0.00000000     0.00000000     0.00000000
     0.00000000     0.00000000     0.00000000
     0.00000000     0.00000000     0.00000000
     0.00000000     0.00000000     0.00000000

 H vector - DCV - non-adiabatic coupling
    -0.00000000    -0.00000000    -0.00000000
    -0.00000000    -0.00000000    -0.00000000
    -0.00000000    -0.00000000    -0.00000000
    -0.00000000    -0.00000000    -0.00000000
    -0.00000000    -0.00000000    -0.00000000
    -0.00000000    -0.00000000    -0.00000000
--------------------------------------------------

WARNING!
-> SCC is NOT converged, maximal SCC iterations exceeded

--------------------------------------------------------------------------------
DFTB+ running times                          cpu [s]             wall clock [s]
--------------------------------------------------------------------------------
SCC                                    +     0.40  ( 97.1%)      0.40  ( 96.2%)
      Sparse to dense                        0.02  (  4.8%)      0.02  (  5.3%)
      Dense to sparse                        0.07  ( 16.1%)      0.07  ( 16.5%)
      Range separated Hamiltonian            0.03  (  6.9%)      0.03  (  6.5%)
  Density matrix creation                    0.05  ( 12.4%)      0.05  ( 12.2%)
  Force calculation                          0.01  (  2.6%)      0.01  (  2.4%)
--------------------------------------------------------------------------------
Missing                                +     0.01  (  2.9%)      0.02  (  3.8%)
Total                                  =     0.41  (100.0%)      0.42  (100.0%)
--------------------------------------------------------------------------------
