|===============================================================================
|
|  DFTB+ release 20.1
|
|  Copyright (C) 2006 - 2020  DFTB+ developers group
|
|===============================================================================
|
|  When publishing results obtained with DFTB+, please cite the following
|  reference:
|
|  * DFTB+, a software package for efficient approximate density functional
|    theory based atomistic simulations, J. Chem. Phys. 152, 124101 (2020).
|    [doi: 10.1063/1.5143190]
|
|  You should also cite additional publications crediting the parametrization
|  data you use. Please consult the documentation of the SK-files for the
|  references.
|
|===============================================================================

Reading input file 'dftb_in.hsd'
Parser version: 8

--------------------------------------------------------------------------------
Reading SK-files:
Done.


Processed input in HSD format written to 'dftb_pin.hsd'

Starting initialization...
--------------------------------------------------------------------------------
OpenMP threads:              1
Chosen random seed:          511516745
Mode:                        Static calculation
Self consistent charges:     Yes
SCC-tolerance:                 0.100000E-05
Max. scc iterations:                   1000
Shell resolved Hubbard:      No
Spin polarisation:           No
Nr. of up electrons:             6.000000
Nr. of down electrons:           6.000000
Periodic boundaries:         No
Electronic solver:           Relatively robust
Maximal SCC-cycles:                    1000
Initial charges:             Set automatically (system chrg:   0.100E+01)
Included shells:             C:  s, p
                             N:  s, p
                             H:  s
Spin coupling constants:     C   1(s)-1(s):  -0.455900E-01
                             C   1(s)-2(p):  -0.293000E-01
                             C   2(p)-1(s):  -0.293000E-01
                             C   2(p)-2(p):  -0.275500E-01
                             N   1(s)-1(s):  -0.468700E-01
                             N   1(s)-2(p):  -0.317000E-01
                             N   2(p)-1(s):  -0.317000E-01
                             N   2(p)-2(p):  -0.307200E-01
                             H   1(s)-1(s):  -0.792500E-01
Range separated hybrid:      Yes
  Screening parameter omega:   0.300000E+00
  Range separated algorithm:   MatrixBased
Extra options:
                             Mulliken analysis
                             Force calculation
Force type                   original
                             Eigenvector printing


REKS Calcuation:             Yes
SSR(2,2) Calcuation:         Yes
Energy Functional:           (PPS+OSS)/2
Number of Core Orbitals:                  5
Number of Active Orbitals:                2
Number of Basis:                         12
Number of States:                         2
State-Averaging Weight:          0.500000
                                 0.500000
State of Interest:                        1
Initial Guess:               Diagonalize H0 matrix
Newton-Raphson for FON opt:  Yes
NR max. Iterations:                      50
Level Shifting:              Yes
Shift Value:                     0.300000
W Scale Factor:              C  =    3.000000
                             N  =    3.000000
                             H  =    3.000000
Transition Dipole:           No
Gradient of Microstate:      No
CP-REKS Solver:              Preconditioned Conjugate-Gradient
CG max. Iterations:                     100
CG Tolerance:                  0.100000E-07
Memory for A and Hxc:        Direct Updating Without Saving
Non-Adiabatic Coupling:      Yes

--------------------------------------------------------------------------------

***  Geometry step: 0

  iSCC       reks energy        Diff energy         x_a       SCC error   
    1       -6.2617121389       0.0000000000     0.999242    1.18770291
    2       -6.2747307058      -0.0130185669     0.999694    0.10187167
    3       -6.2786938163      -0.0039631105     0.999831    0.04564066
    4       -6.2806202009      -0.0019263846     0.999889    0.02283983
    5       -6.2817273186      -0.0011071177     0.999917    0.01201801
    6       -6.2824244671      -0.0006971485     0.999932    0.00686385
    7       -6.2828823076      -0.0004578406     0.999941    0.00616615
    8       -6.2831870410      -0.0003047333     0.999946    0.00533149
    9       -6.2833899937      -0.0002029527     0.999950    0.00449810
   10       -6.2835246720      -0.0001346783     0.999952    0.00373126
   11       -6.2836136823      -0.0000890103     0.999954    0.00305765
   12       -6.2836723307      -0.0000586484     0.999955    0.00250417
   13       -6.2837109075      -0.0000385768     0.999956    0.00205929
   14       -6.2837362693      -0.0000253618     0.999956    0.00175505
   15       -6.2837529504      -0.0000166811     0.999956    0.00148659
   16       -6.2837639337      -0.0000109833     0.999957    0.00125285
   17       -6.2837711758      -0.0000072421     0.999957    0.00105141
   18       -6.2837759586      -0.0000047828     0.999957    0.00087921
   19       -6.2837791223      -0.0000031637     0.999957    0.00073298
   20       -6.2837812182      -0.0000020958     0.999957    0.00060948
   21       -6.2837826085      -0.0000013903     0.999957    0.00050564
   22       -6.2837835319      -0.0000009234     0.999957    0.00041867
   23       -6.2837841457      -0.0000006139     0.999957    0.00034608
   24       -6.2837845542      -0.0000004085     0.999957    0.00028564
   25       -6.2837848262      -0.0000002720     0.999957    0.00023546
   26       -6.2837850074      -0.0000001812     0.999957    0.00019388
   27       -6.2837851282      -0.0000001208     0.999957    0.00015948
   28       -6.2837852087      -0.0000000805     0.999957    0.00013108
   29       -6.2837852624      -0.0000000537     0.999957    0.00010765
   30       -6.2837852982      -0.0000000358     0.999957    0.00008836
   31       -6.2837853221      -0.0000000239     0.999957    0.00007248
   32       -6.2837853381      -0.0000000160     0.999957    0.00005942
   33       -6.2837853487      -0.0000000106     0.999957    0.00004870
   34       -6.2837853558      -0.0000000071     0.999957    0.00003989
   35       -6.2837853606      -0.0000000047     0.999957    0.00003267
   36       -6.2837853638      -0.0000000032     0.999957    0.00002675
   37       -6.2837853659      -0.0000000021     0.999957    0.00002189
   38       -6.2837853673      -0.0000000014     0.999957    0.00001792
   39       -6.2837853682      -0.0000000009     0.999957    0.00001466
   40       -6.2837853689      -0.0000000006     0.999957    0.00001199
   41       -6.2837853693      -0.0000000004     0.999957    0.00000981
   42       -6.2837853696      -0.0000000003     0.999957    0.00000802
   43       -6.2837853697      -0.0000000002     0.999957    0.00000656
   44       -6.2837853699      -0.0000000001     0.999957    0.00000536
   45       -6.2837853699      -0.0000000001     0.999957    0.00000438
   46       -6.2837853700      -0.0000000001     0.999957    0.00000358
   47       -6.2837853700      -0.0000000000     0.999957    0.00000293
   48       -6.2837853701      -0.0000000000     0.999957    0.00000239
   49       -6.2837853701      -0.0000000000     0.999957    0.00000196
   50       -6.2837853701      -0.0000000000     0.999957    0.00000160
   51       -6.2837853701      -0.0000000000     0.999957    0.00000131
   52       -6.2837853701      -0.0000000000     0.999957    0.00000107
   53       -6.2837853701      -0.0000000000     0.999957    0.00000087
  
--------------------------------------------------
 Final SA-REKS(2,2) energy:      -6.28378537
  
 State     Energy      FON(1)    FON(2)   Spin
  PPS   -6.41080087   1.999913  0.000087  0.00
  OSS   -6.15676987   1.000000  1.000000  0.00
 Trip   -6.23703323   1.000000  1.000000  1.00
--------------------------------------------------

 Lagrangian Wab:   0.00532485  0.00532465

--------------------------------------------------
 SSR: 2SI-2SA-REKS(2,2) Hamiltonian matrix
               PPS           OSS
   PPS    -6.41080087    0.00748075
   OSS     0.00748075   -6.15676987
--------------------------------------------------

----------------------------------------------------------------
 SSR: 2SI-2SA-REKS(2,2) states
                    E_n       C_{PPS}    C_{OSS}
 SSR state  1   -6.41102098  -0.999567   0.029410
 SSR state  2   -6.15654976  -0.029410  -0.999567
----------------------------------------------------------------

 unrelaxed SSR FONs for S0:  1.999048  0.000952

Total Energy:                       -6.4110209771 H         -174.4528 eV
Extrapolated to 0:                  -6.4110209771 H         -174.4528 eV

----------------------------------------------------------------------------------
 Solving CP-REKS equation for  1 state vector...
----------------------------------------------------------------------------------
  CG solver: Constructing Y initial guess
  CG solver: Iteration    1    eps =    0.000089242559
  CG solver: Iteration    2    eps =    0.000044846029
  CG solver: Iteration    3    eps =    0.000002093081
  CG solver: Iteration    4    eps =    0.000000561279
  CG solver: Iteration    5    eps =    0.000000017315
  CG solver: Iteration    6    eps =    0.000000002080
  Convergence reached in CG solver after    6 iterations
  CG solver: Calculating converged R, Z, Q2 matrix
----------------------------------------------------------------------------------

----------------------------------------------------------------------------------
 Solving CP-REKS equation for SI between  1 and  2 state vectors...
----------------------------------------------------------------------------------
  CG solver: Constructing Y initial guess
  CG solver: Iteration    1    eps =    0.001774488143
  CG solver: Iteration    2    eps =    0.002060895612
  CG solver: Iteration    3    eps =    0.000367178860
  CG solver: Iteration    4    eps =    0.000004559116
  CG solver: Iteration    5    eps =    0.000000623443
  CG solver: Iteration    6    eps =    0.000000011026
  CG solver: Iteration    7    eps =    0.000000000360
  Convergence reached in CG solver after    7 iterations
  CG solver: Calculating converged R, Z, Q2 matrix
----------------------------------------------------------------------------------

--------------------------------------------------
 Gradient Information
--------------------------------------------------
           1 st state (SSR)
     0.00272293    -0.00932308     0.01255822
    -0.01311333    -0.00343980    -0.01447336
     0.01142865    -0.00018953     0.00992253
     0.01614641     0.00408484    -0.00192689
    -0.00673208     0.00614407    -0.00292417
    -0.01045257     0.00272351    -0.00315632

           2 st state (SSR)
    -0.00379793     0.00045548     0.11980650
     0.01140991     0.00726579    -0.13769195
    -0.01090420    -0.01574726     0.02433319
    -0.01352016     0.00754644    -0.00902671
     0.00515312    -0.00530016    -0.01208203
     0.01165926     0.00577972     0.01466100
--------------------------------------------------
 Coupling Information
--------------------------------------------------
 between  1 and  2 states
--------------------------------------------------
 g vector - difference gradient
     0.00322070    -0.00468805    -0.05437774
    -0.01255647    -0.00562683     0.06223625
     0.01187877     0.00761353    -0.00722614
     0.01561290    -0.00160753     0.00352288
    -0.00655158     0.00577680     0.00468580
    -0.01160431    -0.00146793    -0.00884105

 h vector - derivative coupling
    -0.00077051     0.00356052    -0.01121749
    -0.00464546    -0.00449532     0.00883232
     0.01176629    -0.00303601    -0.00014130
     0.01280059     0.00214393    -0.00056341
    -0.01016497     0.00076018     0.00167983
    -0.00898594     0.00106671     0.00141005

 G vector - GDV
     0.00326043    -0.00488928    -0.05362414
    -0.01226162    -0.00535280     0.06160930
     0.01116642     0.00777886    -0.00720533
     0.01483328    -0.00173080     0.00354991
    -0.00594260     0.00572211     0.00457893
    -0.01105591    -0.00152811    -0.00890866

 H vector - DCV - non-adiabatic coupling
    -0.00227851     0.01288447    -0.05656903
    -0.02112488    -0.01893483     0.04902791
     0.04890275    -0.01015097    -0.00222387
     0.05382299     0.00803905    -0.00139628
    -0.04139008     0.00431685     0.00767246
    -0.03793226     0.00384544     0.00348881
--------------------------------------------------


--------------------------------------------------------------------------------
DFTB+ running times                          cpu [s]             wall clock [s]
--------------------------------------------------------------------------------
SCC                                    +     0.02  ( 67.5%)      0.03  ( 58.1%)
Post-SCC processing                    +     0.01  ( 28.9%)      0.01  ( 27.9%)
  Force calculation                          0.01  ( 28.3%)      0.01  ( 23.3%)
--------------------------------------------------------------------------------
Missing                                +     0.00  (  3.6%)      0.01  ( 14.0%)
Total                                  =     0.03  (100.0%)      0.04  (100.0%)
--------------------------------------------------------------------------------
