     6
  Step:   300            Position(A)                                  Velocity(au)
C        -0.06878735     0.01324681     0.01345751     0.00004132     0.00009173     0.00003861
N         0.00273981    -0.05642583     1.30608074    -0.00016661     0.00000514    -0.00005885
H         0.16252001    -0.87211157    -0.57790233     0.00015756    -0.00053699     0.00092534
H        -0.01532613     0.81108084     1.85637046     0.00106578    -0.00012577     0.00006021
H        -0.25416514    -0.95075587     1.73716747     0.00077306    -0.00043377    -0.00040362
H        -0.32437193     0.96827607    -0.43370386    -0.00017346    -0.00006792    -0.00022421
