|===============================================================================
|
|  DFTB+ release 20.1
|
|  Copyright (C) 2006 - 2020  DFTB+ developers group
|
|===============================================================================
|
|  When publishing results obtained with DFTB+, please cite the following
|  reference:
|
|  * DFTB+, a software package for efficient approximate density functional
|    theory based atomistic simulations, J. Chem. Phys. 152, 124101 (2020).
|    [doi: 10.1063/1.5143190]
|
|  You should also cite additional publications crediting the parametrization
|  data you use. Please consult the documentation of the SK-files for the
|  references.
|
|===============================================================================

Reading input file 'dftb_in.hsd'
Parser version: 8

--------------------------------------------------------------------------------
Reading SK-files:
Done.


Processed input in HSD format written to 'dftb_pin.hsd'

Starting initialization...
--------------------------------------------------------------------------------
OpenMP threads:              1
Chosen random seed:          452317099
Mode:                        Static calculation
Self consistent charges:     Yes
SCC-tolerance:                 0.100000E-05
Max. scc iterations:                   1000
Shell resolved Hubbard:      No
Spin polarisation:           No
Nr. of up electrons:             6.000000
Nr. of down electrons:           6.000000
Periodic boundaries:         No
Electronic solver:           Relatively robust
Maximal SCC-cycles:                    1000
Initial charges:             Set automatically (system chrg:   0.100E+01)
Included shells:             C:  s, p
                             N:  s, p
                             H:  s
Spin coupling constants:     C   1(s)-1(s):  -0.455900E-01
                             C   1(s)-2(p):  -0.293000E-01
                             C   2(p)-1(s):  -0.293000E-01
                             C   2(p)-2(p):  -0.275500E-01
                             N   1(s)-1(s):  -0.468700E-01
                             N   1(s)-2(p):  -0.317000E-01
                             N   2(p)-1(s):  -0.317000E-01
                             N   2(p)-2(p):  -0.307200E-01
                             H   1(s)-1(s):  -0.792500E-01
Range separated hybrid:      Yes
  Screening parameter omega:   0.300000E+00
  Range separated algorithm:   MatrixBased
Extra options:
                             Mulliken analysis
                             Force calculation
Force type                   original
                             Eigenvector printing


REKS Calcuation:             Yes
SSR(2,2) Calcuation:         Yes
Energy Functional:           (PPS+OSS)/2
Number of Core Orbitals:                  5
Number of Active Orbitals:                2
Number of Basis:                         12
Number of States:                         2
State-Averaging Weight:          0.500000
                                 0.500000
State of Interest:                        1
Initial Guess:               Diagonalize H0 matrix
Newton-Raphson for FON opt:  Yes
NR max. Iterations:                      50
Level Shifting:              Yes
Shift Value:                     0.300000
W Scale Factor:              C  =    3.200000
                             N  =    3.200000
                             H  =    3.200000
Transition Dipole:           No
Gradient of Microstate:      No
CP-REKS Solver:              Preconditioned Conjugate-Gradient
CG max. Iterations:                     100
CG Tolerance:                  0.100000E-07
Memory for A and Hxc:        Direct Updating Without Saving
Non-Adiabatic Coupling:      Yes

--------------------------------------------------------------------------------

***  Geometry step: 0

  iSCC       reks energy        Diff energy         x_a       SCC error   
    1       -6.1876307830       0.0000000000     0.952225    1.09643215
    2       -6.1951509752      -0.0075201922     0.980531    0.05956705
    3       -6.1984798101      -0.0033288350     0.994992    0.03250346
    4       -6.2002863718      -0.0018065616     0.998545    0.02560058
    5       -6.2012706288      -0.0009842570     0.999450    0.01965171
    6       -6.2018587951      -0.0005881663     0.999741    0.01438229
    7       -6.2022435611      -0.0003847660     0.999856    0.01064747
    8       -6.2025063278      -0.0002627667     0.999910    0.00809593
    9       -6.2026874101      -0.0001810823     0.999938    0.00628792
   10       -6.2028114855      -0.0001240754     0.999954    0.00494191
   11       -6.2028956300      -0.0000841446     0.999964    0.00390422
   12       -6.2029520940      -0.0000564640     0.999970    0.00308991
   13       -6.2029896306      -0.0000375366     0.999975    0.00251319
   14       -6.2030143924      -0.0000247617     0.999978    0.00205534
   15       -6.2030306267      -0.0000162343     0.999980    0.00167279
   16       -6.2030412195      -0.0000105928     0.999981    0.00135636
   17       -6.2030481062      -0.0000068867     0.999983    0.00109660
   18       -6.2030525712      -0.0000044650     0.999984    0.00088461
   19       -6.2030554602      -0.0000028891     0.999984    0.00071236
   20       -6.2030573269      -0.0000018666     0.999985    0.00057289
   21       -6.2030585317      -0.0000012048     0.999985    0.00046025
   22       -6.2030593087      -0.0000007771     0.999985    0.00036946
   23       -6.2030598096      -0.0000005009     0.999986    0.00029642
   24       -6.2030601325      -0.0000003228     0.999986    0.00023771
   25       -6.2030603405      -0.0000002080     0.999986    0.00019057
   26       -6.2030604745      -0.0000001340     0.999986    0.00015274
   27       -6.2030605609      -0.0000000864     0.999986    0.00012241
   28       -6.2030606165      -0.0000000556     0.999986    0.00009809
   29       -6.2030606524      -0.0000000358     0.999986    0.00007860
   30       -6.2030606755      -0.0000000231     0.999986    0.00006298
   31       -6.2030606903      -0.0000000149     0.999986    0.00005047
   32       -6.2030606999      -0.0000000096     0.999987    0.00004045
   33       -6.2030607061      -0.0000000062     0.999987    0.00003241
   34       -6.2030607101      -0.0000000040     0.999987    0.00002598
   35       -6.2030607127      -0.0000000026     0.999987    0.00002083
   36       -6.2030607143      -0.0000000017     0.999987    0.00001669
   37       -6.2030607154      -0.0000000011     0.999987    0.00001338
   38       -6.2030607161      -0.0000000007     0.999987    0.00001073
   39       -6.2030607165      -0.0000000004     0.999987    0.00000860
   40       -6.2030607168      -0.0000000003     0.999987    0.00000690
   41       -6.2030607170      -0.0000000002     0.999987    0.00000553
   42       -6.2030607171      -0.0000000001     0.999987    0.00000444
   43       -6.2030607172      -0.0000000001     0.999987    0.00000356
   44       -6.2030607173      -0.0000000000     0.999987    0.00000286
   45       -6.2030607173      -0.0000000000     0.999987    0.00000229
   46       -6.2030607173      -0.0000000000     0.999987    0.00000184
   47       -6.2030607173      -0.0000000000     0.999987    0.00000148
   48       -6.2030607173      -0.0000000000     0.999987    0.00000118
   49       -6.2030607173      -0.0000000000     0.999987    0.00000095
  
--------------------------------------------------
 Final SA-REKS(2,2) energy:      -6.20306072
  
 State     Energy      FON(1)    FON(2)   Spin
  PPS   -6.23810980   1.999973  0.000027  0.00
  OSS   -6.16801163   1.000000  1.000000  0.00
 Trip   -6.21004219   1.000000  1.000000  1.00
--------------------------------------------------

 Lagrangian Wab:  -0.03947734 -0.03947749

--------------------------------------------------
 SSR: 2SI-2SA-REKS(2,2) Hamiltonian matrix
               PPS           OSS
   PPS    -6.23810980   -0.05562488
   OSS    -0.05562488   -6.16801163
--------------------------------------------------

----------------------------------------------------------------
 SSR: 2SI-2SA-REKS(2,2) states
                    E_n       C_{PPS}    C_{OSS}
 SSR state  1   -6.26880694  -0.875527  -0.483168
 SSR state  2   -6.13731449   0.483168  -0.875527
----------------------------------------------------------------

 unrelaxed SSR FONs for S0:  1.766528  0.233472

Total Energy:                       -6.2688069431 H         -170.5829 eV
Extrapolated to 0:                  -6.2688069431 H         -170.5829 eV

----------------------------------------------------------------------------------
 Solving CP-REKS equation for  1 state vector...
----------------------------------------------------------------------------------
  CG solver: Constructing Y initial guess
  CG solver: Iteration    1    eps =    0.009894532582
  CG solver: Iteration    2    eps =    0.000361542044
  CG solver: Iteration    3    eps =    0.000009472320
  CG solver: Iteration    4    eps =    0.000001991817
  CG solver: Iteration    5    eps =    0.000000125629
  CG solver: Iteration    6    eps =    0.000000014567
  CG solver: Iteration    7    eps =    0.000000000381
  Convergence reached in CG solver after    7 iterations
  CG solver: Calculating converged R, Z, Q2 matrix
----------------------------------------------------------------------------------

----------------------------------------------------------------------------------
 Solving CP-REKS equation for SI between  1 and  2 state vectors...
----------------------------------------------------------------------------------
  CG solver: Constructing Y initial guess
  CG solver: Iteration    1    eps =    0.016252730304
  CG solver: Iteration    2    eps =    0.001559612692
  CG solver: Iteration    3    eps =    0.000081527323
  CG solver: Iteration    4    eps =    0.000009936037
  CG solver: Iteration    5    eps =    0.000001365070
  CG solver: Iteration    6    eps =    0.000000028638
  CG solver: Iteration    7    eps =    0.000000000945
  Convergence reached in CG solver after    7 iterations
  CG solver: Calculating converged R, Z, Q2 matrix
----------------------------------------------------------------------------------

--------------------------------------------------
 Gradient Information
--------------------------------------------------
           1 st state (SSR)
     0.01166019    -0.06471894     0.02538715
    -0.02038729    -0.00169226     0.16140571
    -0.02413073     0.01225138    -0.05915525
    -0.02958204    -0.01159650    -0.05105692
     0.04709954     0.02044305    -0.04461676
     0.01534034     0.04531327    -0.03196393

           2 st state (SSR)
    -0.00740196    -0.04583197     0.10972248
    -0.01671962     0.00471266     0.04368827
     0.02880994    -0.00033777    -0.04734291
    -0.00339724    -0.04435917    -0.04492582
     0.02510941     0.03968666    -0.04141493
    -0.02640052     0.04612960    -0.01972709
--------------------------------------------------
 Coupling Information
--------------------------------------------------
 between  1 and  2 states
--------------------------------------------------
 g vector - difference gradient
     0.01858097    -0.00274864    -0.11676165
    -0.01563465     0.00344982     0.10550314
    -0.02711549    -0.00004974     0.00298049
    -0.00843506     0.01389409     0.00430428
     0.01267507    -0.01423021     0.00297122
     0.01992916    -0.00031533     0.00100251

 h vector - derivative coupling
    -0.00044250    -0.00942988     0.02373082
     0.00768384    -0.00595889     0.00309124
    -0.01420140     0.00747126    -0.00885884
    -0.01015975     0.01060741    -0.00633546
     0.00500917    -0.00240614    -0.00376437
     0.01211064    -0.00028375    -0.00786339

 G vector - GDV
     0.00953107    -0.00944348    -0.04216767
    -0.00183383    -0.00320246     0.05885872
    -0.02647033     0.00629457    -0.00590617
    -0.01309240     0.01638134    -0.00306555
     0.01099507    -0.00962180    -0.00160091
     0.02087043    -0.00040817    -0.00611842

 H vector - DCV - non-adiabatic coupling
    -0.12134846    -0.02054523     0.84748235
     0.13174897    -0.04635550    -0.66630039
     0.11689232     0.03060999    -0.05509274
     0.01308356    -0.04639341    -0.05338000
    -0.06124631     0.08180562    -0.03437906
    -0.07913009     0.00087853    -0.03833017
--------------------------------------------------


--------------------------------------------------------------------------------
DFTB+ running times                          cpu [s]             wall clock [s]
--------------------------------------------------------------------------------
SCC                                    +     0.02  ( 62.9%)      0.03  ( 66.7%)
Post-SCC processing                    +     0.01  ( 33.7%)      0.01  ( 25.0%)
  Force calculation                          0.01  ( 33.0%)      0.01  ( 22.9%)
--------------------------------------------------------------------------------
Missing                                +     0.00  (  3.4%)      0.00  (  8.3%)
Total                                  =     0.03  (100.0%)      0.05  (100.0%)
--------------------------------------------------------------------------------
