 Fermi distribution function

Calculation with static geometry


********************************************************************************
 iSCC Total electronic   Diff electronic      SCC error    
   13   -0.53207336E+01   -0.77271523E-13    0.70170225E-09
********************************************************************************

 Total charge:     1.00000000

 Atomic gross charges (e)
 Atom           Charge
    1       0.32227152
    2      -0.21020031
    3       0.17469122
    4       0.29191688
    5       0.26256721
    6       0.15875348

Nr. of electrons (up):     12.00000000
Atom populations (up)
 Atom       Population
    1       3.67772848
    2       5.21020031
    3       0.82530878
    4       0.70808312
    5       0.73743279
    6       0.84124652

l-shell populations (up)
 Atom Sh.   l       Population
    1   1   0       1.35069125
    1   2   1       2.32703723
    2   1   0       1.47425486
    2   2   1       3.73594545
    3   1   0       0.82530878
    4   1   0       0.70808312
    5   1   0       0.73743279
    6   1   0       0.84124652

Orbital populations (up)
 Atom Sh.   l   m       Population  Label
    1   1   0   0       1.35069125  s
    1   2   1  -1       0.47070224  p_y
    1   2   1   0       0.88727978  p_z
    1   2   1   1       0.96905521  p_x
    2   1   0   0       1.47425486  s
    2   2   1  -1       1.29296196  p_y
    2   2   1   0       1.12430783  p_z
    2   2   1   1       1.31867566  p_x
    3   1   0   0       0.82530878  s
    4   1   0   0       0.70808312  s
    5   1   0   0       0.73743279  s
    6   1   0   0       0.84124652  s

Fermi level:                        -0.5039754207 H          -13.7139 eV
Band energy:                        -8.7640934386 H         -238.4831 eV
TS:                                  0.0000000000 H            0.0000 eV
Band free energy (E-TS):            -8.7640934386 H         -238.4831 eV
Extrapolated E(0K):                 -8.7640934386 H         -238.4831 eV
Input / Output electrons (q):     12.0000000000     12.0000000000

Energy H0:                          -5.4571317517 H         -148.4961 eV
Energy SCC:                          0.1363981516 H            3.7116 eV
Total Electronic energy:            -5.3207336001 H         -144.7845 eV
Repulsive energy:                    0.1561342140 H            4.2486 eV
Total energy:                       -5.1645993861 H         -140.5359 eV
Extrapolated to 0:                  -5.1645993861 H         -140.5359 eV
Total Mermin free energy:           -5.1645993861 H         -140.5359 eV
Force related energy:               -5.1645993861 H         -140.5359 eV

SCC converged

Excitation Energy:                   0.0909000030 H            2.4735 eV

Total Forces
    1     -0.008540777258     -0.009473338073      0.067197004809
    2      0.018348689624     -0.014139774269     -0.072771066659
    3     -0.003529443340      0.016567699741      0.005824183474
    4     -0.013748133941     -0.000282396763      0.000397750786
    5      0.001286586682      0.016914964393      0.001789827678
    6      0.006183078233     -0.009587155030     -0.002437700088

Maximal derivative component:        0.727711E-01 au


