    14
  Step:     0            Position(A)                                  Velocity(au)
C        -6.01404816    -0.89496597    -0.02392632     0.00033396    -0.00009414     0.00001055
C        -4.71439437    -0.67707560     0.15282473    -0.00039595    -0.00021410    -0.00002033
H        -6.74482800    -0.10711752    -0.35850924     0.00048162    -0.00015711    -0.00042408
H        -6.36790029    -1.89673264     0.30662422    -0.00085543    -0.00031658     0.00105900
H        -4.08311550    -1.49543054     0.51458220     0.00111171     0.00045216    -0.00021639
C        -3.96749280     0.51725610    -0.18264037     0.00018862     0.00035002     0.00005677
C        -2.63947471     0.59154479     0.11886100    -0.00004528     0.00004521    -0.00005088
H        -4.43362785     1.40370838    -0.67630687     0.00037221     0.00048172    -0.00056959
H        -2.18238993    -0.29638135     0.57619833    -0.00001039     0.00085401     0.00038771
C        -1.74957760     1.71899944    -0.05548634    -0.00052426     0.00003209    -0.00014699
H        -2.08659870     2.54337205    -0.66032096    -0.00002078     0.00042191     0.00012660
N        -0.47135261     1.72546807     0.29643532     0.00028700    -0.00015328     0.00010684
H         0.05366550     2.57233027     0.12760881     0.00033409     0.00039857    -0.00015536
H        -0.16068966     0.97572902     0.94974436    -0.00012346    -0.00142340     0.00010536
    14
  Step:     1            Position(A)                                  Velocity(au)
C        -6.01083487    -0.89606767    -0.02380542     0.00024797    -0.00011022     0.00001193
C        -4.71828811    -0.67929572     0.15258908    -0.00030838    -0.00018947    -0.00002245
H        -6.73873334    -0.10987290    -0.36282037     0.00062894    -0.00034266    -0.00036600
H        -6.37770375    -1.89934180     0.31751257    -0.00092299    -0.00013844     0.00092297
H        -4.07108571    -1.49044800     0.51250370     0.00107319     0.00046092    -0.00016567
C        -3.96582139     0.52113647    -0.18213769     0.00011476     0.00035780     0.00003492
C        -2.63949444     0.59207417     0.11843381     0.00004009     0.00005207    -0.00002748
H        -4.42959922     1.40800344    -0.68214855     0.00036635     0.00029878    -0.00049334
H        -2.18250086    -0.28695747     0.58034627    -0.00000406     0.00085217     0.00037754
C        -1.75566396     1.71927851    -0.05720758    -0.00058126     0.00002055    -0.00016635
H        -2.08703673     2.54855390    -0.65904887    -0.00006109     0.00052190     0.00010680
N        -0.46802947     1.72368045     0.29773146     0.00031717    -0.00017353     0.00012944
H         0.05784265     2.57659227     0.12619877     0.00041534     0.00035384    -0.00009472
H        -0.16189386     0.96150257     0.95004434    -0.00010206    -0.00115263    -0.00006751
    14
  Step:     2            Position(A)                                  Velocity(au)
C        -6.00862332    -0.89737732    -0.02366524     0.00015288    -0.00013173     0.00001421
C        -4.72114084    -0.68122057     0.15233367    -0.00020741    -0.00016058    -0.00002405
H        -6.73106879    -0.11461389    -0.36651627     0.00076255    -0.00051378    -0.00031465
H        -6.38809241    -1.89976120     0.32681587    -0.00096438     0.00007574     0.00077228
H        -4.05963740    -1.48534695     0.51095791     0.00100695     0.00047300    -0.00011903
C        -3.96498224     0.52508368    -0.18187633     0.00003744     0.00036192     0.00001303
C        -2.63859772     0.59268390     0.11825975     0.00012169     0.00006007    -0.00000486
H        -4.42561322     1.41024486    -0.68709957     0.00036140     0.00011231    -0.00040995
H        -2.18247864    -0.27773839     0.58445781     0.00001459     0.00081641     0.00038202
C        -1.76229387     1.71944893    -0.05912558    -0.00062330     0.00001227    -0.00018301
H        -2.08793520     2.55478960    -0.65798446    -0.00010408     0.00061162     0.00009097
N        -0.46441383     1.72167179     0.29926717     0.00033981    -0.00019285     0.00014985
H         0.06275187     2.58007128     0.12553661     0.00046871     0.00025783    -0.00001964
H        -0.16292241     0.95051308     0.94826745    -0.00008699    -0.00084446    -0.00026383
    14
  Step:     3            Position(A)                                  Velocity(au)
C        -6.00749026    -0.89894945    -0.02349456     0.00005317    -0.00015770     0.00001766
C        -4.72282561    -0.68280879     0.15206299    -0.00009702    -0.00012841    -0.00002541
H        -6.72205101    -0.12111281    -0.36970391     0.00087047    -0.00065787    -0.00027615
H        -6.39880147    -1.89768475     0.33440778    -0.00098397     0.00030965     0.00061341
H        -4.04905677    -1.48010027     0.50989975     0.00091688     0.00048627    -0.00007624
C        -3.96500223     0.52905418    -0.18185254    -0.00004129     0.00036176    -0.00000812
C        -2.63683230     0.59338826     0.11832755     0.00019843     0.00006948     0.00001653
H        -4.42169286     1.41046054    -0.69111700     0.00035136    -0.00006562    -0.00032593
H        -2.18218164    -0.26909702     0.58870376     0.00004612     0.00074774     0.00040235
C        -1.76929981     1.71954702    -0.06121128    -0.00065007     0.00000728    -0.00019711
H        -2.08931369     2.56193432    -0.65705876    -0.00014804     0.00068551     0.00008347
N        -0.46059546     1.71946141     0.30100978     0.00035378    -0.00020971     0.00016661
H         0.06809649     2.58223270     0.12576906     0.00049712     0.00011766     0.00006733
H        -0.16379701     0.94302848     0.94427265    -0.00006979    -0.00052507    -0.00046264
    14
  Step:     4            Position(A)                                  Velocity(au)
C        -6.00746005    -0.90082735    -0.02327881    -0.00004620    -0.00018706     0.00002261
C        -4.72326335    -0.68402983     0.15177785     0.00001818    -0.00009391    -0.00002690
H        -6.71202568    -0.12900609    -0.37255761     0.00094133    -0.00076286    -0.00025643
H        -6.40961859    -1.89298694     0.34023530    -0.00098689     0.00054674     0.00045303
H        -4.03957882    -1.47470892     0.50929012     0.00080826     0.00049793    -0.00003640
C        -3.96588552     0.53299795    -0.18205392    -0.00011948     0.00035672    -0.00002777
C        -2.63425673     0.59420389     0.11862131     0.00026958     0.00008051     0.00003632
H        -4.41792656     1.40880921    -0.69422998     0.00033039    -0.00022341    -0.00024801
H        -2.18146979    -0.26138023     0.59325995     0.00008964     0.00064988     0.00043799
C        -1.77651538     1.71960822    -0.06343767    -0.00066204     0.00000534    -0.00020882
H        -2.09117394     2.56978634    -0.65615840    -0.00019156     0.00073899     0.00008784
N        -0.45667427     1.71708404     0.30291204     0.00035834    -0.00022280     0.00017849
H         0.07362731     2.58264541     0.12700952     0.00050589    -0.00005553     0.00016276
H        -0.16444928     0.93902614     0.93814622    -0.00004256    -0.00022102    -0.00064358
    14
  Step:     5            Position(A)                                  Velocity(au)
C        -6.00850093    -0.90304166    -0.02299999    -0.00014012    -0.00021856     0.00002931
C        -4.72242783    -0.68486332     0.15147458     0.00013331    -0.00005797    -0.00002895
H        -6.70145763    -0.13780174    -0.37531380     0.00096529    -0.00081788    -0.00026077
H        -6.42039163    -1.88572385     0.34431877    -0.00097896     0.00077044     0.00029791
H        -4.03137457    -1.46920702     0.50910341     0.00068732     0.00050493     0.00000198
C        -3.96761613     0.53685822    -0.18246002    -0.00019548     0.00034617    -0.00004522
C        -2.63093471     0.59514946     0.11912212     0.00033494     0.00009327     0.00005435
H        -4.41446491     1.40557298    -0.69654263     0.00029310    -0.00035021    -0.00018287
H        -2.18022068    -0.25487963     0.59828557     0.00014283     0.00052928     0.00048649
C        -1.78378310     1.71966380    -0.06577965    -0.00066034     0.00000595    -0.00021834
H        -2.09350442     2.57810112    -0.65513718    -0.00023355     0.00076899     0.00010639
N        -0.45275598     1.71458719     0.30491462     0.00035320    -0.00023107     0.00018453
H         0.07916383     2.58101789     0.12932974     0.00050199    -0.00024790     0.00026258
H        -0.16472815     0.93819333     0.93019321     0.00000195     0.00004152    -0.00078731
    14
  Step:     6            Position(A)                                  Velocity(au)
C        -6.01052553    -0.90560874    -0.02263753    -0.00022380    -0.00025078     0.00003792
C        -4.72034688    -0.68529808     0.15114453     0.00024360    -0.00002133    -0.00003202
H        -6.69090816    -0.14689869    -0.37826244     0.00093542    -0.00081474    -0.00029313
H        -6.43103523    -1.87613205     0.34675275    -0.00096656     0.00096431     0.00015478
H        -4.02454228    -1.46366256     0.50933342     0.00056091     0.00050428     0.00004089
C        -3.97016198     0.54057115    -0.18304324    -0.00026810     0.00032944    -0.00005989
C        -2.62692936     0.59624436     0.11981025     0.00039488     0.00010783     0.00007063
H        -4.41151438     1.40114769    -0.69823052     0.00023489    -0.00043650    -0.00013672
H        -2.17834519    -0.24980125     0.60390283     0.00020207     0.00039479     0.00054359
C        -1.79096160     1.71973828    -0.06821431    -0.00064672     0.00000835    -0.00022584
H        -2.09628328     2.58660957    -0.65383083    -0.00027328     0.00077416     0.00014011
N        -0.44894742     1.71202884     0.30694906     0.00033842    -0.00023371     0.00018406
H         0.08460932     2.57722211     0.13275403     0.00049338    -0.00044398     0.00036233
H        -0.16440671     0.93993455     0.92092233     0.00007005     0.00023802    -0.00087662
    14
  Step:     7            Position(A)                                  Velocity(au)
C        -6.01339688    -0.90852797    -0.02217047    -0.00029320    -0.00028202     0.00004831
C        -4.71709862    -0.68532986     0.15077412     0.00034485     0.00001554    -0.00003653
H        -6.68099359    -0.15562564    -0.38172656     0.00084930    -0.00074969    -0.00035524
H        -6.44153690    -1.86462774     0.34770478    -0.00095658     0.00111220     0.00003023
H        -4.01910355    -1.45817492     0.50999793     0.00043594     0.00049331     0.00008259
C        -3.97348137     0.54406542    -0.18377034    -0.00033677     0.00030587    -0.00007136
C        -2.62229601     0.59750852     0.12066727     0.00045033     0.00012421     0.00008537
H        -4.40932624     1.39602361    -0.69953368     0.00015243    -0.00047514    -0.00011464
H        -2.17579993    -0.24624292     0.61017761     0.00026287     0.00025684     0.00060359
C        -1.79793129     1.71984639    -0.07072033    -0.00062329     0.00001158    -0.00023143
H        -2.09948290     2.59503745    -0.65207193    -0.00031040     0.00075486     0.00018861
N        -0.44535230     1.70947428     0.30894123     0.00031449    -0.00023026     0.00017675
H         0.08995754     2.57130500     0.13725633     0.00048834    -0.00062778     0.00045742
H        -0.16319571     0.94340051     0.91101550     0.00016641     0.00034809    -0.00089818
    14
  Step:     8            Position(A)                                  Velocity(au)
C        -6.01693989    -0.91177854    -0.02158075    -0.00034562    -0.00031027     0.00006001
C        -4.71280271    -0.68495816     0.15034536     0.00043381     0.00005239    -0.00004284
H        -6.67232803    -0.16329964    -0.38603399     0.00071061    -0.00062544    -0.00044576
H        -6.45196216    -1.85180044     0.34741405    -0.00095623     0.00119899    -0.00006929
H        -4.01500515    -1.45287045     0.51114030     0.00031896     0.00046988     0.00012935
C        -3.97752938     0.54726255    -0.18460441    -0.00040126     0.00027492    -0.00007936
C        -2.61707763     0.59896159     0.12167783     0.00050225     0.00014220     0.00009888
H        -4.40817958     1.39075306    -0.70073853     0.00004428    -0.00046251    -0.00011956
H        -2.17259450    -0.24418230     0.61710752     0.00032042     0.00012635     0.00066005
C        -1.80459720     1.71999166    -0.07327729    -0.00059216     0.00001474    -0.00023518
H        -2.10307381     2.60312358    -0.64970468    -0.00034483     0.00071297     0.00025015
N        -0.44206727     1.70699144     0.31081581     0.00028216    -0.00022082     0.00016279
H         0.09529261     2.56348821     0.14276087     0.00049482    -0.00078390     0.00054348
H        -0.16076614     0.94754966     0.90127295     0.00029300     0.00035915    -0.00084529
    14
  Step:     9            Position(A)                                  Velocity(au)
C        -6.02095788    -0.91531565    -0.02085769    -0.00037996    -0.00033322     0.00007215
C        -4.70760828    -0.68418363     0.14983682     0.00050840     0.00008917    -0.00005119
H        -6.66544764    -0.16930841    -0.39147846     0.00052997    -0.00045252    -0.00055965
H        -6.46245633    -1.83839754     0.34618899    -0.00097249     0.00121184    -0.00013783
H        -4.01212575    -1.44789544     0.51282768     0.00021566     0.00043257     0.00018303
C        -3.98225962     0.55007987    -0.18550651    -0.00046122     0.00023653    -0.00008377
C        -2.61130838     0.60061948     0.12283043     0.00055085     0.00016116     0.00011150
H        -4.40835753     1.38590527    -0.70214927    -0.00008862    -0.00039969    -0.00015142
H        -2.16879014    -0.24347875     0.62461757     0.00037043     0.00001341     0.00070657
C        -1.81088587     1.72016880    -0.07586525    -0.00055480     0.00001734    -0.00023708
H        -2.10702665     2.61063502    -0.64659937    -0.00037667     0.00065158     0.00032179
N        -0.43917960     1.70464350     0.31250255     0.00024229    -0.00020624     0.00014295
H         0.10078260     2.55415564     0.14914603     0.00051969    -0.00089883     0.00061676
H        -0.15678577     0.95125751     0.89252312     0.00044772     0.00027062    -0.00072081
    14
  Step:    10            Position(A)                                  Velocity(au)
C        -6.02525222    -0.91906840    -0.02000230    -0.00039684    -0.00034855     0.00008355
C        -4.70168050    -0.68300750     0.14922554     0.00056768     0.00012572    -0.00006160
H        -6.66073401    -0.17319939    -0.39827739     0.00032417    -0.00024902    -0.00068828
H        -6.47323731    -1.82528904     0.34439866    -0.00101108     0.00114249    -0.00017079
H        -4.01028721    -1.44340722     0.51514449     0.00013043     0.00038091     0.00024470
C        -3.98761946     0.55243701    -0.18643706    -0.00051579     0.00019131    -0.00008463
C        -2.60502684     0.60248723     0.12411718     0.00059499     0.00017973     0.00012353
H        -4.41011839     1.38200905    -0.70405108    -0.00024255    -0.00029336    -0.00020651
H        -2.16449068    -0.24388883     0.63256511     0.00040961    -0.00007373     0.00073760
C        -1.81673443     1.72037094    -0.07846394    -0.00051156     0.00001963    -0.00023710
H        -2.11131413     2.61737821    -0.64266484    -0.00040621     0.00057470     0.00039962
N        -0.43676676     1.70247952     0.31394301     0.00019581    -0.00018826     0.00011861
H         0.10666180     2.54382452     0.15625367     0.00056768    -0.00096259     0.00067459
H        -0.15097148     0.95347010     0.88550389     0.00062323     0.00009706    -0.00053894
    14
  Step:    11            Position(A)                                  Velocity(au)
C        -6.02963959    -0.92294079    -0.01902979    -0.00039824    -0.00035421     0.00009292
C        -4.69518916    -0.68143329     0.14848927     0.00061157     0.00016171    -0.00007390
H        -6.65835590    -0.17475620    -0.40653582     0.00011385    -0.00003836    -0.00082023
H        -6.48457558    -1.81340337     0.34245257    -0.00107494     0.00098978    -0.00016611
H        -4.00927231    -1.43956228     0.51818097     0.00006591     0.00031578     0.00031435
C        -3.99354344     0.55426504    -0.18735792    -0.00056371     0.00014069    -0.00008221
C        -2.59829180     0.60455133     0.12553286     0.00063254     0.00019609     0.00013515
H        -4.41366378     1.37948743    -0.70666707    -0.00041099    -0.00015589    -0.00027744
H        -2.15982916    -0.24509175     0.64075389     0.00043601    -0.00012947     0.00074909
C        -1.82207723     1.72059831    -0.08105234    -0.00046190     0.00002246    -0.00023516
H        -2.11591336     2.62320762    -0.63785687    -0.00043394     0.00048705     0.00047925
N        -0.43489587     1.70052487     0.31509733     0.00014384    -0.00016933     0.00009172
H         0.11320179     2.53309706     0.16390392     0.00064040    -0.00097043     0.00071577
H        -0.14315138     0.95338090     0.88073270     0.00080676    -0.00013207    -0.00032451
    14
  Step:    12            Position(A)                                  Velocity(au)
C        -6.03396447    -0.92681748    -0.01796939    -0.00038704    -0.00034898     0.00009915
C        -4.68830122    -0.67946972     0.14760883     0.00064063     0.00019659    -0.00008773
H        -6.65824342    -0.17403858    -0.41622147    -0.00008007     0.00015464    -0.00094281
H        -6.49675375    -1.80363563     0.34076465    -0.00116257     0.00076215    -0.00012574
H        -4.00884540    -1.43649902     0.52202151     0.00002258     0.00023973     0.00039089
C        -3.99995164     0.55551480    -0.18823554    -0.00060387     0.00008669    -0.00007709
C        -2.59118888     0.60677718     0.12707394     0.00066114     0.00020848     0.00014649
H        -4.41910959     1.37859855    -0.71012071    -0.00058514    -0.00000415    -0.00035393
H        -2.15495207    -0.24672131     0.64895298     0.00044913    -0.00015113     0.00073885
C        -1.82683936     1.72086239    -0.08360859    -0.00040504     0.00002681    -0.00023120
H        -2.12080751     2.62803335    -0.63218029    -0.00046050     0.00039401     0.00055627
N        -0.43362005     1.69877502     0.31594945     0.00008795    -0.00015217     0.00006453
H         0.12067168     2.52259456     0.17191243     0.00073541    -0.00092414     0.00074063
H        -0.13332196     0.95058080     0.87840456     0.00098134    -0.00037714    -0.00010892
    14
  Step:    13            Position(A)                                  Velocity(au)
C        -6.03810683    -0.93057543    -0.01686062    -0.00036662    -0.00033283     0.00010157
C        -4.68117422    -0.67713251     0.14656993     0.00065587     0.00022960    -0.00010258
H        -6.66010754    -0.17137316    -0.42716168    -0.00023998     0.00030812    -0.00104422
H        -6.51000892    -1.79672995     0.33970174    -0.00126677     0.00047863    -0.00005629
H        -4.00877822    -1.43431771     0.52673248    -0.00000123     0.00015714     0.00047214
C        -4.00675421     0.55616148    -0.18904445    -0.00063560     0.00003163    -0.00007012
C        -2.58382800     0.60911220     0.12873763     0.00067891     0.00021549     0.00015757
H        -4.42646489     1.37939659    -0.71440988    -0.00075502     0.00014281    -0.00042409
H        -2.15000364    -0.24839803     0.65691769     0.00044973    -0.00013889     0.00070656
C        -1.83093830     1.72118489    -0.08611036    -0.00034054     0.00003346    -0.00022521
H        -2.12598769     2.63182740    -0.62568735    -0.00048659     0.00030135     0.00062658
N        -0.43297187     1.69719594     0.31650914     0.00003027    -0.00013910     0.00003929
H         0.12929022     2.51287963     0.18010665     0.00084582    -0.00083265     0.00075091
H        -0.12168266     0.94513015     0.87834995     0.00112854    -0.00059666     0.00007611
    14
  Step:    14            Position(A)                                  Velocity(au)
C        -6.04198504    -0.93409879    -0.01574731    -0.00034050    -0.00030708     0.00010009
C        -4.67395272    -0.67444672     0.14536467     0.00065861     0.00025980    -0.00011780
H        -6.66349339    -0.16729780    -0.43906579    -0.00035399     0.00040653    -0.00111542
H        -6.52446674    -1.79316473     0.33953326    -0.00137479     0.00016736     0.00003152
H        -4.00887235    -1.43306127     0.53235043    -0.00000916     0.00007395     0.00055488
C        -4.01385652     0.55620685    -0.18976961    -0.00065860    -0.00002207    -0.00006228
C        -2.57633638     0.61149134     0.13052108     0.00068457     0.00021626     0.00016834
H        -4.43562709     1.38172271    -0.71939851    -0.00091088     0.00026655    -0.00047630
H        -2.14511346    -0.24975988     0.66441039     0.00043960    -0.00009557     0.00065368
C        -1.83428931     1.72159444    -0.08853551    -0.00026840     0.00004287    -0.00021721
H        -2.13145257     2.63462589    -0.61847262    -0.00051282     0.00021482     0.00068658
N        -0.43295794     1.69573193     0.31680897    -0.00002677    -0.00013151     0.00001773
H         0.13917565     2.50437864     0.18833995     0.00096044    -0.00071129     0.00074935
H        -0.10863306     0.93752773     0.88006957     0.00123185    -0.00075602     0.00020487
    14
  Step:    15            Position(A)                                  Velocity(au)
C        -6.04555582    -0.93729346    -0.01467086    -0.00031196    -0.00027417     0.00009518
C        -4.66676587    -0.67144886     0.14399292     0.00065025     0.00028604    -0.00013264
H        -6.66785181    -0.16247954    -0.45156358    -0.00041685     0.00044218    -0.00115112
H        -6.54008502    -1.79306857     0.34039120    -0.00147001    -0.00013862     0.00012443
H        -4.00897859    -1.43270000     0.53887145    -0.00000622    -0.00000284     0.00063513
C        -4.02116236     0.55567869    -0.19040699    -0.00067281    -0.00007215    -0.00005452
C        -2.56885170     0.61384326     0.13242037     0.00067748     0.00021051     0.00017866
H        -4.44639221     1.38522793    -0.72482976    -0.00104452     0.00035192    -0.00050099
H        -2.14038662    -0.25048878     0.67121814     0.00042129    -0.00002615     0.00058306
C        -1.83680998     1.72212283    -0.09086232    -0.00018904     0.00005515    -0.00020726
H        -2.13720666     2.63652698    -0.61066702    -0.00053959     0.00013979     0.00073334
N        -0.43355761     1.69431882     0.31689700    -0.00008077    -0.00012953     0.00000085
H         0.15030165     2.49731871     0.19650009     0.00106485    -0.00057967     0.00073919
H        -0.09473363     0.92859080     0.88283182     0.00127952    -0.00083369     0.00026199
    14
  Step:    16            Position(A)                                  Velocity(au)
C        -6.04880986    -0.94009677    -0.01366502    -0.00028382    -0.00023707     0.00008765
C        -4.65972717    -0.66818903     0.14246301     0.00063219     0.00030702    -0.00014631
H        -6.67261277    -0.15762425    -0.46424878    -0.00042926     0.00041487    -0.00114995
H        -6.55662601    -1.79619732     0.34225531    -0.00153513    -0.00040737     0.00020927
H        -4.00900835    -1.43312334     0.54624506     0.00000196    -0.00006593     0.00070851
C        -4.02857563     0.55462843    -0.19096240    -0.00067830    -0.00011664    -0.00004765
C        -2.56151517     0.61609661     0.13442963     0.00065762     0.00019848     0.00018833
H        -4.45847804     1.38942161    -0.73035872    -0.00115021     0.00038891    -0.00049201
H        -2.13589700    -0.25033191     0.67716601     0.00039777     0.00006274     0.00049867
C        -1.83842499     1.72280087    -0.09306974    -0.00010323     0.00007004    -0.00019540
H        -2.14325724     2.63768403    -0.60242946    -0.00056698     0.00008078     0.00076473
N        -0.43472496     1.69289821     0.31682759    -0.00012969    -0.00013213    -0.00001115
H         0.16247139     2.49169734     0.20451118     0.00114350    -0.00045829     0.00072348
H        -0.08064121     0.91928918     0.88580119     0.00126591    -0.00082300     0.00024343
    14
  Step:    17            Position(A)                                  Velocity(au)
C        -6.05176497    -0.94247976    -0.01275336    -0.00025812    -0.00019867     0.00007842
C        -4.65293551    -0.66473212     0.14079217     0.00060565     0.00032140    -0.00015801
H        -6.67724258    -0.15340349    -0.47672104    -0.00039629     0.00033013    -0.00111389
H        -6.57366885    -1.80198063     0.34496930    -0.00155556    -0.00061363     0.00027535
H        -4.00893570    -1.43414230     0.55437146     0.00000996    -0.00010872     0.00077068
C        -4.03600138     0.55312703    -0.19144945    -0.00067515    -0.00015397    -0.00004226
C        -2.55446505     0.61818549     0.13654037     0.00062549     0.00018091     0.00019706
H        -4.47155536     1.39373602    -0.73559351    -0.00122511     0.00037342    -0.00044700
H        -2.13168470    -0.24911626     0.68212749     0.00037212     0.00016336     0.00040522
C        -1.83906832     1.72365519    -0.09513713    -0.00001195     0.00008707    -0.00018169
H        -2.14961042     2.63829410    -0.59393719    -0.00059464     0.00004104     0.00077958
N        -0.43639473     1.69142831     0.31665303    -0.00017205    -0.00013754    -0.00001873
H         0.17531797     2.48729277     0.21232762     0.00118218    -0.00036496     0.00070444
H        -0.06703941     0.91058620     0.88815738     0.00119144    -0.00073025     0.00015477
    14
  Step:    18            Position(A)                                  Velocity(au)
C        -6.05445684    -0.94444311    -0.01194938    -0.00023607    -0.00016134     0.00006833
C        -4.64647753    -0.66115770     0.13900614     0.00057161     0.00032790    -0.00016703
H        -6.68128239    -0.15040200    -0.48861717    -0.00032580     0.00019737    -0.00104727
H        -6.59065696    -1.80962170     0.34827912    -0.00152196    -0.00074217     0.00031595
H        -4.00879044    -1.43550184     0.56310508     0.00001333    -0.00012611     0.00081785
C        -4.04334580     0.55126014    -0.19188696    -0.00066349    -0.00018300    -0.00003872
C        -2.54783148     0.62005435     0.13874068     0.00058202     0.00015892     0.00020452
H        -4.48527959     1.39759081    -0.74013766    -0.00126898     0.00030673    -0.00036716
H        -2.12775615    -0.24675802     0.68603107     0.00034735     0.00026735     0.00030792
C        -1.83868647     1.72470568    -0.09704445     0.00008354     0.00010552    -0.00016617
H        -2.15626620     2.63858180    -0.58537467    -0.00062174     0.00002217     0.00077781
N        -0.43848889     1.68988936     0.31641782    -0.00020704    -0.00014374    -0.00002274
H         0.18833388     2.48371317     0.21992210     0.00117039    -0.00031185     0.00068315
H        -0.05457613     0.90331359     0.88918714     0.00106146    -0.00057093     0.00000827
    14
  Step:    19            Position(A)                                  Velocity(au)
C        -6.05692938    -0.94600940    -0.01125844    -0.00021800    -0.00012667     0.00005801
C        -4.64043045    -0.65755870     0.13713814     0.00053080     0.00032538    -0.00017273
H        -6.68437018    -0.14908566    -0.49963211    -0.00022700     0.00002805    -0.00095596
H        -6.60696458    -1.81821698     0.35188128    -0.00143113    -0.00078837     0.00032868
H        -4.00864418    -1.43690118     0.57226345     0.00000903    -0.00011507     0.00084721
C        -4.05051642     0.54912350    -0.19229653    -0.00064347    -0.00020302    -0.00003719
C        -2.54173216     0.62166220     0.14101454     0.00052853     0.00013400     0.00021031
H        -4.49931677     1.40044636    -0.74362582    -0.00128373     0.00019449    -0.00025661
H        -2.12408569    -0.24326740     0.68886374     0.00032629     0.00036609     0.00021213
C        -1.83724075     1.72596354    -0.09877241     0.00018181     0.00012454    -0.00014894
H        -2.16321227     2.63877910    -0.57692108    -0.00064684     0.00002383     0.00076047
N        -0.44092404     1.68828375     0.31615559    -0.00023449    -0.00014885    -0.00002422
H         0.20092253     2.48047040     0.22727294     0.00110289    -0.00030406     0.00065966
H        -0.04381798     0.89809600     0.88833827     0.00088481    -0.00036572    -0.00018017
    14
  Step:    20            Position(A)                                  Velocity(au)
C        -6.05922593    -0.94721435    -0.01068020    -0.00020356    -0.00009557     0.00004790
C        -4.63486515    -0.65403934     0.13522740     0.00048372     0.00031300    -0.00017466
H        -6.68624850    -0.14978836    -0.50953066    -0.00010956    -0.00016549    -0.00084668
H        -6.62196565    -1.82686881     0.35546957    -0.00128549    -0.00075647     0.00031480
H        -4.00859279    -1.43801927     0.58163945    -0.00000431    -0.00007500     0.00085718
C        -4.05742290     0.54681877    -0.19270050    -0.00061530    -0.00021367    -0.00003764
C        -2.53626887     0.62298586     0.14334152     0.00046654     0.00010787     0.00021401
H        -4.51336368     1.40184574    -0.74575139    -0.00127278     0.00004552    -0.00012151
H        -2.12061794    -0.23874916     0.69067172     0.00031145     0.00045112     0.00012316
C        -1.83470899     1.72743033    -0.10030277     0.00028125     0.00014327    -0.00013012
H        -2.17041699     2.63910305    -0.56873785    -0.00066781     0.00004361     0.00072972
N        -0.44361881     1.68663290     0.31588794    -0.00025485    -0.00015134    -0.00002427