     6
  Step:     0            Position(A)                                  Velocity(au)
C        -0.03478927     0.00493570     0.03468285    -0.00007619    -0.00008686    -0.00008015
N        -0.04546073    -0.04289060     1.27901325    -0.00014961     0.00004686     0.00008847
H         0.91603569     0.02042142    -0.49616501     0.00070124     0.00047186    -0.00011478
H         0.81458216    -0.18114815     1.85852131     0.00153491    -0.00043227     0.00078549
H        -0.89352078    -0.07698422     1.90084210     0.00080844     0.00010549    -0.00070481
H        -1.00374550     0.10514136    -0.55805768    -0.00005763     0.00023876    -0.00024021
     6
  Step:     1            Position(A)                                  Velocity(au)
C        -0.03524174     0.00448586     0.03382683    -0.00008870    -0.00007782    -0.00023202
N        -0.04627811    -0.04263491     1.27988088    -0.00014719     0.00004657     0.00022784
H         0.92030837     0.02292312    -0.49687768     0.00085406     0.00044366    -0.00014163
H         0.82301660    -0.18357846     1.86262560     0.00153184    -0.00045370     0.00070477
H        -0.88915872    -0.07647928     1.89671399     0.00077486     0.00007886    -0.00079585
H        -1.00406422     0.10637217    -0.55917754    -0.00005841     0.00021136    -0.00016864
     6
  Step:     2            Position(A)                                  Velocity(au)
C        -0.03575958     0.00408442     0.03214471    -0.00009989    -0.00006895    -0.00038139
N        -0.04707083    -0.04238120     1.28150565    -0.00014057     0.00004631     0.00036439
H         0.92537845     0.02527474    -0.49771433     0.00099021     0.00041550    -0.00015980
H         0.83133922    -0.18611124     1.86623089     0.00149485    -0.00047079     0.00060460
H        -0.88504441    -0.07612152     1.89213615     0.00071659     0.00005033    -0.00086746
H        -1.00438444     0.10745346    -0.55990245    -0.00005784     0.00018292    -0.00009642
     6
  Step:     3            Position(A)                                  Velocity(au)
C        -0.03633483     0.00373143     0.02965355    -0.00010941    -0.00005978    -0.00052677
N        -0.04781628    -0.04212812     1.28386820    -0.00012982     0.00004651     0.00049644
H         0.93114358     0.02746968    -0.49862628     0.00110426     0.00038433    -0.00016913
H         0.83937386    -0.18873000     1.86924137     0.00142634    -0.00048616     0.00048888
H        -0.88131758    -0.07592859     1.88722195     0.00063196     0.00001689    -0.00091630
H        -1.00469713     0.10837379    -0.56023260    -0.00005470     0.00015087    -0.00002515
     6
  Step:     4            Position(A)                                  Velocity(au)
C        -0.03695756     0.00342987     0.02637685    -0.00011682    -0.00004970    -0.00066734
N        -0.04849235    -0.04187188     1.28694146    -0.00011511     0.00004759     0.00062286
H         0.93746957     0.02948304    -0.49956624     0.00118817     0.00034670    -0.00017051
H         0.84695698    -0.19143447     1.87158391     0.00132808    -0.00050283     0.00036258
H        -0.87812470    -0.07593661     1.88210304     0.00052088    -0.00002496    -0.00093840
H        -1.00498343     0.10910542    -0.56017781    -0.00004541     0.00011188     0.00004282
     6
  Step:     5            Position(A)                                  Velocity(au)
C        -0.03761542     0.00318665     0.02233824    -0.00012161    -0.00003833    -0.00080367
N        -0.04907812    -0.04160639     1.29069601    -0.00009678     0.00004948     0.00074369
H         0.94416822     0.03127017    -0.50049538     0.00122899     0.00030176    -0.00016608
H         0.85393224    -0.19424202     1.87321596     0.00120099    -0.00052136     0.00023254
H        -0.87560769    -0.07620218     1.87693524     0.00038605    -0.00007584    -0.00092834
H        -1.00519492     0.10960023    -0.55976320    -0.00002199     0.00006461     0.00010388
     6
  Step:     6            Position(A)                                  Velocity(au)
C        -0.03829292     0.00300896     0.01755208    -0.00012332    -0.00002665    -0.00093497
N        -0.04955505    -0.04132857     1.29510762    -0.00007533     0.00005087     0.00085783
H         0.95096461     0.03279660    -0.50138992     0.00121719     0.00025663    -0.00015758
H         0.86014465    -0.19715937     1.87413734     0.00104713    -0.00053450     0.00010519
H        -0.87388563    -0.07676939     1.87190932     0.00023122    -0.00012730    -0.00088178
H        -1.00522491     0.10981489    -0.55903710     0.00002087     0.00001579     0.00015462
     6
  Step:     7            Position(A)                                  Velocity(au)
C        -0.03897277     0.00289337     0.01204739    -0.00012188    -0.00001619    -0.00105538
N        -0.04990728    -0.04104650     1.30013782    -0.00005127     0.00005051     0.00096030
H         0.95756525     0.03409480    -0.50222974     0.00115917     0.00021930    -0.00014495
H         0.86545753    -0.20012505     1.87437369     0.00087203    -0.00053368    -0.00001713
H        -0.87306275    -0.07760332     1.86722989     0.00005803    -0.00016935    -0.00080062
H        -1.00496522     0.10977403    -0.55806133     0.00007562    -0.00002522     0.00019400
     6
  Step:     8            Position(A)                                  Velocity(au)
C        -0.03963849     0.00283021     0.00590029    -0.00011746    -0.00000744    -0.00115724
N        -0.05012113    -0.04077094     1.30570970    -0.00002521     0.00004850     0.00104496
H         0.96376231     0.03521772    -0.50299021     0.00106909     0.00018983    -0.00012830
H         0.86977219    -0.20305144     1.87394823     0.00068306    -0.00051819    -0.00013372
H        -0.87324498    -0.07863912     1.86307009    -0.00013141    -0.00020081    -0.00069159
H        -1.00438999     0.10953649    -0.55689525     0.00012928    -0.00005613     0.00022212
     6
  Step:     9            Position(A)                                  Velocity(au)
C        -0.04027445     0.00281087    -0.00077716    -0.00011028    -0.00000017    -0.00123564
N        -0.05018667    -0.04050901     1.31171815     0.00000194     0.00004547     0.00110810
H         0.96941295     0.03619856    -0.50365152     0.00095699     0.00016502    -0.00010895
H         0.87302719    -0.20586760     1.87289179     0.00048765    -0.00049142    -0.00024210
H        -0.87451908    -0.07982870     1.85956569    -0.00033116    -0.00022458    -0.00056204
H        -1.00353248     0.10915194    -0.55559977     0.00017367    -0.00007880     0.00023850
     6
  Step:    10            Position(A)                                  Velocity(au)
C        -0.04086590     0.00282829    -0.00785236    -0.00010063     0.00000585    -0.00128858
N        -0.05009951    -0.04026488     1.31804285     0.00002905     0.00004188     0.00114846
H         0.97441353     0.03705438    -0.50420286     0.00082999     0.00014268    -0.00008859
H         0.87519973    -0.20852093     1.87125361     0.00029349    -0.00045677    -0.00033881
H        -0.87693078    -0.08113871     1.85681459    -0.00053249    -0.00024284    -0.00041977
H        -1.00245710     0.10865941    -0.55424070     0.00020454    -0.00009485     0.00024263
     6
  Step:    11            Position(A)                                  Velocity(au)
C        -0.04139961     0.00287630    -0.01518465    -0.00008895     0.00001079    -0.00131677
N        -0.04986190    -0.04004071     1.32455893     0.00005493     0.00003809     0.00116711
H         0.97869299     0.03779382    -0.50464205     0.00069454     0.00012178    -0.00006865
H         0.87630866    -0.21097464     1.86910355     0.00010813    -0.00041735    -0.00042079
H        -0.88047278    -0.08254385     1.85487225    -0.00072599    -0.00025691    -0.00027299
H        -1.00124558     0.10809141    -0.55288700     0.00021992    -0.00010539     0.00023457
     6
  Step:    12            Position(A)                                  Velocity(au)
C        -0.04186470     0.00294940    -0.02263880    -0.00007577     0.00001476    -0.00132358
N        -0.04948270    -0.03983714     1.33114870     0.00007859     0.00003436     0.00116741
H         0.98221269     0.03842195    -0.50497380     0.00055680     0.00010200    -0.00005042
H         0.87641395    -0.21320743     1.86652847    -0.00006193    -0.00037619    -0.00048621
H        -0.88508320    -0.08402368     1.85374904    -0.00090358    -0.00026785    -0.00012949
H        -0.99998751     0.10747596    -0.55160660     0.00021950    -0.00011134     0.00021522
     6
  Step:    13            Position(A)                                  Velocity(au)
C        -0.04225341     0.00304265    -0.03009930    -0.00006168     0.00001793    -0.00131443
N        -0.04897633    -0.03965353     1.33771381     0.00009935     0.00003090     0.00115441
H         0.98496721     0.03894314    -0.50521021     0.00042223     0.00008328    -0.00003503
H         0.87561080    -0.21521367     1.86362475    -0.00021211    -0.00033610    -0.00053481
H        -0.89065461    -0.08556210     1.85341314    -0.00105988    -0.00027668     0.00000448
H        -0.99877212     0.10683682    -0.55046184     0.00020417    -0.00011361     0.00018601
     6
  Step:    14            Position(A)                                  Velocity(au)
C        -0.04256119     0.00315188    -0.03748072    -0.00004717     0.00002046    -0.00129529
N        -0.04836087    -0.03948820     1.34418383     0.00011689     0.00002788     0.00113354
H         0.98698031     0.03936231    -0.50536938     0.00029476     0.00006566    -0.00002331
H         0.87401889    -0.21700253     1.86048965    -0.00033991    -0.00029938    -0.00056742
H        -0.89705085    -0.08714783     1.85379968    -0.00119246    -0.00028440     0.00012485
H        -0.99768213     0.10619317    -0.54950629     0.00017545    -0.00011307     0.00014854
     6
  Step:    15            Position(A)                                  Velocity(au)
C        -0.04278626     0.00327376    -0.04473063    -0.00005042     0.00003483    -0.00196747
N        -0.04765601    -0.03933864     1.35051805     0.00020288     0.00003928     0.00171685
H         0.98829675     0.03968487    -0.50547353     0.00027332     0.00007595    -0.00002442
H         0.87177126    -0.21859539     1.85721530    -0.00068761    -0.00041417    -0.00090566
H        -0.90412446    -0.08877465     1.85482343    -0.00201315    -0.00045165     0.00035538
H        -0.99679025     0.10555960    -0.54878393     0.00020897    -0.00017097     0.00016129
     6
  Step:    16            Position(A)                                  Velocity(au)
C        -0.04303700     0.00344972    -0.05537068    -0.00002374     0.00001699    -0.00111311
N        -0.04648744    -0.03912124     1.35983661     0.00012880     0.00002353     0.00097881
H         0.98981735     0.04016805    -0.50587549     0.00016670     0.00005878    -0.00007251
H         0.86771645    -0.22083716     1.85216949    -0.00045172    -0.00023763    -0.00053756
H        -0.91565183    -0.09127263     1.85712937    -0.00126668    -0.00026761     0.00027709
H        -0.99597959     0.10469812    -0.54834859     0.00004475    -0.00008295    -0.00000500
     6
  Step:    17            Position(A)                                  Velocity(au)
C        -0.04312783     0.00355037    -0.06156730    -0.00000869     0.00001857    -0.00108355
N        -0.04574050    -0.03899309     1.36528001     0.00013432     0.00002216     0.00095119
H         0.99045171     0.04045069    -0.50627626     0.00006313     0.00004180    -0.00007150
H         0.86500400    -0.22211520     1.84917152    -0.00049826    -0.00021841    -0.00051900
H        -0.92295630    -0.09280348     1.85890254    -0.00131060    -0.00027505     0.00034381
H        -0.99589435     0.10424427    -0.54852708    -0.00001730    -0.00007748    -0.00005975
     6
  Step:    18            Position(A)                                  Velocity(au)
C        -0.04313498     0.00365903    -0.06758525     0.00000586     0.00002001    -0.00105804
N        -0.04497323    -0.03887148     1.37055913     0.00013705     0.00002136     0.00092778
H         0.99052902     0.04063921    -0.50668148    -0.00003070     0.00002553    -0.00007475
H         0.86209964    -0.22329921     1.84631896    -0.00052376    -0.00020586    -0.00048993
H        -0.93042588    -0.09437318     1.86100510    -0.00133543    -0.00028352     0.00039712
H        -0.99617464     0.10382472    -0.54902209    -0.00008446    -0.00007145    -0.00011752
     6
  Step:    19            Position(A)                                  Velocity(au)
C        -0.04306201     0.00377509    -0.07344847     0.00001981     0.00002133    -0.00103387
N        -0.04420150    -0.03875322     1.37569843     0.00013664     0.00002106     0.00090611
H         0.99010694     0.04073738    -0.50711571    -0.00011484     0.00000963    -0.00008233
H         0.85912250    -0.22442682     1.84366988    -0.00052698    -0.00019930    -0.00044910
H        -0.93795231    -0.09598727     1.86336191    -0.00133790    -0.00029232     0.00043687
H        -0.99684282     0.10344189    -0.54984673    -0.00015508    -0.00006485    -0.00017738
     6
  Step:    20            Position(A)                                  Velocity(au)
C        -0.04291307     0.00389795    -0.07916581     0.00003294     0.00002252    -0.00100904
N        -0.04344276    -0.03863557     1.38070860     0.00013286     0.00002119     0.00088433
H         0.98924267     0.04074703    -0.50760365    -0.00018868    -0.00000614    -0.00009426
H         0.85619685    -0.22553160     1.84128846    -0.00050721    -0.00019818    -0.00039593
H        -0.94541195    -0.09764753     1.86589852    -0.00131597    -0.00030089     0.00046308
H        -0.99791175     0.10309835    -0.55100892    -0.00022703    -0.00005769    -0.00023806
     6
  Step:    21            Position(A)                                  Velocity(au)
C        -0.04269351     0.00402702    -0.08473510     0.00004499     0.00002360    -0.00098240
N        -0.04271533    -0.03851617     1.38559011     0.00012573     0.00002170     0.00086134
H         0.98799641     0.04066874    -0.50817011    -0.00025136    -0.00002189    -0.00011058
H         0.85344911    -0.22664359     1.83924122    -0.00046471    -0.00020197    -0.00033065
H        -0.95267214    -0.09935283     1.86854171    -0.00126922    -0.00030888     0.00047619
H        -0.99938232     0.10279656    -0.55250959    -0.00029794    -0.00005008    -0.00029817
     6
  Step:    22            Position(A)                                  Velocity(au)
C        -0.04241013     0.00416175    -0.09014779     0.00005567     0.00002457    -0.00095349
N        -0.04203731    -0.03839295     1.39033734     0.00011541     0.00002255     0.00083667
H         0.98643278     0.04050234    -0.50883980    -0.00030202    -0.00003772    -0.00013124
H         0.85100196    -0.22778941     1.83759221    -0.00040094    -0.00021008    -0.00025433
H        -0.95960017    -0.10110041     1.87122167    -0.00119879    -0.00031619     0.00047710
H        -1.00124229     0.10253857    -0.55434203    -0.00036538    -0.00004211    -0.00035630
     6
  Step:    23            Position(A)                                  Velocity(au)
C        -0.04207121     0.00430163    -0.09539266     0.00006475     0.00002545    -0.00092231
N        -0.04142539    -0.03826412     1.39494188     0.00010227     0.00002368     0.00081023
H         0.98462058     0.04024707    -0.50963704    -0.00034002    -0.00005374    -0.00015615
H         0.84896760    -0.22899179     1.83639851    -0.00031848    -0.00022179    -0.00016866
H        -0.96607153    -0.10288703     1.87387445    -0.00110706    -0.00032289     0.00046714
H        -1.00346632     0.10232588    -0.55649210    -0.00042713    -0.00003391    -0.00041122
     6
  Step:    24            Position(A)                                  Velocity(au)
C        -0.04168627     0.00444624    -0.10045846     0.00007202     0.00002626    -0.00088918
N        -0.04089407    -0.03812822     1.39939500     0.00008679     0.00002505     0.00078226
H         0.98263161     0.03990158    -0.51058541    -0.00036502    -0.00007005    -0.00018515
H         0.84744165    -0.23026884     1.83570678    -0.00022084    -0.00023623    -0.00007580
H        -0.97197609    -0.10471000     1.87644384    -0.00099721    -0.00032919     0.00044789
H        -1.00601721     0.10215954    -0.55893910    -0.00048127    -0.00002553    -0.00046191
     6
  Step:    25            Position(A)                                  Velocity(au)
C        -0.04126584     0.00459529    -0.10533552     0.00007736     0.00002703    -0.00085456
N        -0.04045489    -0.03798406     1.40368909     0.00006956     0.00002659     0.00075313
H         0.98053896     0.03946375    -0.51170739    -0.00037699    -0.00008682    -0.00021803
H         0.84649822    -0.23163327     1.83555088    -0.00011224    -0.00025237     0.00002179
H        -0.97722229    -0.10656800     1.87888277    -0.00087293    -0.00033543     0.00042112
H        -1.00884783     0.10204036    -0.56165718    -0.00052629    -0.00001701    -0.00050763
     6
  Step:    26            Position(A)                                  Velocity(au)
C        -0.04082103     0.00474858    -0.11001658     0.00008068     0.00002778    -0.00081896
N        -0.04011605    -0.03783080     1.40781862     0.00005119     0.00002826     0.00072329
H         0.97841510     0.03893047    -0.51302402    -0.00037622    -0.00010427    -0.00025453
H         0.84618627    -0.23309153     1.83595046     0.00000265    -0.00026906     0.00012155
H        -0.98173958    -0.10846172     1.88115398    -0.00073809    -0.00034205     0.00038861
H        -1.01190360     0.10196931    -0.56461686    -0.00056113    -0.00000826    -0.00054793
     6
  Step:    27            Position(A)                                  Velocity(au)
C        -0.04036325     0.00490602    -0.11449705     0.00008198     0.00002852    -0.00078286
N        -0.03988222    -0.03766796     1.41178036     0.00003231     0.00002998     0.00069317
H         0.97633027     0.03829732    -0.51455476    -0.00036327    -0.00012267    -0.00029437
H         0.84652782    -0.23464320     1.83691067     0.00011902    -0.00028505     0.00022099
H        -0.98547915    -0.11039447     1.88323010    -0.00059655    -0.00034958     0.00035211
H        -1.01512500     0.10194796    -0.56778668    -0.00058517     0.00000087    -0.00058260
     6
  Step:    28            Position(A)                                  Velocity(au)
C        -0.03990384     0.00506760    -0.11877480     0.00008130     0.00002926    -0.00074665
N        -0.03975453    -0.03749540     1.41557338     0.00001354     0.00003170     0.00066313
H         0.97435100     0.03755815    -0.51631726    -0.00033891    -0.00014237    -0.00033723
H         0.84751777    -0.23628048     1.83842276     0.00023220    -0.00029898     0.00031775
H        -0.98841343    -0.11237259     1.88509324    -0.00045194    -0.00035859     0.00031324
H        -1.01845012     0.10197909    -0.57113465    -0.00059819     0.00001067    -0.00061170
     6
  Step:    29            Position(A)                                  Velocity(au)
C        -0.03945381     0.00523338    -0.12284969     0.00007870     0.00003002    -0.00071060
N        -0.03973079    -0.03731330     1.41919865    -0.00000458     0.00003337     0.00063345
H         0.97253889     0.03670468    -0.51832729    -0.00030409    -0.00016381    -0.00038279
H         0.84912546    -0.23798788     1.84046533     0.00033791    -0.00030948     0.00040979
H        -0.99053489    -0.11440597     1.88673429    -0.00030763    -0.00036978     0.00027346
H        -1.02181684     0.10206738    -0.57462965    -0.00060033     0.00002156    -0.00063549
     6
  Step:    30            Position(A)                                  Velocity(au)
C        -0.03902359     0.00540341    -0.12672289     0.00007430     0.00003079    -0.00067485
N        -0.03980576    -0.03712214     1.42265848    -0.00002153     0.00003494     0.00060428
H         0.97094981     0.03572592    -0.52059876    -0.00025981    -0.00018755    -0.00043075
H         0.85129733    -0.23974200     1.84300630     0.00043241    -0.00031510     0.00049541
H        -0.99185429    -0.11650859     1.88815188    -0.00016670    -0.00038395     0.00023405
H        -1.02516477     0.10222029    -0.57824260    -0.00059204     0.00003415    -0.00065445
     6
  Step:    31            Position(A)                                  Velocity(au)
C        -0.03862296     0.00557770    -0.13039586     0.00006823     0.00003155    -0.00063928
N        -0.03997158    -0.03692262     1.42595571    -0.00003689     0.00003637     0.00057558
H         0.96963368     0.03460752    -0.52314396    -0.00020710    -0.00021425    -0.00048089
H         0.85396069    -0.24151130     1.84600505     0.00051268    -0.00031434     0.00057333
H        -0.99239892    -0.11869932     1.88935141    -0.00003190    -0.00040206     0.00019611
H        -1.02843700     0.10244922    -0.58194772    -0.00057409     0.00004927    -0.00066929
     6
  Step:    32            Position(A)                                  Velocity(au)
C        -0.03826089     0.00575609    -0.13386890     0.00006062     0.00003225    -0.00060352
N        -0.04021813    -0.03671558     1.42909243    -0.00005029     0.00003765     0.00054709
H         0.96863485     0.03333099    -0.52597426    -0.00014676    -0.00024474    -0.00053319
H         0.85702813    -0.24325575     1.84941503     0.00057651    -0.00030562     0.00064271
H        -0.99221087    -0.12100293     1.89034400     0.00009427    -0.00042531     0.00016057
H        -1.03158203     0.10277105    -0.58572407    -0.00054762     0.00006812    -0.00068107
     6
  Step:    33            Position(A)                                  Velocity(au)
C        -0.03794558     0.00593810    -0.13713939     0.00005160     0.00003282    -0.00056677
N        -0.04053345    -0.03650192     1.43206871    -0.00006143     0.00003879     0.00051824
H         0.96799379     0.03187283    -0.52910163    -0.00007918    -0.00027997    -0.00058803
H         0.86040243    -0.24492625     1.85318651     0.00062260    -0.00028726     0.00070326
H        -0.99134555    -0.12345161     1.89114556     0.00020955    -0.00045516     0.00012821
H        -1.03455589     0.10321038    -0.58955774    -0.00051427     0.00009235    -0.00069136
     6
  Step:    34            Position(A)                                  Velocity(au)
C        -0.03768454     0.00612261    -0.14019901     0.00004129     0.00003308    -0.00052761
N        -0.04090417    -0.03628240     1.43488047    -0.00007009     0.00003981     0.00048801
H         0.96775056     0.03020414    -0.53254177    -0.00000381    -0.00032072    -0.00064662
H         0.86398169    -0.24646401     1.85726946     0.00065052    -0.00025756     0.00075514
H        -0.98987048    -0.12608649     1.89177595     0.00031184    -0.00049325     0.00009972
H        -1.03732576     0.10380248    -0.59344567    -0.00047660     0.00012413    -0.00070271
     6
  Step:    35            Position(A)                                  Velocity(au)
C        -0.03748462     0.00630734    -0.14302924     0.00002983     0.00003274    -0.00048350
N        -0.04131587    -0.03605748     1.43751643    -0.00007613     0.00004081     0.00045459
H         0.96795130     0.02829258    -0.53632006     0.00008120    -0.00036674    -0.00071153
H         0.86766433    -0.24780144     1.86161637     0.00066071    -0.00021563     0.00079895
H        -0.98786442    -0.12895784     1.89225881     0.00039919    -0.00054061     0.00007593
H        -1.03987628     0.10459608    -0.59740224    -0.00043868     0.00016572    -0.00071910
     6
  Step:    36            Position(A)                                  Velocity(au)
C        -0.03735167     0.00648794    -0.14559367     0.00001754     0.00003139    -0.00043087
N        -0.04175357    -0.03582707     1.43995259    -0.00007951     0.00004189     0.00041546
H         0.96865657     0.02611219    -0.54048067     0.00017837    -0.00041477    -0.00078654
H         0.87135351    -0.24886986     1.86618375     0.00065408    -0.00016339     0.00083511
H        -0.98541656    -0.13211831     1.89262312     0.00046992    -0.00059562     0.00005817
H        -1.04222029     0.10565145    -0.60146905    -0.00040640     0.00021755    -0.00074583
     6
  Step:    37            Position(A)                                  Velocity(au)
C        -0.03728904     0.00665739    -0.14783399     0.00000577     0.00003272    -0.00041879
N        -0.04220257    -0.03559032     1.44214934    -0.00009170     0.00004923     0.00042062
H         0.96994040     0.02366736    -0.54509112     0.00032789    -0.00052192    -0.00099714
H         0.87495828    -0.24962342     1.87092904     0.00072020    -0.00012254     0.00098452
H        -0.98262420    -0.13559984     1.89290747     0.00059679    -0.00074385     0.00005520
H        -1.04440816     0.10702209    -0.60571932    -0.00043936     0.00031428    -0.00089730
     6
  Step:    38            Position(A)                                  Velocity(au)
C        -0.03726646     0.00683418    -0.15002987     0.00000225     0.00003163    -0.00037749
N        -0.04271750    -0.03531499     1.44438805    -0.00009175     0.00004930     0.00038849
H         0.97191850     0.02099890    -0.55081164     0.00036765    -0.00044682    -0.00104415
H         0.87882035    -0.25052296     1.87638055     0.00065588    -0.00019004     0.00096662
H        -0.97916853    -0.13951234     1.89326728     0.00063615    -0.00066920     0.00007479
H        -1.04681732     0.10856982    -0.61075372    -0.00041141     0.00024405    -0.00089771
     6
  Step:    39            Position(A)                                  Velocity(au)
C        -0.03726402     0.00700981    -0.15204048    -0.00000157     0.00003199    -0.00034947
N        -0.04322498    -0.03504092     1.44647843    -0.00008912     0.00004893     0.00036547
H         0.97403719     0.01868836    -0.55672633     0.00038315    -0.00039321    -0.00107120
H         0.88226688    -0.25174107     1.88170037     0.00057336    -0.00023654     0.00093938
H        -0.97553538    -0.14305689     1.89374091     0.00066033    -0.00061322     0.00009628
H        -1.04899255     0.10974164    -0.61572270    -0.00035971     0.00018188    -0.00087883
     6
  Step:    40            Position(A)                                  Velocity(au)
C        -0.03728393     0.00719049    -0.15392261    -0.00000570     0.00003321    -0.00032941
N        -0.04371018    -0.03476998     1.44845898    -0.00008394     0.00004831     0.00034778
H         0.97618633     0.01661893    -0.56274361     0.00038186    -0.00035789    -0.00108463
H         0.88520699    -0.25315778     1.88684428     0.00047608    -0.00026366     0.00090499
H        -0.97181317    -0.14634292     1.89433970     0.00066848    -0.00057520     0.00012035
H        -1.05082416     0.11059579    -0.62054295    -0.00029208     0.00012979    -0.00084831
     6
  Step:    41            Position(A)                                  Velocity(au)
C        -0.03732746     0.00737953    -0.15570811    -0.00000993     0.00003488    -0.00031390
N        -0.04415954    -0.03450308     1.45035058    -0.00007647     0.00004758     0.00033302
H         0.97828877     0.01470366    -0.56880256     0.00036819    -0.00033580    -0.00108865
H         0.88756753    -0.25467670     1.89177655     0.00036703    -0.00027577     0.00086471
H        -0.96809254    -0.14946121     1.89508089     0.00066059    -0.00055159     0.00014791
H        -1.05224455     0.11118673    -0.62516775    -0.00021475     0.00008638    -0.00081122
     6
  Step:    42            Position(A)                                  Velocity(au)
C        -0.03739445     0.00757866    -0.15741589    -0.00001404     0.00003680    -0.00030122
N        -0.04456123    -0.03424052     1.45216499    -0.00006705     0.00004683     0.00031997
H         0.98028373     0.01288195    -0.57485881     0.00034439    -0.00032298    -0.00108554
H         0.88929155    -0.25622677     1.89646734     0.00024907    -0.00027690     0.00081958
H        -0.96446174    -0.15248139     1.89598571     0.00063737    -0.00053906     0.00017940
H        -1.05321404     0.11155710    -0.62957069    -0.00013187     0.00004966    -0.00077040
     6
  Step:    43            Position(A)                                  Velocity(au)
C        -0.03748358     0.00778883    -0.15905857    -0.00001783     0.00003885    -0.00029051
N        -0.04490528    -0.03398218     1.45390951    -0.00005600     0.00004613     0.00030802
H         0.98211937     0.01111122    -0.58087688     0.00031182    -0.00031675    -0.00107657
H         0.89033786    -0.25775665     1.90089258     0.00012497    -0.00027012     0.00077063
H        -0.96100321    -0.15545713     1.89707633     0.00060007    -0.00053517     0.00021479
H        -1.05371127     0.11173914    -0.63373676    -0.00004623     0.00001803    -0.00072750
     6
  Step:    44            Position(A)                                  Velocity(au)
C        -0.03759267     0.00801056    -0.16064542    -0.00002118     0.00004098    -0.00028128
N        -0.04518374    -0.03372768     1.45558919    -0.00004369     0.00004552     0.00029686
H         0.98375017     0.00936066    -0.58682675     0.00027151    -0.00031538    -0.00106254
H         0.89068086    -0.25922958     1.90503429    -0.00000249    -0.00025770     0.00071898
H        -0.95779089    -0.15843075     1.89837349     0.00055039    -0.00053815     0.00025366
H        -1.05372792     0.11175751    -0.63765811     0.00004009    -0.00000968    -0.00068361
     6