 Fermi distribution function

Calculation with static geometry


********************************************************************************
 iSCC Total electronic   Diff electronic      SCC error    
   10   -0.54344391E+01   -0.11279866E-12    0.13225474E-07
********************************************************************************

 Total charge:     1.00000000

 Atomic gross charges (e)
 Atom           Charge
    1       0.14010643
    2      -0.01982820
    3       0.15821011
    4       0.27629684
    5       0.26893039
    6       0.17628443

Nr. of electrons (up):     12.00000000
Atom populations (up)
 Atom       Population
    1       3.85989357
    2       5.01982820
    3       0.84178989
    4       0.72370316
    5       0.73106961
    6       0.82371557

l-shell populations (up)
 Atom Sh.   l       Population
    1   1   0       1.29887698
    1   2   1       2.56101659
    2   1   0       1.41506277
    2   2   1       3.60476543
    3   1   0       0.84178989
    4   1   0       0.72370316
    5   1   0       0.73106961
    6   1   0       0.82371557

Orbital populations (up)
 Atom Sh.   l   m       Population  Label
    1   1   0   0       1.29887698  s
    1   2   1  -1       0.61845802  p_y
    1   2   1   0       0.88558838  p_z
    1   2   1   1       1.05697019  p_x
    2   1   0   0       1.41506277  s
    2   2   1  -1       1.30931243  p_y
    2   2   1   0       1.13832531  p_z
    2   2   1   1       1.15712770  p_x
    3   1   0   0       0.84178989  s
    4   1   0   0       0.72370316  s
    5   1   0   0       0.73106961  s
    6   1   0   0       0.82371557  s

Fermi level:                        -0.4952739866 H          -13.4771 eV
Band energy:                        -8.9948877804 H         -244.7633 eV
TS:                                  0.0000000000 H            0.0000 eV
Band free energy (E-TS):            -8.9948877804 H         -244.7633 eV
Extrapolated E(0K):                 -8.9948877804 H         -244.7633 eV
Input / Output electrons (q):     12.0000000000     12.0000000000

Energy H0:                          -5.5698611883 H         -151.5636 eV
Energy SCC:                          0.1354221375 H            3.6850 eV
Total Electronic energy:            -5.4344390508 H         -147.8786 eV
Repulsive energy:                    0.2040260180 H            5.5518 eV
Total energy:                       -5.2304130328 H         -142.3268 eV
Extrapolated to 0:                  -5.2304130328 H         -142.3268 eV
Total Mermin free energy:           -5.2304130328 H         -142.3268 eV
Force related energy:               -5.2304130328 H         -142.3268 eV

SCC converged

Excitation Energy:                   0.1570247688 H            4.2729 eV

Total Forces
    1     -0.004538896020      0.005890681090     -0.014558027446
    2     -0.009386838788     -0.007892892138     -0.005030433921
    3      0.000519959124      0.003956319358      0.001773318623
    4      0.001046554030     -0.004409393479      0.009814586354
    5      0.008825287349      0.006337655393      0.006093305453
    6      0.003533934305     -0.003882370224      0.001907250936

Maximal derivative component:        0.145580E-01 au


