|===============================================================================
|
|  DFTB+ release 20.1
|
|  Copyright (C) 2006 - 2020  DFTB+ developers group
|
|===============================================================================
|
|  When publishing results obtained with DFTB+, please cite the following
|  reference:
|
|  * DFTB+, a software package for efficient approximate density functional
|    theory based atomistic simulations, J. Chem. Phys. 152, 124101 (2020).
|    [doi: 10.1063/1.5143190]
|
|  You should also cite additional publications crediting the parametrization
|  data you use. Please consult the documentation of the SK-files for the
|  references.
|
|===============================================================================

Reading input file 'dftb_in.hsd'
Parser version: 8

--------------------------------------------------------------------------------
Reading SK-files:
Done.


Processed input in HSD format written to 'dftb_pin.hsd'

Starting initialization...
--------------------------------------------------------------------------------
OpenMP threads:              1
Chosen random seed:          452334980
Mode:                        Static calculation
Self consistent charges:     Yes
SCC-tolerance:                 0.100000E-05
Max. scc iterations:                   1000
Shell resolved Hubbard:      No
Spin polarisation:           No
Nr. of up electrons:             6.000000
Nr. of down electrons:           6.000000
Periodic boundaries:         No
Electronic solver:           Relatively robust
Maximal SCC-cycles:                    1000
Initial charges:             Set automatically (system chrg:   0.100E+01)
Included shells:             C:  s, p
                             N:  s, p
                             H:  s
Spin coupling constants:     C   1(s)-1(s):  -0.455900E-01
                             C   1(s)-2(p):  -0.293000E-01
                             C   2(p)-1(s):  -0.293000E-01
                             C   2(p)-2(p):  -0.275500E-01
                             N   1(s)-1(s):  -0.468700E-01
                             N   1(s)-2(p):  -0.317000E-01
                             N   2(p)-1(s):  -0.317000E-01
                             N   2(p)-2(p):  -0.307200E-01
                             H   1(s)-1(s):  -0.792500E-01
Range separated hybrid:      Yes
  Screening parameter omega:   0.300000E+00
  Range separated algorithm:   MatrixBased
Extra options:
                             Mulliken analysis
                             Force calculation
Force type                   original
                             Eigenvector printing


REKS Calcuation:             Yes
SSR(2,2) Calcuation:         Yes
Energy Functional:           (PPS+OSS)/2
Number of Core Orbitals:                  5
Number of Active Orbitals:                2
Number of Basis:                         12
Number of States:                         2
State-Averaging Weight:          0.500000
                                 0.500000
State of Interest:                        2
Initial Guess:               Diagonalize H0 matrix
Newton-Raphson for FON opt:  Yes
NR max. Iterations:                      50
Level Shifting:              Yes
Shift Value:                     0.300000
W Scale Factor:              C  =    3.200000
                             N  =    3.200000
                             H  =    3.200000
Transition Dipole:           No
Gradient of Microstate:      No
CP-REKS Solver:              Preconditioned Conjugate-Gradient
CG max. Iterations:                     100
CG Tolerance:                  0.100000E-07
Memory for A and Hxc:        Direct Updating Without Saving
Non-Adiabatic Coupling:      Yes

--------------------------------------------------------------------------------

***  Geometry step: 0

  iSCC       reks energy        Diff energy         x_a       SCC error   
    1       -6.1854248308       0.0000000000     0.999987    1.13788117
    2       -6.1959047958      -0.0104799650     1.000000    0.07138492
    3       -6.1986936399      -0.0027888441     1.000000    0.03287807
    4       -6.1998555724      -0.0011619326     1.000000    0.02375301
    5       -6.2004110122      -0.0005554398     1.000000    0.01798357
    6       -6.2006878739      -0.0002768617     1.000000    0.01267603
    7       -6.2008293068      -0.0001414329     1.000000    0.01129840
    8       -6.2009022128      -0.0000729059     1.000000    0.00868793
    9       -6.2009396340      -0.0000374212     1.000000    0.00787597
   10       -6.2009587911      -0.0000191572     1.000000    0.00722757
   11       -6.2009679319      -0.0000091408     1.000000    0.00626410
   12       -6.2009719835      -0.0000040515     1.000000    0.00692311
   13       -6.2009727266      -0.0000007431     1.000000    0.00599921
   14       -6.2009719581       0.0000007685     1.000000    0.00723508
   15       -6.2009695642       0.0000023939     1.000000    0.00701254
   16       -6.2009666860       0.0000028781     1.000000    0.00792627
   17       -6.2009624243       0.0000042617     1.000000    0.00810183
   18       -6.2009580404       0.0000043839     1.000000    0.00889021
   19       -6.2009520082       0.0000060322     1.000000    0.00931630
   20       -6.2009460874       0.0000059208     1.000000    0.01008207
   21       -6.2009379640       0.0000081235     1.000000    0.01068808
   22       -6.2009302473       0.0000077167     1.000000    0.01148723
   23       -6.2009194906       0.0000107567     1.000000    0.01224106
   24       -6.2009096133       0.0000098772     1.000000    0.01310564
   25       -6.2008955049       0.0000141085     1.000000    0.01399431
   26       -6.2008830510       0.0000124539     1.000000    0.01494317
   27       -6.2008647041       0.0000183469     1.000000    0.01596248
   28       -6.2008492569       0.0000154472     1.000000    0.01700596
   29       -6.2008256291       0.0000236279     1.000000    0.01815439
   30       -6.2008068464       0.0000187827     1.000000    0.01929583
   31       -6.2007767772       0.0000300692     1.000000    0.02057039
   32       -6.2007545025       0.0000222746     1.000000    0.02180591
   33       -6.2007167946       0.0000377079     1.000000    0.02319884
   34       -6.2006912078       0.0000255868     1.000000    0.02451640
   35       -6.2006447623       0.0000464456     1.000000    0.02601242
   36       -6.2006165532       0.0000282090     1.000000    0.02739088
   37       -6.2005605562       0.0000559970     1.000000    0.02896514
   38       -6.2005310801       0.0000294762     1.000000    0.03037407
   39       -6.2004652131       0.0000658670     1.000000    0.03199152
   40       -6.2004365576       0.0000286555     1.000000    0.03339255
   41       -6.2003611712       0.0000753863     1.000000    0.03500919
   42       -6.2003360592       0.0000251121     1.000000    0.03635936
   43       -6.2002522362       0.0000838229     1.000000    0.03792601
   44       -6.2002337207       0.0000185155     1.000000    0.03918293
   45       -6.2001431712       0.0000905495     1.000000    0.04065098
   46       -6.2001341644       0.0000090068     1.000000    0.04177883
   47       -6.2000389591       0.0000952053     1.000000    0.04310683
   48       -6.2000417271      -0.0000027680     1.000000    0.04408140
   49       -6.1999439484       0.0000977787     1.000000    0.04524057
   50       -6.1999597445      -0.0000157961     1.000000    0.04605188
   51       -6.1998611733       0.0000985712     1.000000    0.04702895
   52       -6.1998901274      -0.0000289540     1.000000    0.04768078
   53       -6.1997920568       0.0000980706     1.000000    0.04847754
   54       -6.1998333241      -0.0000412674     1.000000    0.04898433
   55       -6.1997365252       0.0000967989     1.000000    0.04961452
   56       -6.1997886005      -0.0000520753     1.000000    0.04999709
   57       -6.1996934019       0.0000951985     1.000000    0.05048199
   58       -6.1997544691      -0.0000610671     1.000000    0.05076339
   59       -6.1996608889       0.0000935802     1.000000    0.05112750
   60       -6.1997291120      -0.0000682231     1.000000    0.05132987
   61       -6.1996369878       0.0000921242     1.000000    0.05159747
   62       -6.1997107011      -0.0000737134     1.000000    0.05174021
   63       -6.1996197921       0.0000909090     1.000000    0.05193322
   64       -6.1996975928      -0.0000778007     1.000000    0.05203223
   65       -6.1996076460       0.0000899468     1.000000    0.05216916
   66       -6.1996884151      -0.0000807690     1.000000    0.05223685
   67       -6.1995992010       0.0000892141     1.000000    0.05233260
   68       -6.1996820819      -0.0000828809     1.000000    0.05237829
   69       -6.1995934092       0.0000886727     1.000000    0.05244439
   70       -6.1996777670      -0.0000843577     1.000000    0.05247488
   71       -6.1995894850       0.0000882819     1.000000    0.05251998
   72       -6.1996748604      -0.0000853754     1.000000    0.05254011
   73       -6.1995868551       0.0000880053     1.000000    0.05257057
   74       -6.1996729228      -0.0000860677     1.000000    0.05258372
   75       -6.1995851102       0.0000878126     1.000000    0.05260409
   76       -6.1996716435      -0.0000865333     1.000000    0.05261261
   77       -6.1995839634       0.0000876801     1.000000    0.05262609
   78       -6.1996708067      -0.0000868433     1.000000    0.05263156
   79       -6.1995832166       0.0000875902     1.000000    0.05264042
   80       -6.1996702643      -0.0000870477     1.000000    0.05264389
   81       -6.1995827346       0.0000875297     1.000000    0.05264965
   82       -6.1996699158      -0.0000871812     1.000000    0.05265184
   83       -6.1995824263       0.0000874895     1.000000    0.05265555
   84       -6.1996696940      -0.0000872677     1.000000    0.05265691
   85       -6.1995822310       0.0000874630     1.000000    0.05265929
   86       -6.1996695541      -0.0000873231     1.000000    0.05266013
   87       -6.1995821085       0.0000874456     1.000000    0.05266163
   88       -6.1996694669      -0.0000873584     1.000000    0.05266214
   89       -6.1995820324       0.0000874344     1.000000    0.05266309
   90       -6.1996694130      -0.0000873806     1.000000    0.05266339
   91       -6.1995819858       0.0000874272     1.000000    0.05266398
   92       -6.1996693802      -0.0000873944     1.000000    0.05266416
   93       -6.1995819576       0.0000874226     1.000000    0.05266452
   94       -6.1996693605      -0.0000874029     1.000000    0.05266462
   95       -6.1995819407       0.0000874197     1.000000    0.05266484
   96       -6.1996693488      -0.0000874081     1.000000    0.05266489
   97       -6.1995819309       0.0000874179     1.000000    0.05266502
   98       -6.1996693421      -0.0000874112     1.000000    0.05266505
   99       -6.1995819253       0.0000874168     1.000000    0.05266513
  100       -6.1996693383      -0.0000874130     1.000000    0.05266515
  101       -6.1995819221       0.0000874162     1.000000    0.05266519
  102       -6.1996693362      -0.0000874141     1.000000    0.05266520
  103       -6.1995819205       0.0000874157     1.000000    0.05266522
  104       -6.1996693352      -0.0000874147     1.000000    0.05266522
  105       -6.1995819197       0.0000874155     1.000000    0.05266524
  106       -6.1996693347      -0.0000874150     1.000000    0.05266524
  107       -6.1995819193       0.0000874154     1.000000    0.05266524
  108       -6.1996693345      -0.0000874152     1.000000    0.05266524
  109       -6.1995819192       0.0000874153     1.000000    0.05266524
  110       -6.1996693344      -0.0000874152     1.000000    0.05266524
  111       -6.1995819192       0.0000874152     1.000000    0.05266524
  112       -6.1996693345      -0.0000874153     1.000000    0.05266524
  113       -6.1995819192       0.0000874152     1.000000    0.05266524
  114       -6.1996693345      -0.0000874153     1.000000    0.05266524
  115       -6.1995819193       0.0000874152     1.000000    0.05266524
  116       -6.1996693346      -0.0000874153     1.000000    0.05266524
  117       -6.1995819194       0.0000874152     1.000000    0.05266524
  118       -6.1996693346      -0.0000874153     1.000000    0.05266524
  119       -6.1995819194       0.0000874152     1.000000    0.05266524
  120       -6.1996693347      -0.0000874152     1.000000    0.05266524
  121       -6.1995819195       0.0000874152     1.000000    0.05266524
  122       -6.1996693347      -0.0000874152     1.000000    0.05266524
  123       -6.1995819195       0.0000874152     1.000000    0.05266524
  124       -6.1996693347      -0.0000874152     1.000000    0.05266524
  125       -6.1995819195       0.0000874152     1.000000    0.05266524
  126       -6.1996693348      -0.0000874152     1.000000    0.05266524
  127       -6.1995819195       0.0000874152     1.000000    0.05266524
  128       -6.1996693348      -0.0000874152     1.000000    0.05266524
  129       -6.1995819196       0.0000874152     1.000000    0.05266524
  130       -6.1996693348      -0.0000874152     1.000000    0.05266524
  131       -6.1995819196       0.0000874152     1.000000    0.05266524
  132       -6.1996693348      -0.0000874152     1.000000    0.05266524
  133       -6.1995819196       0.0000874152     1.000000    0.05266524
  134       -6.1996693348      -0.0000874152     1.000000    0.05266524
  135       -6.1995819196       0.0000874152     1.000000    0.05266524
  136       -6.1996693348      -0.0000874152     1.000000    0.05266524
  137       -6.1995819196       0.0000874152     1.000000    0.05266524
  138       -6.1996693348      -0.0000874152     1.000000    0.05266524
  139       -6.1995819196       0.0000874152     1.000000    0.05266524
  140       -6.1996693348      -0.0000874152     1.000000    0.05266524
  141       -6.1995819196       0.0000874152     1.000000    0.05266524
  142       -6.1996693348      -0.0000874152     1.000000    0.05266524
  143       -6.1995819196       0.0000874152     1.000000    0.05266524
  144       -6.1996693348      -0.0000874152     1.000000    0.05266524
  145       -6.1995819196       0.0000874152     1.000000    0.05266524
  146       -6.1996693348      -0.0000874152     1.000000    0.05266524
  147       -6.1995819196       0.0000874152     1.000000    0.05266524
  148       -6.1996693348      -0.0000874152     1.000000    0.05266524
  149       -6.1995819196       0.0000874152     1.000000    0.05266524
  150       -6.1996693348      -0.0000874152     1.000000    0.05266524
  151       -6.1995819196       0.0000874152     1.000000    0.05266524
  152       -6.1996693348      -0.0000874152     1.000000    0.05266524
  153       -6.1995819196       0.0000874152     1.000000    0.05266524
  154       -6.1996693348      -0.0000874152     1.000000    0.05266524
  155       -6.1995819196       0.0000874152     1.000000    0.05266524
  156       -6.1996693348      -0.0000874152     1.000000    0.05266524
  157       -6.1995819196       0.0000874152     1.000000    0.05266524
  158       -6.1996693348      -0.0000874152     1.000000    0.05266524
  159       -6.1995819196       0.0000874152     1.000000    0.05266524
  160       -6.1996693348      -0.0000874152     1.000000    0.05266524
  161       -6.1995819196       0.0000874152     1.000000    0.05266524
  162       -6.1996693348      -0.0000874152     1.000000    0.05266524
  163       -6.1995819196       0.0000874152     1.000000    0.05266524
  164       -6.1996693348      -0.0000874152     1.000000    0.05266524
  165       -6.1995819196       0.0000874152     1.000000    0.05266524
  166       -6.1996693348      -0.0000874152     1.000000    0.05266524
  167       -6.1995819196       0.0000874152     1.000000    0.05266524
  168       -6.1996693348      -0.0000874152     1.000000    0.05266524
  169       -6.1995819196       0.0000874152     1.000000    0.05266524
  170       -6.1996693348      -0.0000874152     1.000000    0.05266524
  171       -6.1995819196       0.0000874152     1.000000    0.05266524
  172       -6.1996693348      -0.0000874152     1.000000    0.05266524
  173       -6.1995819196       0.0000874152     1.000000    0.05266524
  174       -6.1996693348      -0.0000874152     1.000000    0.05266524
  175       -6.1995819196       0.0000874152     1.000000    0.05266524
  176       -6.1996693348      -0.0000874152     1.000000    0.05266524
  177       -6.1995819196       0.0000874152     1.000000    0.05266524
  178       -6.1996693348      -0.0000874152     1.000000    0.05266524
  179       -6.1995819196       0.0000874152     1.000000    0.05266524
  180       -6.1996693348      -0.0000874152     1.000000    0.05266524
  181       -6.1995819196       0.0000874152     1.000000    0.05266524
  182       -6.1996693348      -0.0000874152     1.000000    0.05266524
  183       -6.1995819196       0.0000874152     1.000000    0.05266524
  184       -6.1996693348      -0.0000874152     1.000000    0.05266524
  185       -6.1995819196       0.0000874152     1.000000    0.05266524
  186       -6.1996693348      -0.0000874152     1.000000    0.05266524
  187       -6.1995819196       0.0000874152     1.000000    0.05266524
  188       -6.1996693348      -0.0000874152     1.000000    0.05266524
  189       -6.1995819196       0.0000874152     1.000000    0.05266524
  190       -6.1996693348      -0.0000874152     1.000000    0.05266524
  191       -6.1995819196       0.0000874152     1.000000    0.05266524
  192       -6.1996693348      -0.0000874152     1.000000    0.05266524
  193       -6.1995819196       0.0000874152     1.000000    0.05266524
  194       -6.1996693348      -0.0000874152     1.000000    0.05266524
  195       -6.1995819196       0.0000874152     1.000000    0.05266524
  196       -6.1996693348      -0.0000874152     1.000000    0.05266524
  197       -6.1995819196       0.0000874152     1.000000    0.05266524
  198       -6.1996693348      -0.0000874152     1.000000    0.05266524
  199       -6.1995819196       0.0000874152     1.000000    0.05266524
  200       -6.1996693348      -0.0000874152     1.000000    0.05266524
  201       -6.1995819196       0.0000874152     1.000000    0.05266524
  202       -6.1996693348      -0.0000874152     1.000000    0.05266524
  203       -6.1995819196       0.0000874152     1.000000    0.05266524
  204       -6.1996693348      -0.0000874152     1.000000    0.05266524
  205       -6.1995819196       0.0000874152     1.000000    0.05266524
  206       -6.1996693348      -0.0000874152     1.000000    0.05266524
  207       -6.1995819196       0.0000874152     1.000000    0.05266524
  208       -6.1996693348      -0.0000874152     1.000000    0.05266524
  209       -6.1995819196       0.0000874152     1.000000    0.05266524
  210       -6.1996693348      -0.0000874152     1.000000    0.05266524
  211       -6.1995819196       0.0000874152     1.000000    0.05266524
  212       -6.1996693348      -0.0000874152     1.000000    0.05266524
  213       -6.1995819196       0.0000874152     1.000000    0.05266524
  214       -6.1996693348      -0.0000874152     1.000000    0.05266524
  215       -6.1995819196       0.0000874152     1.000000    0.05266524
  216       -6.1996693348      -0.0000874152     1.000000    0.05266524
  217       -6.1995819196       0.0000874152     1.000000    0.05266524
  218       -6.1996693348      -0.0000874152     1.000000    0.05266524
  219       -6.1995819196       0.0000874152     1.000000    0.05266524
  220       -6.1996693348      -0.0000874152     1.000000    0.05266524
  221       -6.1995819196       0.0000874152     1.000000    0.05266524
  222       -6.1996693348      -0.0000874152     1.000000    0.05266524
  223       -6.1995819196       0.0000874152     1.000000    0.05266524
  224       -6.1996693348      -0.0000874152     1.000000    0.05266524
  225       -6.1995819196       0.0000874152     1.000000    0.05266524
  226       -6.1996693348      -0.0000874152     1.000000    0.05266524
  227       -6.1995819196       0.0000874152     1.000000    0.05266524
  228       -6.1996693348      -0.0000874152     1.000000    0.05266524
  229       -6.1995819196       0.0000874152     1.000000    0.05266524
  230       -6.1996693348      -0.0000874152     1.000000    0.05266524
  231       -6.1995819196       0.0000874152     1.000000    0.05266524
  232       -6.1996693348      -0.0000874152     1.000000    0.05266524
  233       -6.1995819196       0.0000874152     1.000000    0.05266524
  234       -6.1996693348      -0.0000874152     1.000000    0.05266524
  235       -6.1995819196       0.0000874152     1.000000    0.05266524
  236       -6.1996693348      -0.0000874152     1.000000    0.05266524
  237       -6.1995819196       0.0000874152     1.000000    0.05266524
  238       -6.1996693348      -0.0000874152     1.000000    0.05266524
  239       -6.1995819196       0.0000874152     1.000000    0.05266524
  240       -6.1996693348      -0.0000874152     1.000000    0.05266524
  241       -6.1995819196       0.0000874152     1.000000    0.05266524
  242       -6.1996693348      -0.0000874152     1.000000    0.05266524
  243       -6.1995819196       0.0000874152     1.000000    0.05266524
  244       -6.1996693348      -0.0000874152     1.000000    0.05266524
  245       -6.1995819196       0.0000874152     1.000000    0.05266524
  246       -6.1996693348      -0.0000874152     1.000000    0.05266524
  247       -6.1995819196       0.0000874152     1.000000    0.05266524
  248       -6.1996693348      -0.0000874152     1.000000    0.05266524
  249       -6.1995819196       0.0000874152     1.000000    0.05266524
  250       -6.1996693348      -0.0000874152     1.000000    0.05266524
  251       -6.1995819196       0.0000874152     1.000000    0.05266524
  252       -6.1996693348      -0.0000874152     1.000000    0.05266524
  253       -6.1995819196       0.0000874152     1.000000    0.05266524
  254       -6.1996693348      -0.0000874152     1.000000    0.05266524
  255       -6.1995819196       0.0000874152     1.000000    0.05266524
  256       -6.1996693348      -0.0000874152     1.000000    0.05266524
  257       -6.1995819196       0.0000874152     1.000000    0.05266524
  258       -6.1996693348      -0.0000874152     1.000000    0.05266524
  259       -6.1995819196       0.0000874152     1.000000    0.05266524
  260       -6.1996693348      -0.0000874152     1.000000    0.05266524
  261       -6.1995819196       0.0000874152     1.000000    0.05266524
  262       -6.1996693348      -0.0000874152     1.000000    0.05266524
  263       -6.1995819196       0.0000874152     1.000000    0.05266524
  264       -6.1996693348      -0.0000874152     1.000000    0.05266524
  265       -6.1995819196       0.0000874152     1.000000    0.05266524
  266       -6.1996693348      -0.0000874152     1.000000    0.05266524
  267       -6.1995819196       0.0000874152     1.000000    0.05266524
  268       -6.1996693348      -0.0000874152     1.000000    0.05266524
  269       -6.1995819196       0.0000874152     1.000000    0.05266524
  270       -6.1996693348      -0.0000874152     1.000000    0.05266524
  271       -6.1995819196       0.0000874152     1.000000    0.05266524
  272       -6.1996693348      -0.0000874152     1.000000    0.05266524
  273       -6.1995819196       0.0000874152     1.000000    0.05266524
  274       -6.1996693348      -0.0000874152     1.000000    0.05266524
  275       -6.1995819196       0.0000874152     1.000000    0.05266524
  276       -6.1996693348      -0.0000874152     1.000000    0.05266524
  277       -6.1995819196       0.0000874152     1.000000    0.05266524
  278       -6.1996693348      -0.0000874152     1.000000    0.05266524
  279       -6.1995819196       0.0000874152     1.000000    0.05266524
  280       -6.1996693348      -0.0000874152     1.000000    0.05266524
  281       -6.1995819196       0.0000874152     1.000000    0.05266524
  282       -6.1996693348      -0.0000874152     1.000000    0.05266524
  283       -6.1995819196       0.0000874152     1.000000    0.05266524
  284       -6.1996693348      -0.0000874152     1.000000    0.05266524
  285       -6.1995819196       0.0000874152     1.000000    0.05266524
  286       -6.1996693348      -0.0000874152     1.000000    0.05266524
  287       -6.1995819196       0.0000874152     1.000000    0.05266524
  288       -6.1996693348      -0.0000874152     1.000000    0.05266524
  289       -6.1995819196       0.0000874152     1.000000    0.05266524
  290       -6.1996693348      -0.0000874152     1.000000    0.05266524
  291       -6.1995819196       0.0000874152     1.000000    0.05266524
  292       -6.1996693348      -0.0000874152     1.000000    0.05266524
  293       -6.1995819196       0.0000874152     1.000000    0.05266524
  294       -6.1996693348      -0.0000874152     1.000000    0.05266524
  295       -6.1995819196       0.0000874152     1.000000    0.05266524
  296       -6.1996693348      -0.0000874152     1.000000    0.05266524
  297       -6.1995819196       0.0000874152     1.000000    0.05266524
  298       -6.1996693348      -0.0000874152     1.000000    0.05266524
  299       -6.1995819196       0.0000874152     1.000000    0.05266524
  300       -6.1996693348      -0.0000874152     1.000000    0.05266524
  301       -6.1995819196       0.0000874152     1.000000    0.05266524
  302       -6.1996693348      -0.0000874152     1.000000    0.05266524
  303       -6.1995819196       0.0000874152     1.000000    0.05266524
  304       -6.1996693348      -0.0000874152     1.000000    0.05266524
  305       -6.1995819196       0.0000874152     1.000000    0.05266524
  306       -6.1996693348      -0.0000874152     1.000000    0.05266524
  307       -6.1995819196       0.0000874152     1.000000    0.05266524
  308       -6.1996693348      -0.0000874152     1.000000    0.05266524
  309       -6.1995819196       0.0000874152     1.000000    0.05266524
  310       -6.1996693348      -0.0000874152     1.000000    0.05266524
  311       -6.1995819196       0.0000874152     1.000000    0.05266524
  312       -6.1996693348      -0.0000874152     1.000000    0.05266524
  313       -6.1995819196       0.0000874152     1.000000    0.05266524
  314       -6.1996693348      -0.0000874152     1.000000    0.05266524
  315       -6.1995819196       0.0000874152     1.000000    0.05266524
  316       -6.1996693348      -0.0000874152     1.000000    0.05266524
  317       -6.1995819196       0.0000874152     1.000000    0.05266524
  318       -6.1996693348      -0.0000874152     1.000000    0.05266524
  319       -6.1995819196       0.0000874152     1.000000    0.05266524
  320       -6.1996693348      -0.0000874152     1.000000    0.05266524
  321       -6.1995819196       0.0000874152     1.000000    0.05266524
  322       -6.1996693348      -0.0000874152     1.000000    0.05266524
  323       -6.1995819196       0.0000874152     1.000000    0.05266524
  324       -6.1996693348      -0.0000874152     1.000000    0.05266524
  325       -6.1995819196       0.0000874152     1.000000    0.05266524
  326       -6.1996693348      -0.0000874152     1.000000    0.05266524
  327       -6.1995819196       0.0000874152     1.000000    0.05266524
  328       -6.1996693348      -0.0000874152     1.000000    0.05266524
  329       -6.1995819196       0.0000874152     1.000000    0.05266524
  330       -6.1996693348      -0.0000874152     1.000000    0.05266524
  331       -6.1995819196       0.0000874152     1.000000    0.05266524
  332       -6.1996693348      -0.0000874152     1.000000    0.05266524
  333       -6.1995819196       0.0000874152     1.000000    0.05266524
  334       -6.1996693348      -0.0000874152     1.000000    0.05266524
  335       -6.1995819196       0.0000874152     1.000000    0.05266524
  336       -6.1996693348      -0.0000874152     1.000000    0.05266524
  337       -6.1995819196       0.0000874152     1.000000    0.05266524
  338       -6.1996693348      -0.0000874152     1.000000    0.05266524
  339       -6.1995819196       0.0000874152     1.000000    0.05266524
  340       -6.1996693348      -0.0000874152     1.000000    0.05266524
  341       -6.1995819196       0.0000874152     1.000000    0.05266524
  342       -6.1996693348      -0.0000874152     1.000000    0.05266524
  343       -6.1995819196       0.0000874152     1.000000    0.05266524
  344       -6.1996693348      -0.0000874152     1.000000    0.05266524
  345       -6.1995819196       0.0000874152     1.000000    0.05266524
  346       -6.1996693348      -0.0000874152     1.000000    0.05266524
  347       -6.1995819196       0.0000874152     1.000000    0.05266524
  348       -6.1996693348      -0.0000874152     1.000000    0.05266524
  349       -6.1995819196       0.0000874152     1.000000    0.05266524
  350       -6.1996693348      -0.0000874152     1.000000    0.05266524
  351       -6.1995819196       0.0000874152     1.000000    0.05266524
  352       -6.1996693348      -0.0000874152     1.000000    0.05266524
  353       -6.1995819196       0.0000874152     1.000000    0.05266524
  354       -6.1996693348      -0.0000874152     1.000000    0.05266524
  355       -6.1995819196       0.0000874152     1.000000    0.05266524
  356       -6.1996693348      -0.0000874152     1.000000    0.05266524
  357       -6.1995819196       0.0000874152     1.000000    0.05266524
  358       -6.1996693348      -0.0000874152     1.000000    0.05266524
  359       -6.1995819196       0.0000874152     1.000000    0.05266524
  360       -6.1996693348      -0.0000874152     1.000000    0.05266524
  361       -6.1995819196       0.0000874152     1.000000    0.05266524
  362       -6.1996693348      -0.0000874152     1.000000    0.05266524
  363       -6.1995819196       0.0000874152     1.000000    0.05266524
  364       -6.1996693348      -0.0000874152     1.000000    0.05266524
  365       -6.1995819196       0.0000874152     1.000000    0.05266524
  366       -6.1996693348      -0.0000874152     1.000000    0.05266524
  367       -6.1995819196       0.0000874152     1.000000    0.05266524
  368       -6.1996693348      -0.0000874152     1.000000    0.05266524
  369       -6.1995819196       0.0000874152     1.000000    0.05266524
  370       -6.1996693348      -0.0000874152     1.000000    0.05266524
  371       -6.1995819196       0.0000874152     1.000000    0.05266524
  372       -6.1996693348      -0.0000874152     1.000000    0.05266524
  373       -6.1995819196       0.0000874152     1.000000    0.05266524
  374       -6.1996693348      -0.0000874152     1.000000    0.05266524
  375       -6.1995819196       0.0000874152     1.000000    0.05266524
  376       -6.1996693348      -0.0000874152     1.000000    0.05266524
  377       -6.1995819196       0.0000874152     1.000000    0.05266524
  378       -6.1996693348      -0.0000874152     1.000000    0.05266524
  379       -6.1995819196       0.0000874152     1.000000    0.05266524
  380       -6.1996693348      -0.0000874152     1.000000    0.05266524
  381       -6.1995819196       0.0000874152     1.000000    0.05266524
  382       -6.1996693348      -0.0000874152     1.000000    0.05266524
  383       -6.1995819196       0.0000874152     1.000000    0.05266524
  384       -6.1996693348      -0.0000874152     1.000000    0.05266524
  385       -6.1995819196       0.0000874152     1.000000    0.05266524
  386       -6.1996693348      -0.0000874152     1.000000    0.05266524
  387       -6.1995819196       0.0000874152     1.000000    0.05266524
  388       -6.1996693348      -0.0000874152     1.000000    0.05266524
  389       -6.1995819196       0.0000874152     1.000000    0.05266524
  390       -6.1996693348      -0.0000874152     1.000000    0.05266524
  391       -6.1995819196       0.0000874152     1.000000    0.05266524
  392       -6.1996693348      -0.0000874152     1.000000    0.05266524
  393       -6.1995819196       0.0000874152     1.000000    0.05266524
  394       -6.1996693348      -0.0000874152     1.000000    0.05266524
  395       -6.1995819196       0.0000874152     1.000000    0.05266524
  396       -6.1996693348      -0.0000874152     1.000000    0.05266524
  397       -6.1995819196       0.0000874152     1.000000    0.05266524
  398       -6.1996693348      -0.0000874152     1.000000    0.05266524
  399       -6.1995819196       0.0000874152     1.000000    0.05266524
  400       -6.1996693348      -0.0000874152     1.000000    0.05266524
  401       -6.1995819196       0.0000874152     1.000000    0.05266524
  402       -6.1996693348      -0.0000874152     1.000000    0.05266524
  403       -6.1995819196       0.0000874152     1.000000    0.05266524
  404       -6.1996693348      -0.0000874152     1.000000    0.05266524
  405       -6.1995819196       0.0000874152     1.000000    0.05266524
  406       -6.1996693348      -0.0000874152     1.000000    0.05266524
  407       -6.1995819196       0.0000874152     1.000000    0.05266524
  408       -6.1996693348      -0.0000874152     1.000000    0.05266524
  409       -6.1995819196       0.0000874152     1.000000    0.05266524
  410       -6.1996693348      -0.0000874152     1.000000    0.05266524
  411       -6.1995819196       0.0000874152     1.000000    0.05266524
  412       -6.1996693348      -0.0000874152     1.000000    0.05266524
  413       -6.1995819196       0.0000874152     1.000000    0.05266524
  414       -6.1996693348      -0.0000874152     1.000000    0.05266524
  415       -6.1995819196       0.0000874152     1.000000    0.05266524
  416       -6.1996693348      -0.0000874152     1.000000    0.05266524
  417       -6.1995819196       0.0000874152     1.000000    0.05266524
  418       -6.1996693348      -0.0000874152     1.000000    0.05266524
  419       -6.1995819196       0.0000874152     1.000000    0.05266524
  420       -6.1996693348      -0.0000874152     1.000000    0.05266524
  421       -6.1995819196       0.0000874152     1.000000    0.05266524
  422       -6.1996693348      -0.0000874152     1.000000    0.05266524
  423       -6.1995819196       0.0000874152     1.000000    0.05266524
  424       -6.1996693348      -0.0000874152     1.000000    0.05266524
  425       -6.1995819196       0.0000874152     1.000000    0.05266524
  426       -6.1996693348      -0.0000874152     1.000000    0.05266524
  427       -6.1995819196       0.0000874152     1.000000    0.05266524
  428       -6.1996693348      -0.0000874152     1.000000    0.05266524
  429       -6.1995819196       0.0000874152     1.000000    0.05266524
  430       -6.1996693348      -0.0000874152     1.000000    0.05266524
  431       -6.1995819196       0.0000874152     1.000000    0.05266524
  432       -6.1996693348      -0.0000874152     1.000000    0.05266524
  433       -6.1995819196       0.0000874152     1.000000    0.05266524
  434       -6.1996693348      -0.0000874152     1.000000    0.05266524
  435       -6.1995819196       0.0000874152     1.000000    0.05266524
  436       -6.1996693348      -0.0000874152     1.000000    0.05266524
  437       -6.1995819196       0.0000874152     1.000000    0.05266524
  438       -6.1996693348      -0.0000874152     1.000000    0.05266524
  439       -6.1995819196       0.0000874152     1.000000    0.05266524
  440       -6.1996693348      -0.0000874152     1.000000    0.05266524
  441       -6.1995819196       0.0000874152     1.000000    0.05266524
  442       -6.1996693348      -0.0000874152     1.000000    0.05266524
  443       -6.1995819196       0.0000874152     1.000000    0.05266524
  444       -6.1996693348      -0.0000874152     1.000000    0.05266524
  445       -6.1995819196       0.0000874152     1.000000    0.05266524
  446       -6.1996693348      -0.0000874152     1.000000    0.05266524
  447       -6.1995819196       0.0000874152     1.000000    0.05266524
  448       -6.1996693348      -0.0000874152     1.000000    0.05266524
  449       -6.1995819196       0.0000874152     1.000000    0.05266524
  450       -6.1996693348      -0.0000874152     1.000000    0.05266524
  451       -6.1995819196       0.0000874152     1.000000    0.05266524
  452       -6.1996693348      -0.0000874152     1.000000    0.05266524
  453       -6.1995819196       0.0000874152     1.000000    0.05266524
  454       -6.1996693348      -0.0000874152     1.000000    0.05266524
  455       -6.1995819196       0.0000874152     1.000000    0.05266524
  456       -6.1996693348      -0.0000874152     1.000000    0.05266524
  457       -6.1995819196       0.0000874152     1.000000    0.05266524
  458       -6.1996693348      -0.0000874152     1.000000    0.05266524
  459       -6.1995819196       0.0000874152     1.000000    0.05266524
  460       -6.1996693348      -0.0000874152     1.000000    0.05266524
  461       -6.1995819196       0.0000874152     1.000000    0.05266524
  462       -6.1996693348      -0.0000874152     1.000000    0.05266524
  463       -6.1995819196       0.0000874152     1.000000    0.05266524
  464       -6.1996693348      -0.0000874152     1.000000    0.05266524
  465       -6.1995819196       0.0000874152     1.000000    0.05266524
  466       -6.1996693348      -0.0000874152     1.000000    0.05266524
  467       -6.1995819196       0.0000874152     1.000000    0.05266524
  468       -6.1996693348      -0.0000874152     1.000000    0.05266524
  469       -6.1995819196       0.0000874152     1.000000    0.05266524
  470       -6.1996693348      -0.0000874152     1.000000    0.05266524
  471       -6.1995819196       0.0000874152     1.000000    0.05266524
  472       -6.1996693348      -0.0000874152     1.000000    0.05266524
  473       -6.1995819196       0.0000874152     1.000000    0.05266524
  474       -6.1996693348      -0.0000874152     1.000000    0.05266524
  475       -6.1995819196       0.0000874152     1.000000    0.05266524
  476       -6.1996693348      -0.0000874152     1.000000    0.05266524
  477       -6.1995819196       0.0000874152     1.000000    0.05266524
  478       -6.1996693348      -0.0000874152     1.000000    0.05266524
  479       -6.1995819196       0.0000874152     1.000000    0.05266524
  480       -6.1996693348      -0.0000874152     1.000000    0.05266524
  481       -6.1995819196       0.0000874152     1.000000    0.05266524
  482       -6.1996693348      -0.0000874152     1.000000    0.05266524
  483       -6.1995819196       0.0000874152     1.000000    0.05266524
  484       -6.1996693348      -0.0000874152     1.000000    0.05266524
  485       -6.1995819196       0.0000874152     1.000000    0.05266524
  486       -6.1996693348      -0.0000874152     1.000000    0.05266524
  487       -6.1995819196       0.0000874152     1.000000    0.05266524
  488       -6.1996693348      -0.0000874152     1.000000    0.05266524
  489       -6.1995819196       0.0000874152     1.000000    0.05266524
  490       -6.1996693348      -0.0000874152     1.000000    0.05266524
  491       -6.1995819196       0.0000874152     1.000000    0.05266524
  492       -6.1996693348      -0.0000874152     1.000000    0.05266524
  493       -6.1995819196       0.0000874152     1.000000    0.05266524
  494       -6.1996693348      -0.0000874152     1.000000    0.05266524
  495       -6.1995819196       0.0000874152     1.000000    0.05266524
  496       -6.1996693348      -0.0000874152     1.000000    0.05266524
  497       -6.1995819196       0.0000874152     1.000000    0.05266524
  498       -6.1996693348      -0.0000874152     1.000000    0.05266524
  499       -6.1995819196       0.0000874152     1.000000    0.05266524
  500       -6.1996693348      -0.0000874152     1.000000    0.05266524
  501       -6.1995819196       0.0000874152     1.000000    0.05266524
  502       -6.1996693348      -0.0000874152     1.000000    0.05266524
  503       -6.1995819196       0.0000874152     1.000000    0.05266524
  504       -6.1996693348      -0.0000874152     1.000000    0.05266524
  505       -6.1995819196       0.0000874152     1.000000    0.05266524
  506       -6.1996693348      -0.0000874152     1.000000    0.05266524
  507       -6.1995819196       0.0000874152     1.000000    0.05266524
  508       -6.1996693348      -0.0000874152     1.000000    0.05266524
  509       -6.1995819196       0.0000874152     1.000000    0.05266524
  510       -6.1996693348      -0.0000874152     1.000000    0.05266524
  511       -6.1995819196       0.0000874152     1.000000    0.05266524
  512       -6.1996693348      -0.0000874152     1.000000    0.05266524
  513       -6.1995819196       0.0000874152     1.000000    0.05266524
  514       -6.1996693348      -0.0000874152     1.000000    0.05266524
  515       -6.1995819196       0.0000874152     1.000000    0.05266524
  516       -6.1996693348      -0.0000874152     1.000000    0.05266524
  517       -6.1995819196       0.0000874152     1.000000    0.05266524
  518       -6.1996693348      -0.0000874152     1.000000    0.05266524
  519       -6.1995819196       0.0000874152     1.000000    0.05266524
  520       -6.1996693348      -0.0000874152     1.000000    0.05266524
  521       -6.1995819196       0.0000874152     1.000000    0.05266524
  522       -6.1996693348      -0.0000874152     1.000000    0.05266524
  523       -6.1995819196       0.0000874152     1.000000    0.05266524
  524       -6.1996693348      -0.0000874152     1.000000    0.05266524
  525       -6.1995819196       0.0000874152     1.000000    0.05266524
  526       -6.1996693348      -0.0000874152     1.000000    0.05266524
  527       -6.1995819196       0.0000874152     1.000000    0.05266524
  528       -6.1996693348      -0.0000874152     1.000000    0.05266524
  529       -6.1995819196       0.0000874152     1.000000    0.05266524
  530       -6.1996693348      -0.0000874152     1.000000    0.05266524
  531       -6.1995819196       0.0000874152     1.000000    0.05266524
  532       -6.1996693348      -0.0000874152     1.000000    0.05266524
  533       -6.1995819196       0.0000874152     1.000000    0.05266524
  534       -6.1996693348      -0.0000874152     1.000000    0.05266524
  535       -6.1995819196       0.0000874152     1.000000    0.05266524
  536       -6.1996693348      -0.0000874152     1.000000    0.05266524
  537       -6.1995819196       0.0000874152     1.000000    0.05266524
  538       -6.1996693348      -0.0000874152     1.000000    0.05266524
  539       -6.1995819196       0.0000874152     1.000000    0.05266524
  540       -6.1996693348      -0.0000874152     1.000000    0.05266524
  541       -6.1995819196       0.0000874152     1.000000    0.05266524
  542       -6.1996693348      -0.0000874152     1.000000    0.05266524
  543       -6.1995819196       0.0000874152     1.000000    0.05266524
  544       -6.1996693348      -0.0000874152     1.000000    0.05266524
  545       -6.1995819196       0.0000874152     1.000000    0.05266524
  546       -6.1996693348      -0.0000874152     1.000000    0.05266524
  547       -6.1995819196       0.0000874152     1.000000    0.05266524
  548       -6.1996693348      -0.0000874152     1.000000    0.05266524
  549       -6.1995819196       0.0000874152     1.000000    0.05266524
  550       -6.1996693348      -0.0000874152     1.000000    0.05266524
  551       -6.1995819196       0.0000874152     1.000000    0.05266524
  552       -6.1996693348      -0.0000874152     1.000000    0.05266524
  553       -6.1995819196       0.0000874152     1.000000    0.05266524
  554       -6.1996693348      -0.0000874152     1.000000    0.05266524
  555       -6.1995819196       0.0000874152     1.000000    0.05266524
  556       -6.1996693348      -0.0000874152     1.000000    0.05266524
  557       -6.1995819196       0.0000874152     1.000000    0.05266524
  558       -6.1996693348      -0.0000874152     1.000000    0.05266524
  559       -6.1995819196       0.0000874152     1.000000    0.05266524
  560       -6.1996693348      -0.0000874152     1.000000    0.05266524
  561       -6.1995819196       0.0000874152     1.000000    0.05266524
  562       -6.1996693348      -0.0000874152     1.000000    0.05266524
  563       -6.1995819196       0.0000874152     1.000000    0.05266524
  564       -6.1996693348      -0.0000874152     1.000000    0.05266524
  565       -6.1995819196       0.0000874152     1.000000    0.05266524
  566       -6.1996693348      -0.0000874152     1.000000    0.05266524
  567       -6.1995819196       0.0000874152     1.000000    0.05266524
  568       -6.1996693348      -0.0000874152     1.000000    0.05266524
  569       -6.1995819196       0.0000874152     1.000000    0.05266524
  570       -6.1996693348      -0.0000874152     1.000000    0.05266524
  571       -6.1995819196       0.0000874152     1.000000    0.05266524
  572       -6.1996693348      -0.0000874152     1.000000    0.05266524
  573       -6.1995819196       0.0000874152     1.000000    0.05266524
  574       -6.1996693348      -0.0000874152     1.000000    0.05266524
  575       -6.1995819196       0.0000874152     1.000000    0.05266524
  576       -6.1996693348      -0.0000874152     1.000000    0.05266524
  577       -6.1995819196       0.0000874152     1.000000    0.05266524
  578       -6.1996693348      -0.0000874152     1.000000    0.05266524
  579       -6.1995819196       0.0000874152     1.000000    0.05266524
  580       -6.1996693348      -0.0000874152     1.000000    0.05266524
  581       -6.1995819196       0.0000874152     1.000000    0.05266524
  582       -6.1996693348      -0.0000874152     1.000000    0.05266524
  583       -6.1995819196       0.0000874152     1.000000    0.05266524
  584       -6.1996693348      -0.0000874152     1.000000    0.05266524
  585       -6.1995819196       0.0000874152     1.000000    0.05266524
  586       -6.1996693348      -0.0000874152     1.000000    0.05266524
  587       -6.1995819196       0.0000874152     1.000000    0.05266524
  588       -6.1996693348      -0.0000874152     1.000000    0.05266524
  589       -6.1995819196       0.0000874152     1.000000    0.05266524
  590       -6.1996693348      -0.0000874152     1.000000    0.05266524
  591       -6.1995819196       0.0000874152     1.000000    0.05266524
  592       -6.1996693348      -0.0000874152     1.000000    0.05266524
  593       -6.1995819196       0.0000874152     1.000000    0.05266524
  594       -6.1996693348      -0.0000874152     1.000000    0.05266524
  595       -6.1995819196       0.0000874152     1.000000    0.05266524
  596       -6.1996693348      -0.0000874152     1.000000    0.05266524
  597       -6.1995819196       0.0000874152     1.000000    0.05266524
  598       -6.1996693348      -0.0000874152     1.000000    0.05266524
  599       -6.1995819196       0.0000874152     1.000000    0.05266524
  600       -6.1996693348      -0.0000874152     1.000000    0.05266524
  601       -6.1995819196       0.0000874152     1.000000    0.05266524
  602       -6.1996693348      -0.0000874152     1.000000    0.05266524
  603       -6.1995819196       0.0000874152     1.000000    0.05266524
  604       -6.1996693348      -0.0000874152     1.000000    0.05266524
  605       -6.1995819196       0.0000874152     1.000000    0.05266524
  606       -6.1996693348      -0.0000874152     1.000000    0.05266524
  607       -6.1995819196       0.0000874152     1.000000    0.05266524
  608       -6.1996693348      -0.0000874152     1.000000    0.05266524
  609       -6.1995819196       0.0000874152     1.000000    0.05266524
  610       -6.1996693348      -0.0000874152     1.000000    0.05266524
  611       -6.1995819196       0.0000874152     1.000000    0.05266524
  612       -6.1996693348      -0.0000874152     1.000000    0.05266524
  613       -6.1995819196       0.0000874152     1.000000    0.05266524
  614       -6.1996693348      -0.0000874152     1.000000    0.05266524
  615       -6.1995819196       0.0000874152     1.000000    0.05266524
  616       -6.1996693348      -0.0000874152     1.000000    0.05266524
  617       -6.1995819196       0.0000874152     1.000000    0.05266524
  618       -6.1996693348      -0.0000874152     1.000000    0.05266524
  619       -6.1995819196       0.0000874152     1.000000    0.05266524
  620       -6.1996693348      -0.0000874152     1.000000    0.05266524
  621       -6.1995819196       0.0000874152     1.000000    0.05266524
  622       -6.1996693348      -0.0000874152     1.000000    0.05266524
  623       -6.1995819196       0.0000874152     1.000000    0.05266524
  624       -6.1996693348      -0.0000874152     1.000000    0.05266524
  625       -6.1995819196       0.0000874152     1.000000    0.05266524
  626       -6.1996693348      -0.0000874152     1.000000    0.05266524
  627       -6.1995819196       0.0000874152     1.000000    0.05266524
  628       -6.1996693348      -0.0000874152     1.000000    0.05266524
  629       -6.1995819196       0.0000874152     1.000000    0.05266524
  630       -6.1996693348      -0.0000874152     1.000000    0.05266524
  631       -6.1995819196       0.0000874152     1.000000    0.05266524
  632       -6.1996693348      -0.0000874152     1.000000    0.05266524
  633       -6.1995819196       0.0000874152     1.000000    0.05266524
  634       -6.1996693348      -0.0000874152     1.000000    0.05266524
  635       -6.1995819196       0.0000874152     1.000000    0.05266524
  636       -6.1996693348      -0.0000874152     1.000000    0.05266524
  637       -6.1995819196       0.0000874152     1.000000    0.05266524
  638       -6.1996693348      -0.0000874152     1.000000    0.05266524
  639       -6.1995819196       0.0000874152     1.000000    0.05266524
  640       -6.1996693348      -0.0000874152     1.000000    0.05266524
  641       -6.1995819196       0.0000874152     1.000000    0.05266524
  642       -6.1996693348      -0.0000874152     1.000000    0.05266524
  643       -6.1995819196       0.0000874152     1.000000    0.05266524
  644       -6.1996693348      -0.0000874152     1.000000    0.05266524
  645       -6.1995819196       0.0000874152     1.000000    0.05266524
  646       -6.1996693348      -0.0000874152     1.000000    0.05266524
  647       -6.1995819196       0.0000874152     1.000000    0.05266524
  648       -6.1996693348      -0.0000874152     1.000000    0.05266524
  649       -6.1995819196       0.0000874152     1.000000    0.05266524
  650       -6.1996693348      -0.0000874152     1.000000    0.05266524
  651       -6.1995819196       0.0000874152     1.000000    0.05266524
  652       -6.1996693348      -0.0000874152     1.000000    0.05266524
  653       -6.1995819196       0.0000874152     1.000000    0.05266524
  654       -6.1996693348      -0.0000874152     1.000000    0.05266524
  655       -6.1995819196       0.0000874152     1.000000    0.05266524
  656       -6.1996693348      -0.0000874152     1.000000    0.05266524
  657       -6.1995819196       0.0000874152     1.000000    0.05266524
  658       -6.1996693348      -0.0000874152     1.000000    0.05266524
  659       -6.1995819196       0.0000874152     1.000000    0.05266524
  660       -6.1996693348      -0.0000874152     1.000000    0.05266524
  661       -6.1995819196       0.0000874152     1.000000    0.05266524
  662       -6.1996693348      -0.0000874152     1.000000    0.05266524
  663       -6.1995819196       0.0000874152     1.000000    0.05266524
  664       -6.1996693348      -0.0000874152     1.000000    0.05266524
  665       -6.1995819196       0.0000874152     1.000000    0.05266524
  666       -6.1996693348      -0.0000874152     1.000000    0.05266524
  667       -6.1995819196       0.0000874152     1.000000    0.05266524
  668       -6.1996693348      -0.0000874152     1.000000    0.05266524
  669       -6.1995819196       0.0000874152     1.000000    0.05266524
  670       -6.1996693348      -0.0000874152     1.000000    0.05266524
  671       -6.1995819196       0.0000874152     1.000000    0.05266524
  672       -6.1996693348      -0.0000874152     1.000000    0.05266524
  673       -6.1995819196       0.0000874152     1.000000    0.05266524
  674       -6.1996693348      -0.0000874152     1.000000    0.05266524
  675       -6.1995819196       0.0000874152     1.000000    0.05266524
  676       -6.1996693348      -0.0000874152     1.000000    0.05266524
  677       -6.1995819196       0.0000874152     1.000000    0.05266524
  678       -6.1996693348      -0.0000874152     1.000000    0.05266524
  679       -6.1995819196       0.0000874152     1.000000    0.05266524
  680       -6.1996693348      -0.0000874152     1.000000    0.05266524
  681       -6.1995819196       0.0000874152     1.000000    0.05266524
  682       -6.1996693348      -0.0000874152     1.000000    0.05266524
  683       -6.1995819196       0.0000874152     1.000000    0.05266524
  684       -6.1996693348      -0.0000874152     1.000000    0.05266524
  685       -6.1995819196       0.0000874152     1.000000    0.05266524
  686       -6.1996693348      -0.0000874152     1.000000    0.05266524
  687       -6.1995819196       0.0000874152     1.000000    0.05266524
  688       -6.1996693348      -0.0000874152     1.000000    0.05266524
  689       -6.1995819196       0.0000874152     1.000000    0.05266524
  690       -6.1996693348      -0.0000874152     1.000000    0.05266524
  691       -6.1995819196       0.0000874152     1.000000    0.05266524
  692       -6.1996693348      -0.0000874152     1.000000    0.05266524
  693       -6.1995819196       0.0000874152     1.000000    0.05266524
  694       -6.1996693348      -0.0000874152     1.000000    0.05266524
  695       -6.1995819196       0.0000874152     1.000000    0.05266524
  696       -6.1996693348      -0.0000874152     1.000000    0.05266524
  697       -6.1995819196       0.0000874152     1.000000    0.05266524
  698       -6.1996693348      -0.0000874152     1.000000    0.05266524
  699       -6.1995819196       0.0000874152     1.000000    0.05266524
  700       -6.1996693348      -0.0000874152     1.000000    0.05266524
  701       -6.1995819196       0.0000874152     1.000000    0.05266524
  702       -6.1996693348      -0.0000874152     1.000000    0.05266524
  703       -6.1995819196       0.0000874152     1.000000    0.05266524
  704       -6.1996693348      -0.0000874152     1.000000    0.05266524
  705       -6.1995819196       0.0000874152     1.000000    0.05266524
  706       -6.1996693348      -0.0000874152     1.000000    0.05266524
  707       -6.1995819196       0.0000874152     1.000000    0.05266524
  708       -6.1996693348      -0.0000874152     1.000000    0.05266524
  709       -6.1995819196       0.0000874152     1.000000    0.05266524
  710       -6.1996693348      -0.0000874152     1.000000    0.05266524
  711       -6.1995819196       0.0000874152     1.000000    0.05266524
  712       -6.1996693348      -0.0000874152     1.000000    0.05266524
  713       -6.1995819196       0.0000874152     1.000000    0.05266524
  714       -6.1996693348      -0.0000874152     1.000000    0.05266524
  715       -6.1995819196       0.0000874152     1.000000    0.05266524
  716       -6.1996693348      -0.0000874152     1.000000    0.05266524
  717       -6.1995819196       0.0000874152     1.000000    0.05266524
  718       -6.1996693348      -0.0000874152     1.000000    0.05266524
  719       -6.1995819196       0.0000874152     1.000000    0.05266524
  720       -6.1996693348      -0.0000874152     1.000000    0.05266524
  721       -6.1995819196       0.0000874152     1.000000    0.05266524
  722       -6.1996693348      -0.0000874152     1.000000    0.05266524
  723       -6.1995819196       0.0000874152     1.000000    0.05266524
  724       -6.1996693348      -0.0000874152     1.000000    0.05266524
  725       -6.1995819196       0.0000874152     1.000000    0.05266524
  726       -6.1996693348      -0.0000874152     1.000000    0.05266524
  727       -6.1995819196       0.0000874152     1.000000    0.05266524
  728       -6.1996693348      -0.0000874152     1.000000    0.05266524
  729       -6.1995819196       0.0000874152     1.000000    0.05266524
  730       -6.1996693348      -0.0000874152     1.000000    0.05266524
  731       -6.1995819196       0.0000874152     1.000000    0.05266524
  732       -6.1996693348      -0.0000874152     1.000000    0.05266524
  733       -6.1995819196       0.0000874152     1.000000    0.05266524
  734       -6.1996693348      -0.0000874152     1.000000    0.05266524
  735       -6.1995819196       0.0000874152     1.000000    0.05266524
  736       -6.1996693348      -0.0000874152     1.000000    0.05266524
  737       -6.1995819196       0.0000874152     1.000000    0.05266524
  738       -6.1996693348      -0.0000874152     1.000000    0.05266524
  739       -6.1995819196       0.0000874152     1.000000    0.05266524
  740       -6.1996693348      -0.0000874152     1.000000    0.05266524
  741       -6.1995819196       0.0000874152     1.000000    0.05266524
  742       -6.1996693348      -0.0000874152     1.000000    0.05266524
  743       -6.1995819196       0.0000874152     1.000000    0.05266524
  744       -6.1996693348      -0.0000874152     1.000000    0.05266524
  745       -6.1995819196       0.0000874152     1.000000    0.05266524
  746       -6.1996693348      -0.0000874152     1.000000    0.05266524
  747       -6.1995819196       0.0000874152     1.000000    0.05266524
  748       -6.1996693348      -0.0000874152     1.000000    0.05266524
  749       -6.1995819196       0.0000874152     1.000000    0.05266524
  750       -6.1996693348      -0.0000874152     1.000000    0.05266524
  751       -6.1995819196       0.0000874152     1.000000    0.05266524
  752       -6.1996693348      -0.0000874152     1.000000    0.05266524
  753       -6.1995819196       0.0000874152     1.000000    0.05266524
  754       -6.1996693348      -0.0000874152     1.000000    0.05266524
  755       -6.1995819196       0.0000874152     1.000000    0.05266524
  756       -6.1996693348      -0.0000874152     1.000000    0.05266524
  757       -6.1995819196       0.0000874152     1.000000    0.05266524
  758       -6.1996693348      -0.0000874152     1.000000    0.05266524
  759       -6.1995819196       0.0000874152     1.000000    0.05266524
  760       -6.1996693348      -0.0000874152     1.000000    0.05266524
  761       -6.1995819196       0.0000874152     1.000000    0.05266524
  762       -6.1996693348      -0.0000874152     1.000000    0.05266524
  763       -6.1995819196       0.0000874152     1.000000    0.05266524
  764       -6.1996693348      -0.0000874152     1.000000    0.05266524
  765       -6.1995819196       0.0000874152     1.000000    0.05266524
  766       -6.1996693348      -0.0000874152     1.000000    0.05266524
  767       -6.1995819196       0.0000874152     1.000000    0.05266524
  768       -6.1996693348      -0.0000874152     1.000000    0.05266524
  769       -6.1995819196       0.0000874152     1.000000    0.05266524
  770       -6.1996693348      -0.0000874152     1.000000    0.05266524
  771       -6.1995819196       0.0000874152     1.000000    0.05266524
  772       -6.1996693348      -0.0000874152     1.000000    0.05266524
  773       -6.1995819196       0.0000874152     1.000000    0.05266524
  774       -6.1996693348      -0.0000874152     1.000000    0.05266524
  775       -6.1995819196       0.0000874152     1.000000    0.05266524
  776       -6.1996693348      -0.0000874152     1.000000    0.05266524
  777       -6.1995819196       0.0000874152     1.000000    0.05266524
  778       -6.1996693348      -0.0000874152     1.000000    0.05266524
  779       -6.1995819196       0.0000874152     1.000000    0.05266524
  780       -6.1996693348      -0.0000874152     1.000000    0.05266524
  781       -6.1995819196       0.0000874152     1.000000    0.05266524
  782       -6.1996693348      -0.0000874152     1.000000    0.05266524
  783       -6.1995819196       0.0000874152     1.000000    0.05266524
  784       -6.1996693348      -0.0000874152     1.000000    0.05266524
  785       -6.1995819196       0.0000874152     1.000000    0.05266524
  786       -6.1996693348      -0.0000874152     1.000000    0.05266524
  787       -6.1995819196       0.0000874152     1.000000    0.05266524
  788       -6.1996693348      -0.0000874152     1.000000    0.05266524
  789       -6.1995819196       0.0000874152     1.000000    0.05266524
  790       -6.1996693348      -0.0000874152     1.000000    0.05266524
  791       -6.1995819196       0.0000874152     1.000000    0.05266524
  792       -6.1996693348      -0.0000874152     1.000000    0.05266524
  793       -6.1995819196       0.0000874152     1.000000    0.05266524
  794       -6.1996693348      -0.0000874152     1.000000    0.05266524
  795       -6.1995819196       0.0000874152     1.000000    0.05266524
  796       -6.1996693348      -0.0000874152     1.000000    0.05266524
  797       -6.1995819196       0.0000874152     1.000000    0.05266524
  798       -6.1996693348      -0.0000874152     1.000000    0.05266524
  799       -6.1995819196       0.0000874152     1.000000    0.05266524
  800       -6.1996693348      -0.0000874152     1.000000    0.05266524
  801       -6.1995819196       0.0000874152     1.000000    0.05266524
  802       -6.1996693348      -0.0000874152     1.000000    0.05266524
  803       -6.1995819196       0.0000874152     1.000000    0.05266524
  804       -6.1996693348      -0.0000874152     1.000000    0.05266524
  805       -6.1995819196       0.0000874152     1.000000    0.05266524
  806       -6.1996693348      -0.0000874152     1.000000    0.05266524
  807       -6.1995819196       0.0000874152     1.000000    0.05266524
  808       -6.1996693348      -0.0000874152     1.000000    0.05266524
  809       -6.1995819196       0.0000874152     1.000000    0.05266524
  810       -6.1996693348      -0.0000874152     1.000000    0.05266524
  811       -6.1995819196       0.0000874152     1.000000    0.05266524
  812       -6.1996693348      -0.0000874152     1.000000    0.05266524
  813       -6.1995819196       0.0000874152     1.000000    0.05266524
  814       -6.1996693348      -0.0000874152     1.000000    0.05266524
  815       -6.1995819196       0.0000874152     1.000000    0.05266524
  816       -6.1996693348      -0.0000874152     1.000000    0.05266524
  817       -6.1995819196       0.0000874152     1.000000    0.05266524
  818       -6.1996693348      -0.0000874152     1.000000    0.05266524
  819       -6.1995819196       0.0000874152     1.000000    0.05266524
  820       -6.1996693348      -0.0000874152     1.000000    0.05266524
  821       -6.1995819196       0.0000874152     1.000000    0.05266524
  822       -6.1996693348      -0.0000874152     1.000000    0.05266524
  823       -6.1995819196       0.0000874152     1.000000    0.05266524
  824       -6.1996693348      -0.0000874152     1.000000    0.05266524
  825       -6.1995819196       0.0000874152     1.000000    0.05266524
  826       -6.1996693348      -0.0000874152     1.000000    0.05266524
  827       -6.1995819196       0.0000874152     1.000000    0.05266524
  828       -6.1996693348      -0.0000874152     1.000000    0.05266524
  829       -6.1995819196       0.0000874152     1.000000    0.05266524
  830       -6.1996693348      -0.0000874152     1.000000    0.05266524
  831       -6.1995819196       0.0000874152     1.000000    0.05266524
  832       -6.1996693348      -0.0000874152     1.000000    0.05266524
  833       -6.1995819196       0.0000874152     1.000000    0.05266524
  834       -6.1996693348      -0.0000874152     1.000000    0.05266524
  835       -6.1995819196       0.0000874152     1.000000    0.05266524
  836       -6.1996693348      -0.0000874152     1.000000    0.05266524
  837       -6.1995819196       0.0000874152     1.000000    0.05266524
  838       -6.1996693348      -0.0000874152     1.000000    0.05266524
  839       -6.1995819196       0.0000874152     1.000000    0.05266524
  840       -6.1996693348      -0.0000874152     1.000000    0.05266524
  841       -6.1995819196       0.0000874152     1.000000    0.05266524
  842       -6.1996693348      -0.0000874152     1.000000    0.05266524
  843       -6.1995819196       0.0000874152     1.000000    0.05266524
  844       -6.1996693348      -0.0000874152     1.000000    0.05266524
  845       -6.1995819196       0.0000874152     1.000000    0.05266524
  846       -6.1996693348      -0.0000874152     1.000000    0.05266524
  847       -6.1995819196       0.0000874152     1.000000    0.05266524
  848       -6.1996693348      -0.0000874152     1.000000    0.05266524
  849       -6.1995819196       0.0000874152     1.000000    0.05266524
  850       -6.1996693348      -0.0000874152     1.000000    0.05266524
  851       -6.1995819196       0.0000874152     1.000000    0.05266524
  852       -6.1996693348      -0.0000874152     1.000000    0.05266524
  853       -6.1995819196       0.0000874152     1.000000    0.05266524
  854       -6.1996693348      -0.0000874152     1.000000    0.05266524
  855       -6.1995819196       0.0000874152     1.000000    0.05266524
  856       -6.1996693348      -0.0000874152     1.000000    0.05266524
  857       -6.1995819196       0.0000874152     1.000000    0.05266524
  858       -6.1996693348      -0.0000874152     1.000000    0.05266524
  859       -6.1995819196       0.0000874152     1.000000    0.05266524
  860       -6.1996693348      -0.0000874152     1.000000    0.05266524
  861       -6.1995819196       0.0000874152     1.000000    0.05266524
  862       -6.1996693348      -0.0000874152     1.000000    0.05266524
  863       -6.1995819196       0.0000874152     1.000000    0.05266524
  864       -6.1996693348      -0.0000874152     1.000000    0.05266524
  865       -6.1995819196       0.0000874152     1.000000    0.05266524
  866       -6.1996693348      -0.0000874152     1.000000    0.05266524
  867       -6.1995819196       0.0000874152     1.000000    0.05266524
  868       -6.1996693348      -0.0000874152     1.000000    0.05266524
  869       -6.1995819196       0.0000874152     1.000000    0.05266524
  870       -6.1996693348      -0.0000874152     1.000000    0.05266524
  871       -6.1995819196       0.0000874152     1.000000    0.05266524
  872       -6.1996693348      -0.0000874152     1.000000    0.05266524
  873       -6.1995819196       0.0000874152     1.000000    0.05266524
  874       -6.1996693348      -0.0000874152     1.000000    0.05266524
  875       -6.1995819196       0.0000874152     1.000000    0.05266524
  876       -6.1996693348      -0.0000874152     1.000000    0.05266524
  877       -6.1995819196       0.0000874152     1.000000    0.05266524
  878       -6.1996693348      -0.0000874152     1.000000    0.05266524
  879       -6.1995819196       0.0000874152     1.000000    0.05266524
  880       -6.1996693348      -0.0000874152     1.000000    0.05266524
  881       -6.1995819196       0.0000874152     1.000000    0.05266524
  882       -6.1996693348      -0.0000874152     1.000000    0.05266524
  883       -6.1995819196       0.0000874152     1.000000    0.05266524
  884       -6.1996693348      -0.0000874152     1.000000    0.05266524
  885       -6.1995819196       0.0000874152     1.000000    0.05266524
  886       -6.1996693348      -0.0000874152     1.000000    0.05266524
  887       -6.1995819196       0.0000874152     1.000000    0.05266524
  888       -6.1996693348      -0.0000874152     1.000000    0.05266524
  889       -6.1995819196       0.0000874152     1.000000    0.05266524
  890       -6.1996693348      -0.0000874152     1.000000    0.05266524
  891       -6.1995819196       0.0000874152     1.000000    0.05266524
  892       -6.1996693348      -0.0000874152     1.000000    0.05266524
  893       -6.1995819196       0.0000874152     1.000000    0.05266524
  894       -6.1996693348      -0.0000874152     1.000000    0.05266524
  895       -6.1995819196       0.0000874152     1.000000    0.05266524
  896       -6.1996693348      -0.0000874152     1.000000    0.05266524
  897       -6.1995819196       0.0000874152     1.000000    0.05266524
  898       -6.1996693348      -0.0000874152     1.000000    0.05266524
  899       -6.1995819196       0.0000874152     1.000000    0.05266524
  900       -6.1996693348      -0.0000874152     1.000000    0.05266524
  901       -6.1995819196       0.0000874152     1.000000    0.05266524
  902       -6.1996693348      -0.0000874152     1.000000    0.05266524
  903       -6.1995819196       0.0000874152     1.000000    0.05266524
  904       -6.1996693348      -0.0000874152     1.000000    0.05266524
  905       -6.1995819196       0.0000874152     1.000000    0.05266524
  906       -6.1996693348      -0.0000874152     1.000000    0.05266524
  907       -6.1995819196       0.0000874152     1.000000    0.05266524
  908       -6.1996693348      -0.0000874152     1.000000    0.05266524
  909       -6.1995819196       0.0000874152     1.000000    0.05266524
  910       -6.1996693348      -0.0000874152     1.000000    0.05266524
  911       -6.1995819196       0.0000874152     1.000000    0.05266524
  912       -6.1996693348      -0.0000874152     1.000000    0.05266524
  913       -6.1995819196       0.0000874152     1.000000    0.05266524
  914       -6.1996693348      -0.0000874152     1.000000    0.05266524
  915       -6.1995819196       0.0000874152     1.000000    0.05266524
  916       -6.1996693348      -0.0000874152     1.000000    0.05266524
  917       -6.1995819196       0.0000874152     1.000000    0.05266524
  918       -6.1996693348      -0.0000874152     1.000000    0.05266524
  919       -6.1995819196       0.0000874152     1.000000    0.05266524
  920       -6.1996693348      -0.0000874152     1.000000    0.05266524
  921       -6.1995819196       0.0000874152     1.000000    0.05266524
  922       -6.1996693348      -0.0000874152     1.000000    0.05266524
  923       -6.1995819196       0.0000874152     1.000000    0.05266524
  924       -6.1996693348      -0.0000874152     1.000000    0.05266524
  925       -6.1995819196       0.0000874152     1.000000    0.05266524
  926       -6.1996693348      -0.0000874152     1.000000    0.05266524
  927       -6.1995819196       0.0000874152     1.000000    0.05266524
  928       -6.1996693348      -0.0000874152     1.000000    0.05266524
  929       -6.1995819196       0.0000874152     1.000000    0.05266524
  930       -6.1996693348      -0.0000874152     1.000000    0.05266524
  931       -6.1995819196       0.0000874152     1.000000    0.05266524
  932       -6.1996693348      -0.0000874152     1.000000    0.05266524
  933       -6.1995819196       0.0000874152     1.000000    0.05266524
  934       -6.1996693348      -0.0000874152     1.000000    0.05266524
  935       -6.1995819196       0.0000874152     1.000000    0.05266524
  936       -6.1996693348      -0.0000874152     1.000000    0.05266524
  937       -6.1995819196       0.0000874152     1.000000    0.05266524
  938       -6.1996693348      -0.0000874152     1.000000    0.05266524
  939       -6.1995819196       0.0000874152     1.000000    0.05266524
  940       -6.1996693348      -0.0000874152     1.000000    0.05266524
  941       -6.1995819196       0.0000874152     1.000000    0.05266524
  942       -6.1996693348      -0.0000874152     1.000000    0.05266524
  943       -6.1995819196       0.0000874152     1.000000    0.05266524
  944       -6.1996693348      -0.0000874152     1.000000    0.05266524
  945       -6.1995819196       0.0000874152     1.000000    0.05266524
  946       -6.1996693348      -0.0000874152     1.000000    0.05266524
  947       -6.1995819196       0.0000874152     1.000000    0.05266524
  948       -6.1996693348      -0.0000874152     1.000000    0.05266524
  949       -6.1995819196       0.0000874152     1.000000    0.05266524
  950       -6.1996693348      -0.0000874152     1.000000    0.05266524
  951       -6.1995819196       0.0000874152     1.000000    0.05266524
  952       -6.1996693348      -0.0000874152     1.000000    0.05266524
  953       -6.1995819196       0.0000874152     1.000000    0.05266524
  954       -6.1996693348      -0.0000874152     1.000000    0.05266524
  955       -6.1995819196       0.0000874152     1.000000    0.05266524
  956       -6.1996693348      -0.0000874152     1.000000    0.05266524
  957       -6.1995819196       0.0000874152     1.000000    0.05266524
  958       -6.1996693348      -0.0000874152     1.000000    0.05266524
  959       -6.1995819196       0.0000874152     1.000000    0.05266524
  960       -6.1996693348      -0.0000874152     1.000000    0.05266524
  961       -6.1995819196       0.0000874152     1.000000    0.05266524
  962       -6.1996693348      -0.0000874152     1.000000    0.05266524
  963       -6.1995819196       0.0000874152     1.000000    0.05266524
  964       -6.1996693348      -0.0000874152     1.000000    0.05266524
  965       -6.1995819196       0.0000874152     1.000000    0.05266524
  966       -6.1996693348      -0.0000874152     1.000000    0.05266524
  967       -6.1995819196       0.0000874152     1.000000    0.05266524
  968       -6.1996693348      -0.0000874152     1.000000    0.05266524
  969       -6.1995819196       0.0000874152     1.000000    0.05266524
  970       -6.1996693348      -0.0000874152     1.000000    0.05266524
  971       -6.1995819196       0.0000874152     1.000000    0.05266524
  972       -6.1996693348      -0.0000874152     1.000000    0.05266524
  973       -6.1995819196       0.0000874152     1.000000    0.05266524
  974       -6.1996693348      -0.0000874152     1.000000    0.05266524
  975       -6.1995819196       0.0000874152     1.000000    0.05266524
  976       -6.1996693348      -0.0000874152     1.000000    0.05266524
  977       -6.1995819196       0.0000874152     1.000000    0.05266524
  978       -6.1996693348      -0.0000874152     1.000000    0.05266524
  979       -6.1995819196       0.0000874152     1.000000    0.05266524
  980       -6.1996693348      -0.0000874152     1.000000    0.05266524
  981       -6.1995819196       0.0000874152     1.000000    0.05266524
  982       -6.1996693348      -0.0000874152     1.000000    0.05266524
  983       -6.1995819196       0.0000874152     1.000000    0.05266524
  984       -6.1996693348      -0.0000874152     1.000000    0.05266524
  985       -6.1995819196       0.0000874152     1.000000    0.05266524
  986       -6.1996693348      -0.0000874152     1.000000    0.05266524
  987       -6.1995819196       0.0000874152     1.000000    0.05266524
  988       -6.1996693348      -0.0000874152     1.000000    0.05266524
  989       -6.1995819196       0.0000874152     1.000000    0.05266524
  990       -6.1996693348      -0.0000874152     1.000000    0.05266524
  991       -6.1995819196       0.0000874152     1.000000    0.05266524
  992       -6.1996693348      -0.0000874152     1.000000    0.05266524
  993       -6.1995819196       0.0000874152     1.000000    0.05266524
  994       -6.1996693348      -0.0000874152     1.000000    0.05266524
  995       -6.1995819196       0.0000874152     1.000000    0.05266524
  996       -6.1996693348      -0.0000874152     1.000000    0.05266524
  997       -6.1995819196       0.0000874152     1.000000    0.05266524
  998       -6.1996693348      -0.0000874152     1.000000    0.05266524
  999       -6.1995819196       0.0000874152     1.000000    0.05266524
 1000       -6.1996693348      -0.0000874152     1.000000    0.05266524

Total Energy:                       -6.1996693348 H         -168.7016 eV
Extrapolated to 0:                  -6.2365471791 H         -169.7051 eV

----------------------------------------------------------------------------------
 Solving CP-REKS equation for  1 state vector...
----------------------------------------------------------------------------------
  CG solver: Constructing Y initial guess
  CG solver: Iteration    1    eps =    0.084255680006
  CG solver: Iteration    2    eps =    0.005596457536
  CG solver: Iteration    3    eps =    0.001571951004
  CG solver: Iteration    4    eps =    0.000122217139
  CG solver: Iteration    5    eps =    0.000013001983
  CG solver: Iteration    6    eps =    0.000000797130
  CG solver: Iteration    7    eps =    0.000000049178
  CG solver: Iteration    8    eps =    0.000000005883
  Convergence reached in CG solver after    8 iterations
  CG solver: Calculating converged R, Z, Q2 matrix
----------------------------------------------------------------------------------

----------------------------------------------------------------------------------
 Solving CP-REKS equation for SI between  1 and  2 state vectors...
----------------------------------------------------------------------------------
  CG solver: Constructing Y initial guess
  CG solver: Iteration    1    eps =    0.001253960570
  CG solver: Iteration    2    eps =    0.000102798147
  CG solver: Iteration    3    eps =    0.000017773235
  CG solver: Iteration    4    eps =    0.000008649481
  CG solver: Iteration    5    eps =    0.000000511777
  CG solver: Iteration    6    eps =    0.000000009995
  Convergence reached in CG solver after    6 iterations
  CG solver: Calculating converged R, Z, Q2 matrix
----------------------------------------------------------------------------------

--------------------------------------------------
 Gradient Information
--------------------------------------------------
           1 st state (SSR)
     0.00000000     0.00000000     0.00000000
     0.00000000     0.00000000     0.00000000
     0.00000000     0.00000000     0.00000000
     0.00000000     0.00000000     0.00000000
     0.00000000     0.00000000     0.00000000
     0.00000000     0.00000000     0.00000000

           2 st state (SSR)
     0.00000000     0.00000000     0.00000000
     0.00000000     0.00000000     0.00000000
     0.00000000     0.00000000     0.00000000
     0.00000000     0.00000000     0.00000000
     0.00000000     0.00000000     0.00000000
     0.00000000     0.00000000     0.00000000
--------------------------------------------------
 Coupling Information
--------------------------------------------------
 between  1 and  2 states
--------------------------------------------------
 g vector - difference gradient
    -0.31178025     0.25688790    -0.97951270
    -0.06208346    -0.11465984     0.76354023
     0.22729038    -0.08690205     0.18876914
    -0.21122303     0.05360103    -0.03732735
     0.17678339     0.13089630     0.09209659
     0.18101296    -0.23982334    -0.02756590

 h vector - derivative coupling
     0.01013665    -0.01621735     0.00381936
    -0.03187643     0.02162773    -0.01380236
     0.01159384     0.00879346     0.00242322
    -0.00003730    -0.00047506     0.00655201
     0.02427019    -0.01239666     0.00532229
    -0.01408694    -0.00133211    -0.00431452

 G vector - GDV
     0.00000000     0.00000000     0.00000000
     0.00000000     0.00000000     0.00000000
     0.00000000     0.00000000     0.00000000
     0.00000000     0.00000000     0.00000000
     0.00000000     0.00000000     0.00000000
     0.00000000     0.00000000     0.00000000

 H vector - DCV - non-adiabatic coupling
    -0.00000000    -0.00000000    -0.00000000
    -0.00000000    -0.00000000    -0.00000000
    -0.00000000    -0.00000000    -0.00000000
    -0.00000000    -0.00000000    -0.00000000
    -0.00000000    -0.00000000    -0.00000000
    -0.00000000    -0.00000000    -0.00000000
--------------------------------------------------

WARNING!
-> SCC is NOT converged, maximal SCC iterations exceeded

--------------------------------------------------------------------------------
DFTB+ running times                          cpu [s]             wall clock [s]
--------------------------------------------------------------------------------
SCC                                    +     0.40  ( 97.2%)      0.40  ( 95.7%)
      Sparse to dense                        0.02  (  4.9%)      0.02  (  4.8%)
      Dense to sparse                        0.07  ( 16.5%)      0.07  ( 17.5%)
      Range separated Hamiltonian            0.03  (  6.9%)      0.03  (  7.4%)
  Density matrix creation                    0.05  ( 12.7%)      0.06  ( 13.6%)
  Force calculation                          0.01  (  2.5%)      0.01  (  2.6%)
--------------------------------------------------------------------------------
Missing                                +     0.01  (  2.8%)      0.02  (  4.3%)
Total                                  =     0.41  (100.0%)      0.42  (100.0%)
--------------------------------------------------------------------------------
