     6
  Step:     0            Position(A)                                  Velocity(au)
C        -0.03689685     0.02830896     0.01390035    -0.00005524    -0.00000884     0.00037432
N        -0.04701475    -0.06507392     1.30412361     0.00020921     0.00000750    -0.00035245
H         0.89698397    -0.06136269    -0.48683714     0.00058860     0.00003337    -0.00069508
H         0.88064470    -0.04071548     1.81536436    -0.00119859    -0.00011482    -0.00039774
H        -0.91617398    -0.02700469     1.82807954    -0.00191844     0.00026205     0.00104451
H        -0.98139364     0.02626392    -0.55276365     0.00027936    -0.00017954     0.00048568
     6
  Step:     1            Position(A)                                  Velocity(au)
C        -0.03722066     0.02827906     0.01586196    -0.00006234    -0.00000201     0.00034050
N        -0.04584350    -0.06504699     1.30229986     0.00021621     0.00000226    -0.00031182
H         0.90064337    -0.06125329    -0.49108060     0.00073802     0.00000767    -0.00084891
H         0.87378881    -0.04130864     1.81317174    -0.00129558    -0.00010168    -0.00039667
H        -0.92680503    -0.02554853     1.83403013    -0.00193881     0.00026918     0.00111150
H        -0.97998396     0.02527319    -0.55030918     0.00023457    -0.00018275     0.00040987
     6
  Step:     2            Position(A)                                  Velocity(au)
C        -0.03757902     0.02828701     0.01762640    -0.00006773     0.00000497     0.00030187
N        -0.04464876    -0.06504918     1.30071138     0.00021755    -0.00000314    -0.00026637
H         0.90505992    -0.06127879    -0.49612658     0.00086278    -0.00001583    -0.00098601
H         0.86646748    -0.04182809     1.81102369    -0.00136517    -0.00008771    -0.00037997
H        -0.93739004    -0.02405910     1.84024250    -0.00190113     0.00027384     0.00113984
H        -0.97882680     0.02426414    -0.54827853     0.00018731    -0.00018595     0.00033056
     6
  Step:     3            Position(A)                                  Velocity(au)
C        -0.03796235     0.02833346     0.01916787    -0.00007136     0.00001202     0.00025884
N        -0.04346102    -0.06508134     1.29938277     0.00021349    -0.00000867    -0.00021697
H         0.91009205    -0.06142660    -0.50187874     0.00096078    -0.00003691    -0.00110466
H         0.85883836    -0.04226919     1.80901057    -0.00140475    -0.00007292    -0.00034614
H        -0.94762499    -0.02254965     1.84651292    -0.00181134     0.00027617     0.00113286
H        -0.97793262     0.02323680    -0.54668911     0.00013886    -0.00018915     0.00024868
     6
  Step:     4            Position(A)                                  Velocity(au)
C        -0.03836104     0.02841875     0.02046318    -0.00007327     0.00001910     0.00021197
N        -0.04230907    -0.06514419     1.29833349     0.00020440    -0.00001431    -0.00016462
H         0.91558956    -0.06168332    -0.50823312     0.00103113    -0.00005550    -0.00120399
H         0.85107212    -0.04262728     1.80723018    -0.00141254    -0.00005732    -0.00029411
H        -0.95724138    -0.02103245     1.85265804    -0.00167652     0.00027641     0.00109472
H        -0.97730493     0.02219111    -0.54555312     0.00009045    -0.00019240     0.00016521
     6
  Step:     5            Position(A)                                  Velocity(au)
C        -0.03876585     0.02854295     0.02149248    -0.00007356     0.00002616     0.00016192
N        -0.04121939    -0.06523828     1.29757741     0.00019077    -0.00002003    -0.00011033
H         0.92140007    -0.06203527    -0.51508246     0.00107405    -0.00007160    -0.00128386
H         0.84334752    -0.04289779     1.80578516    -0.00138767    -0.00004092    -0.00022331
H        -0.96601074    -0.01951841     1.85851826    -0.00150415     0.00027483     0.00102995
H        -0.97694065     0.02112684    -0.54487737     0.00004323    -0.00019572     0.00008107
     6
  Step:     6            Position(A)                                  Velocity(au)
C        -0.03916816     0.02870583     0.02223978    -0.00007238     0.00003316     0.00010939
N        -0.04021585    -0.06536402     1.29712286     0.00017310    -0.00002582    -0.00005507
H         0.92737455    -0.06246895    -0.52232017     0.00109069    -0.00008529    -0.00134480
H         0.83584601    -0.04307626     1.80477997    -0.00133029    -0.00002374    -0.00013372
H        -0.97374558    -0.01801688     1.86395907    -0.00130161     0.00027174     0.00094313
H        -0.97683059     0.02004356    -0.54466353    -0.00000179    -0.00019917    -0.00000284
     6
  Step:     7            Position(A)                                  Velocity(au)
C        -0.03956032     0.02890696     0.02269322    -0.00006990     0.00004006     0.00005513
N        -0.03931937    -0.06552166     1.29697293     0.00015192    -0.00003163     0.00000029
H         0.93337215    -0.06297145    -0.52984382     0.00108279    -0.00009671    -0.00138782
H         0.82874543    -0.04315842     1.80431739    -0.00124166    -0.00000582    -0.00002599
H        -0.98029803    -0.01653559     1.86887069    -0.00107573     0.00026744     0.00083862
H        -0.97696026     0.01894063    -0.54490853    -0.00004373    -0.00020278    -0.00008576
     6
  Step:     8            Position(A)                                  Velocity(au)
C        -0.03993560     0.02914569     0.02284507    -0.00006630     0.00004683    -0.00000014
N        -0.03854784    -0.06571132     1.29712605     0.00012782    -0.00003746     0.00005499
H         0.93926281    -0.06353072    -0.53755741     0.00105250    -0.00010603    -0.00141425
H         0.82221349    -0.04314016     1.80449457    -0.00112419     0.00001282     0.00009852
H        -0.98555625    -0.01508063     1.87316649    -0.00083264     0.00026219     0.00072040
H        -0.97731069     0.01781715    -0.54560514    -0.00008189    -0.00020660    -0.00016703
     6
  Step:     9            Position(A)                                  Velocity(au)
C        -0.04028828     0.02942122     0.02269163    -0.00006174     0.00005345    -0.00005574
N        -0.03791592    -0.06593295     1.29757669     0.00010135    -0.00004327     0.00010838
H         0.94492888    -0.06413570    -0.54537273     0.00100210    -0.00011345    -0.00142557
H         0.81640147    -0.04301764     1.80539912    -0.00098133     0.00003214     0.00023775
H        -0.98944068    -0.01365664     1.87678091    -0.00057774     0.00025626     0.00059204
H        -0.97785940     0.01667207    -0.54674257    -0.00011572    -0.00021065    -0.00024608
     6
  Step:    10            Position(A)                                  Velocity(au)
C        -0.04061356     0.02973258     0.02223300    -0.00005639     0.00005988    -0.00011101
N        -0.03743501    -0.06618640     1.29831609     0.00007312    -0.00004904     0.00015996
H         0.95026593    -0.06477641    -0.55321025     0.00093389    -0.00011915    -0.00142325
H         0.81143835    -0.04278729     1.80710513    -0.00081756     0.00005207     0.00038894
H        -0.99189988    -0.01226689     1.87966717    -0.00031571     0.00024985     0.00045670
H        -0.97858125     0.01550420    -0.54830715    -0.00014480    -0.00021493    -0.00032245
     6
  Step:    11            Position(A)                                  Velocity(au)
C        -0.04090742     0.03007866     0.02147281    -0.00005037     0.00006610    -0.00016534
N        -0.03711311    -0.06647134     1.29933293     0.00004375    -0.00005474     0.00020932
H         0.95518203    -0.06544390    -0.56099863     0.00085000    -0.00012331    -0.00140868
H         0.80742544    -0.04244597     1.80966929    -0.00063824     0.00007253     0.00054859
H        -0.99290691    -0.01091350     1.88179505    -0.00005074     0.00024316     0.00031721
H        -0.97944920     0.01431233    -0.55028272    -0.00016887    -0.00021943    -0.00039570
     6
  Step:    12            Position(A)                                  Velocity(au)
C        -0.04116651     0.03045818     0.02041800    -0.00004378     0.00007207    -0.00021812
N        -0.03695470    -0.06678727     1.30061389     0.00001390    -0.00006033     0.00025610
H         0.95959695    -0.06613011    -0.56867424     0.00075246    -0.00012608    -0.00138310
H         0.80443200    -0.04199110     1.81312739    -0.00044944     0.00009339     0.00071262
H        -0.99245691    -0.00959758     1.88314936     0.00021327     0.00023634     0.00017620
H        -0.98043501     0.01309537    -0.55265099    -0.00018773    -0.00022410    -0.00046544
     6
  Step:    13            Position(A)                                  Velocity(au)
C        -0.04138800     0.03086968     0.01907866    -0.00003671     0.00007774    -0.00026877
N        -0.03696058    -0.06713352     1.30214398    -0.00001577    -0.00006577     0.00029999
H         0.96344147    -0.06682784    -0.57618028     0.00064312    -0.00012759    -0.00134758
H         0.80249214    -0.04142085     1.81749140    -0.00025772     0.00011449     0.00087644
H        -0.99056596    -0.00831932     1.88372908     0.00047243     0.00022954     0.00003625
H        -0.98150982     0.01185246    -0.55539165    -0.00020130    -0.00022888    -0.00053127
     6
  Step:    14            Position(A)                                  Velocity(au)
C        -0.04156949     0.03131146     0.01746795    -0.00002923     0.00008307    -0.00031670
N        -0.03712775    -0.06750917     1.30390668    -0.00004452    -0.00007101     0.00034069
H         0.96665605    -0.06753053    -0.58346560     0.00052368    -0.00012792    -0.00130297
H         0.80160315    -0.04073441     1.82274739    -0.00006984     0.00013561     0.00103511
H        -0.98727138    -0.00707804     1.88354722     0.00072264     0.00022292    -0.00009998
H        -0.98264458     0.01058310    -0.55848233    -0.00020958    -0.00023367    -0.00059273
     6
  Step:    15            Position(A)                                  Velocity(au)
C        -0.04170888     0.03178153     0.01560208    -0.00002139     0.00008798    -0.00036132
N        -0.03744927    -0.06791305     1.30588394    -0.00007162    -0.00007600     0.00037786
H         0.96919023    -0.06823210    -0.59048372     0.00039582    -0.00012717    -0.00125005
H         0.80172545    -0.03993223     1.82885441     0.00010757     0.00015647     0.00118362
H        -0.98263317    -0.00587219     1.88263152     0.00095938     0.00021664    -0.00022963
H        -0.98381052     0.00928735    -0.56189835    -0.00021263    -0.00023834    -0.00064933
     6
  Step:    16            Position(A)                                  Velocity(au)
C        -0.04180438     0.03227761     0.01350037    -0.00001325     0.00009243    -0.00040202
N        -0.03791421    -0.06834368     1.30805591    -0.00009633    -0.00008066     0.00041111
H         0.97100250    -0.06892692    -0.59719217     0.00026126    -0.00012539    -0.00118949
H         0.80278434    -0.03901628     1.83574459     0.00026831     0.00017675     0.00131707
H        -0.97673660    -0.00469915     1.88102566     0.00117759     0.00021090    -0.00034956
H        -0.98497950     0.00796590    -0.56561248    -0.00021061    -0.00024276    -0.00070051
     6
  Step:    17            Position(A)                                  Velocity(au)
C        -0.04185449     0.03279702     0.01118525    -0.00000488     0.00009633    -0.00043820
N        -0.03850763    -0.06879928     1.31040070    -0.00011791    -0.00008495     0.00044002
H         0.97206063    -0.06960969    -0.60355223     0.00012185    -0.00012264    -0.00112202
H         0.80467327    -0.03799029     1.84332460     0.00040696     0.00019612     0.00143098
H        -0.96969546    -0.00355508     1.87879099     0.00137165     0.00020596    -0.00045633
H        -0.98612443     0.00662021    -0.56959465    -0.00020375    -0.00024678    -0.00074571
     6
  Step:    18            Position(A)                                  Velocity(au)
C        -0.04185807     0.03333672     0.00868225     0.00000365     0.00009960    -0.00046931
N        -0.03921069    -0.06927775     1.31289405    -0.00013568    -0.00008880     0.00046413
H         0.97234227    -0.07027542    -0.60952892    -0.00002042    -0.00011900    -0.00104840
H         0.80725897    -0.03685987     1.85147842     0.00051919     0.00021421     0.00152156
H        -0.96165507    -0.00243460     1.87600820     0.00153557     0.00020212    -0.00054629
H        -0.98721976     0.00525256    -0.57381173    -0.00019238    -0.00025023    -0.00078435
     6
  Step:    19            Position(A)                                  Velocity(au)
C        -0.04181436     0.03389332     0.00601981     0.00001225     0.00010221    -0.00049485
N        -0.04000097    -0.06977669     1.31550919    -0.00014902    -0.00009217     0.00048299
H         0.97183582    -0.07091948    -0.61509146    -0.00016342    -0.00011454    -0.00096957
H         0.81038776    -0.03563255     1.86007162     0.00060197     0.00023068     0.00158598
H        -0.95279419    -0.00133046     1.87277829     0.00166323     0.00019975    -0.00061570
H        -0.98824191     0.00386607    -0.57822761    -0.00017694    -0.00025298    -0.00081591
     6
  Step:    20            Position(A)                                  Velocity(au)
C        -0.04172312     0.03446308     0.00322882     0.00002081     0.00010408    -0.00051445
N        -0.04085291    -0.07029352     1.31821684    -0.00015743    -0.00009503     0.00049620
H         0.97054133    -0.07153767    -0.62021407    -0.00030486    -0.00010935    -0.00088664
H         0.81389295    -0.03431769     1.86895669     0.00065371     0.00024522     0.00162256
H        -0.94332554    -0.00023324     1.86922288     0.00174880     0.00019929    -0.00066103
H        -0.98916978     0.00246457    -0.58280346    -0.00015796    -0.00025493    -0.00084000
     6
  Step:    21            Position(A)                                  Velocity(au)
C        -0.04158466     0.03504206     0.00034200     0.00002924     0.00010522    -0.00052793
N        -0.04173849    -0.07082548     1.32098555    -0.00016059    -0.00009737     0.00050348
H         0.96847119    -0.07212638    -0.62487695    -0.00044245    -0.00010358    -0.00080090
H         0.81760256    -0.03292620     1.87797921     0.00067434     0.00025760     0.00163087
H        -0.93349331     0.00086898     1.86548272     0.00178737     0.00020118    -0.00067924
H        -0.98998524     0.00105250    -0.58749840    -0.00013604    -0.00025600    -0.00085641
     6
  Step:    22            Position(A)                                  Velocity(au)
C        -0.04139994     0.03562623    -0.00260705     0.00003740     0.00010563    -0.00053528
N        -0.04262814    -0.07136986     1.32378243    -0.00015835    -0.00009922     0.00050472
H         0.96565040    -0.07268269    -0.62906742    -0.00057395    -0.00009738    -0.00071384
H         0.82134728    -0.03147009     1.88698477     0.00066520     0.00026772     0.00161180
H        -0.92356743     0.00199069     1.86171438     0.00177546     0.00020591    -0.00066811
H        -0.99067356    -0.00036535    -0.59227051    -0.00011185    -0.00025619    -0.00086519
     6
  Step:    23            Position(A)                                  Velocity(au)
C        -0.04117059     0.03621164    -0.00558488     0.00004518     0.00010535    -0.00053673
N        -0.04349184    -0.07192408     1.32657405    -0.00015079    -0.00010063     0.00050003
H         0.96211616    -0.07320460    -0.63278090    -0.00069735    -0.00009093    -0.00062706
H         0.82496796    -0.02996193     1.89582580     0.00062882     0.00027555     0.00156742
H        -0.91383460     0.00314892     1.85808507     0.00171162     0.00021390    -0.00062662
H        -0.99122365    -0.00178417    -0.59707816    -0.00008609    -0.00025555    -0.00086665
     6
  Step:    24            Position(A)                                  Velocity(au)
C        -0.04089891     0.03679461    -0.00855934     0.00005248     0.00010448    -0.00053270
N        -0.04430035    -0.07248587     1.32932773    -0.00013819    -0.00010169     0.00048974
H         0.95791679    -0.07369110    -0.63602153    -0.00081100    -0.00008445    -0.00054221
H         0.82832093    -0.02841420     1.90436746     0.00056871     0.00028125     0.00150081
H        -0.90458566     0.00436280     1.85476522     0.00159674     0.00022550    -0.00055509
H        -0.99162830    -0.00319940    -0.60188160    -0.00005945    -0.00025420    -0.00086138
     6
  Step:    25            Position(A)                                  Velocity(au)
C        -0.04058780     0.03737191    -0.01150085     0.00005921     0.00010310    -0.00052383
N        -0.04502653    -0.07305338     1.33201289    -0.00012108    -0.00010249     0.00047442
H         0.95310959    -0.07414247    -0.63880244    -0.00091367    -0.00007818    -0.00046086
H         0.83128377    -0.02683851     1.91249315     0.00048896     0.00028505     0.00141574
H        -0.89610190     0.00565325     1.85192048     0.00143422     0.00024098    -0.00045534
H        -0.99188388    -0.00460720    -0.60664427    -0.00003253    -0.00025232    -0.00085020
     6
  Step:    26            Position(A)                                  Velocity(au)
C        -0.04024064     0.03794093    -0.01438331     0.00006651     0.00010304    -0.00056831
N        -0.04564650    -0.07362530     1.33460232    -0.00010046    -0.00010586     0.00049993
H         0.94775856    -0.07456028    -0.64114539    -0.00103624    -0.00008638    -0.00033652
H         0.83375724    -0.02524497     1.92010765     0.00037608     0.00031539     0.00129615
H        -0.88863994     0.00704197     1.84970273     0.00124631     0.00022567    -0.00034984
H        -0.99199002    -0.00600468    -0.61133417     0.00001735    -0.00021158    -0.00078499
     6
  Step:    27            Position(A)                                  Velocity(au)
C        -0.03984772     0.03851852    -0.01782467     0.00007391     0.00010423    -0.00066488
N        -0.04614443    -0.07423128     1.33757582    -0.00007701    -0.00011170     0.00056562
H         0.94157904    -0.07510363    -0.64254703    -0.00117441    -0.00009803    -0.00017167
H         0.83546855    -0.02332906     1.92691580     0.00023463     0.00035946     0.00114574
H        -0.88223384     0.00816434     1.84802773     0.00103960     0.00019223    -0.00024351
H        -0.99169078    -0.00696158    -0.61537911     0.00008960    -0.00014347    -0.00066796
     6
  Step:    28            Position(A)                                  Velocity(au)
C        -0.03941767     0.03910153    -0.02178680     0.00007977     0.00010481    -0.00075313
N        -0.04650399    -0.07486910     1.34090062    -0.00005103    -0.00011709     0.00062432
H         0.93468132    -0.07565189    -0.64305697    -0.00129163    -0.00009450    -0.00001775
H         0.83636983    -0.02124237     1.93286563     0.00008770     0.00038352     0.00098913
H        -0.87706389     0.00918253     1.84699115     0.00080329     0.00018073    -0.00012115
H        -0.99099229    -0.00760222    -0.61877201     0.00015919    -0.00009160    -0.00055159
     6
  Step:    29            Position(A)                                  Velocity(au)
C        -0.03895889     0.03968637    -0.02621639     0.00008412     0.00010476    -0.00083131
N        -0.04671301    -0.07553595     1.34453222    -0.00002336    -0.00012194     0.00067479
H         0.92718709    -0.07615654    -0.64274483    -0.00138591    -0.00008466     0.00012218
H         0.83644580    -0.01905570     1.93793717    -0.00005932     0.00039751     0.00083134
H        -0.87328328     0.01017810     1.84667787     0.00054388     0.00018104     0.00001403
H        -0.98991700    -0.00798227    -0.62152516     0.00022363    -0.00004765    -0.00043873
     6
  Step:    30            Position(A)                                  Velocity(au)
C        -0.03847987     0.04026948    -0.03105514     0.00008692     0.00010410    -0.00089888
N        -0.04676444    -0.07622865     1.34842392     0.00000504    -0.00012621     0.00071699
H         0.91922979    -0.07659573    -0.64169476    -0.00145527    -0.00007216     0.00024577
H         0.83570849    -0.01681051     1.94213424    -0.00020184     0.00040540     0.00067632
H        -0.87100016     0.01120090     1.84714755     0.00027025     0.00018864     0.00015695
H        -0.98849907    -0.00813349    -0.62366348     0.00028102    -0.00000848    -0.00033143
     6
  Step:    31            Position(A)                                  Velocity(au)
C        -0.03798933     0.04084758    -0.03624314     0.00008815     0.00010290    -0.00095578
N        -0.04665678    -0.07694381     1.35253000     0.00003318    -0.00012987     0.00075128
H         0.91095399    -0.07696152    -0.64000337    -0.00149791    -0.00005900     0.00035097
H         0.83419439    -0.01453355     1.94548133    -0.00033571     0.00040949     0.00052757
H        -0.87026869     0.01228231     1.84842865    -0.00000764     0.00020070     0.00030189
H        -0.98678226    -0.00807684    -0.62522211     0.00032981     0.00002743    -0.00023133
     6
  Step:    32            Position(A)                                  Velocity(au)
C        -0.03749624     0.04141772    -0.04172079     0.00008775     0.00010123    -0.00100225
N        -0.04639420    -0.07767793     1.35680750     0.00006006    -0.00013292     0.00077830
H         0.90251455    -0.07725415    -0.63777827    -0.00151213    -0.00004653     0.00043604
H         0.83196225    -0.01224101     1.94802146    -0.00045728     0.00041131     0.00038815
H        -0.87108542     0.01344050     1.85051641    -0.00027962     0.00021509     0.00044299
H        -0.98481868    -0.00782739    -0.62624486     0.00036868     0.00006094    -0.00013980
     6
  Step:    33            Position(A)                                  Velocity(au)
C        -0.03700982     0.04197755    -0.04743032     0.00008570     0.00009921    -0.00103874
N        -0.04598636    -0.07842749     1.36121740     0.00008477    -0.00013536     0.00079882
H         0.89407553    -0.07748087    -0.63513632    -0.00149652    -0.00003580     0.00049956
H         0.82909021    -0.00994247     1.94981390    -0.00056332     0.00041198     0.00026072
H        -0.87338980     0.01468310     1.85337330    -0.00053600     0.00023007     0.00057473
H        -0.98266705    -0.00739662    -0.62678252     0.00039658     0.00009258    -0.00005791
     6
  Step:    34            Position(A)                                  Velocity(au)
C        -0.03653950     0.04252525    -0.05331676     0.00008197     0.00009693    -0.00106580
N        -0.04544789    -0.07918905     1.36572505     0.00010648    -0.00013721     0.00081362
H         0.88580825    -0.07765377    -0.63220150    -0.00144985    -0.00002758     0.00054045
H         0.82567368    -0.00764188     1.95093202    -0.00065095     0.00041242     0.00014756
H        -0.87706901     0.01600889     1.85693235    -0.00076824     0.00024421     0.00069234
H        -0.98039151    -0.00679385    -0.62689136     0.00041263     0.00012270     0.00001350
     6
  Step:    35            Position(A)                                  Velocity(au)
C        -0.03609480     0.04305959    -0.05932845     0.00007653     0.00009448    -0.00108401
N        -0.04479768    -0.07995927     1.37030024     0.00012451    -0.00013849     0.00082343
H         0.87789003    -0.07778878    -0.62910300    -0.00137128    -0.00002248     0.00055803
H         0.82182334    -0.00533843     1.95146122    -0.00071766     0.00041340     0.00005058
H        -0.88196605     0.01740934     1.86110232    -0.00096932     0.00025632     0.00079205
H        -0.97806061    -0.00602687    -0.62663181     0.00041615     0.00015151     0.00007384
     6
  Step:    36            Position(A)                                  Velocity(au)
C        -0.03568524     0.04357985    -0.06541723     0.00006941     0.00009194    -0.00109394
N        -0.04405808    -0.08073500     1.37491670     0.00013831    -0.00013923     0.00082886
H         0.87050108    -0.07790467    -0.62597237    -0.00126049    -0.00002091     0.00055212
H         0.81766269    -0.00302726     1.95149668    -0.00076132     0.00041558    -0.00002867
H        -0.88788921     0.01887008     1.86577375    -0.00113399     0.00026547     0.00087115
H        -0.97574615    -0.00510263    -0.62606706     0.00040662     0.00017914     0.00012274
     6
  Step:    37            Position(A)                                  Velocity(au)
C        -0.03532007     0.04408573    -0.07153828     0.00006068     0.00008937    -0.00109611
N        -0.04325394    -0.08151328     1.37955141     0.00014752    -0.00013946     0.00083038
H         0.86382126    -0.07802220    -0.62294062    -0.00111791    -0.00002315     0.00052310
H         0.81332602    -0.00070005     1.95114125    -0.00078019     0.00041950    -0.00008903
H        -0.89462292     0.02037233     1.87082547    -0.00125885     0.00027098     0.00092804
H        -0.97352214    -0.00402744    -0.62526190     0.00038375     0.00020568     0.00015999
     6
  Step:    38            Position(A)                                  Velocity(au)
C        -0.03500800     0.04457722    -0.07764997     0.00005048     0.00008682    -0.00109107
N        -0.04241169    -0.08229137     1.38418382     0.00015194    -0.00013921     0.00082835
H         0.85802504    -0.07816307    -0.62013451    -0.00094509    -0.00002926     0.00047212
H         0.80895567     0.00165437     1.95050310    -0.00077313     0.00042562    -0.00012977
H        -0.90193807     0.02189428     1.87613075    -0.00134226     0.00027243     0.00096219
H        -0.97146342    -0.00280719    -0.62428153     0.00034751     0.00023115     0.00018563
     6
  Step:    39            Position(A)                                  Velocity(au)
C        -0.03475674     0.04505454    -0.08371386     0.00003902     0.00008430    -0.00107937
N        -0.04155840    -0.08306675     1.38879524     0.00015152    -0.00013852     0.00082305
H         0.85327469    -0.07834871    -0.61767208    -0.00074485    -0.00003908     0.00040112
H         0.80469845     0.00404954     1.94969309    -0.00073961     0.00043429    -0.00015064
H        -0.90960161     0.02341249     1.88156287    -0.00138435     0.00026962     0.00097405
H        -0.96964411    -0.00144792    -0.62319034     0.00029818     0.00025559     0.00019989
     6
  Step:    40            Position(A)                                  Velocity(au)
C        -0.03457255     0.04551791    -0.08969484     0.00002662     0.00008181    -0.00106166
N        -0.04072082    -0.08383715     1.39336838     0.00014642    -0.00013745     0.00081472
H         0.84971313    -0.07859921    -0.61565828    -0.00052144    -0.00005226     0.00031291
H         0.80070217     0.00650074     1.94882212    -0.00067997     0.00044579    -0.00015195
H        -0.91738632     0.02490306     1.88700039    -0.00138682     0.00026258     0.00096492
H        -0.96813593     0.00004497    -0.62205096     0.00023637     0.00027906     0.00020318
     6
  Step:    41            Position(A)                                  Velocity(au)
C        -0.03445971     0.04596750    -0.09556163     0.00001366     0.00007933    -0.00103868
N        -0.03992442    -0.08460062     1.39788731     0.00013693    -0.00013605     0.00080364
H         0.84745558    -0.07893191    -0.61418008    -0.00028055    -0.00006819     0.00021109
H         0.79711013     0.00902442     1.94799742    -0.00059556     0.00046026    -0.00013470
H        -0.92507810     0.02634285     1.89233113    -0.00135258     0.00025154     0.00093676
H        -0.96700625     0.00166627    -0.62092293     0.00016308     0.00030160     0.00019619
     6
  Step:    42            Position(A)                                  Velocity(au)
C        -0.03442011     0.04640333    -0.10128722     0.00000061     0.00007684    -0.00101128
N        -0.03919259    -0.08535554     1.40233752     0.00012351    -0.00013439     0.00079009
H         0.84658206    -0.07936021    -0.61330234    -0.00002900    -0.00008607     0.00009990
H         0.79405529     0.01163758     1.94731879    -0.00048878     0.00047775    -0.00010058
H        -0.93248197     0.02771043     1.89745525    -0.00128552     0.00023688     0.00089200
H        -0.96631581     0.00341097    -0.61986138     0.00007971     0.00032326     0.00017983
     6
  Step:    43            Position(A)                                  Velocity(au)
C        -0.03445295     0.04682521    -0.10684933    -0.00001205     0.00007429    -0.00098034
N        -0.03854584    -0.08610063     1.40670609     0.00010673    -0.00013253     0.00077439
H         0.84713189    -0.07989257    -0.61306500     0.00022560    -0.00010496    -0.00001608
H         0.79165450     0.01435697     1.94687480    -0.00036300     0.00049815    -0.00005191
H        -0.93942673     0.02898679     1.90228737    -0.00119019     0.00021907     0.00083334
H        -0.96611652     0.00527442    -0.61891569    -0.00001198     0.00034413     0.00015525
     6
  Step:    44            Position(A)                                  Velocity(au)
C        -0.03455462     0.04723263    -0.11223062    -0.00002382     0.00007162    -0.00094674
N        -0.03800120    -0.08683493     1.41098190     0.00008724    -0.00013052     0.00075688
H         0.84910044    -0.08053186    -0.61348181     0.00047536    -0.00012384    -0.00013218
H         0.79000314     0.01719831     1.94673935    -0.00022252     0.00052119     0.00000840
H        -0.94576786     0.03015592     1.90675776    -0.00107148     0.00019870     0.00076363
H        -0.96644954     0.00725242    -0.61812836    -0.00010992     0.00036429     0.00012375
     6