 Fermi distribution function

Calculation with static geometry


********************************************************************************
 iSCC Total electronic   Diff electronic      SCC error    
   13   -0.52677561E+01   -0.78179152E-08    0.42565547E-06
********************************************************************************

 Total charge:     1.00000000

 Atomic gross charges (e)
 Atom           Charge
    1       0.31215871
    2      -0.20144776
    3       0.17143768
    4       0.25771271
    5       0.27437251
    6       0.18576614

Nr. of electrons (up):     12.00000000
Atom populations (up)
 Atom       Population
    1       3.68784129
    2       5.20144776
    3       0.82856232
    4       0.74228729
    5       0.72562749
    6       0.81423386

l-shell populations (up)
 Atom Sh.   l       Population
    1   1   0       1.40011786
    1   2   1       2.28772343
    2   1   0       1.52346831
    2   2   1       3.67797945
    3   1   0       0.82856232
    4   1   0       0.74228729
    5   1   0       0.72562749
    6   1   0       0.81423386

Orbital populations (up)
 Atom Sh.   l   m       Population  Label
    1   1   0   0       1.40011786  s
    1   2   1  -1       0.42857365  p_y
    1   2   1   0       0.86657857  p_z
    1   2   1   1       0.99257121  p_x
    2   1   0   0       1.52346831  s
    2   2   1  -1       1.34027943  p_y
    2   2   1   0       1.08142588  p_z
    2   2   1   1       1.25627414  p_x
    3   1   0   0       0.82856232  s
    4   1   0   0       0.74228729  s
    5   1   0   0       0.72562749  s
    6   1   0   0       0.81423386  s

Fermi level:                        -0.5154910590 H          -14.0272 eV
Band energy:                        -8.6723629616 H         -235.9870 eV
TS:                                  0.0000000000 H            0.0000 eV
Band free energy (E-TS):            -8.6723629616 H         -235.9870 eV
Extrapolated E(0K):                 -8.6723629616 H         -235.9870 eV
Input / Output electrons (q):     12.0000000000     12.0000000000

Energy H0:                          -5.4047375752 H         -147.0704 eV
Energy SCC:                          0.1369815008 H            3.7275 eV
Total Electronic energy:            -5.2677560744 H         -143.3429 eV
Repulsive energy:                    0.1363222168 H            3.7095 eV
Total energy:                       -5.1314338576 H         -139.6334 eV
Extrapolated to 0:                  -5.1314338576 H         -139.6334 eV
Total Mermin free energy:           -5.1314338576 H         -139.6334 eV
Force related energy:               -5.1314338576 H         -139.6334 eV

SCC converged

Excitation Energy:                   0.0891814592 H            2.4268 eV

Total Forces
    1      0.007000719666      0.001947274039      0.054578483930
    2     -0.020935379743      0.022596078345     -0.055432137774
    3     -0.003950362333      0.007050970932     -0.000670038464
    4      0.001626161000     -0.009960742917      0.007365500596
    5      0.020946405556     -0.009143241953     -0.001005014394
    6     -0.004687544147     -0.012490338446     -0.004836793894

Maximal derivative component:        0.554321E-01 au


