|===============================================================================
|
|  DFTB+ release 20.1
|
|  Copyright (C) 2006 - 2020  DFTB+ developers group
|
|===============================================================================
|
|  When publishing results obtained with DFTB+, please cite the following
|  reference:
|
|  * DFTB+, a software package for efficient approximate density functional
|    theory based atomistic simulations, J. Chem. Phys. 152, 124101 (2020).
|    [doi: 10.1063/1.5143190]
|
|  You should also cite additional publications crediting the parametrization
|  data you use. Please consult the documentation of the SK-files for the
|  references.
|
|===============================================================================

Reading input file 'dftb_in.hsd'
Parser version: 8

--------------------------------------------------------------------------------
Reading SK-files:
Done.


Processed input in HSD format written to 'dftb_pin.hsd'

Starting initialization...
--------------------------------------------------------------------------------
WARNING!
-> Excited state forces are not implemented yet for fractional occupations, kT=  0.3158E-02K
OpenMP threads:              1
Chosen random seed:          506121553
Mode:                        Static calculation
Self consistent charges:     Yes
SCC-tolerance:                 0.100000E-05
Max. scc iterations:                    100
Shell resolved Hubbard:      No
Spin polarisation:           No
Nr. of up electrons:             6.000000
Nr. of down electrons:           6.000000
Periodic boundaries:         No
Electronic solver:           Relatively robust
Mixer:                       Broyden mixer
Mixing parameter:                  0.200000
Maximal SCC-cycles:                     100
Nr. of chrg. vec. in memory:              0
Electronic temperature:        0.100000E-07 H      0.272114E-06 eV
Initial charges:             Set automatically (system chrg:   0.100E+01)
Included shells:             C:  s, p
                             N:  s, p
                             H:  s
Extra options:
                             Mulliken analysis
                             Force calculation
Force type                   original
                             Eigenvector printing

--------------------------------------------------------------------------------

***  Geometry step: 0

 iSCC Total electronic   Diff electronic      SCC error    
    1   -0.52289819E+01    0.00000000E+00    0.10995646E+01
    2   -0.52537979E+01   -0.24815987E-01    0.68434295E+00
    3   -0.52623085E+01   -0.85105645E-02    0.30759708E+00
    4   -0.49343072E+01    0.32800124E+00    0.18092096E+01
    5   -0.52609844E+01   -0.32667718E+00    0.25822351E+00
    6   -0.52676785E+01   -0.66941068E-02    0.28650283E-01
    7   -0.52677130E+01   -0.34546578E-04    0.20479098E-01
    8   -0.52677553E+01   -0.42277388E-04    0.27883648E-02
    9   -0.52677559E+01   -0.54273789E-06    0.15792386E-02
   10   -0.52677557E+01    0.16151030E-06    0.19845083E-02
   11   -0.52677561E+01   -0.34301221E-06    0.51363349E-03
   12   -0.52677561E+01   -0.15626441E-07    0.29613127E-03
   13   -0.52677561E+01   -0.78179152E-08    0.42565547E-06
>> Charges saved for restart in charges.bin

Total Energy:                       -5.0422523984 H         -137.2067 eV
Extrapolated to 0:                  -5.1314338576 H         -139.6334 eV
Total Mermin free energy:           -5.0422523984 H         -137.2067 eV
Force related energy:               -5.1314338576 H         -139.6334 eV

--------------------------------------------------------------------------------
DFTB+ running times                          cpu [s]             wall clock [s]
--------------------------------------------------------------------------------
SCC                                    +     0.01  ( 48.0%)      0.03  ( 65.4%)
Post-SCC processing                    +     0.01  ( 44.9%)      0.01  ( 26.9%)
--------------------------------------------------------------------------------
Missing                                +     0.00  (  7.1%)      0.00  (  7.7%)
Total                                  =     0.02  (100.0%)      0.05  (100.0%)
--------------------------------------------------------------------------------
