|===============================================================================
|
|  DFTB+ release 20.1
|
|  Copyright (C) 2006 - 2020  DFTB+ developers group
|
|===============================================================================
|
|  When publishing results obtained with DFTB+, please cite the following
|  reference:
|
|  * DFTB+, a software package for efficient approximate density functional
|    theory based atomistic simulations, J. Chem. Phys. 152, 124101 (2020).
|    [doi: 10.1063/1.5143190]
|
|  You should also cite additional publications crediting the parametrization
|  data you use. Please consult the documentation of the SK-files for the
|  references.
|
|===============================================================================

Reading input file 'dftb_in.hsd'
Parser version: 8

--------------------------------------------------------------------------------
Reading SK-files:
Done.


Processed input in HSD format written to 'dftb_pin.hsd'

Starting initialization...
--------------------------------------------------------------------------------
OpenMP threads:              1
Chosen random seed:          509978468
Mode:                        Static calculation
Self consistent charges:     Yes
SCC-tolerance:                 0.100000E-05
Max. scc iterations:                   1000
Shell resolved Hubbard:      No
Spin polarisation:           No
Nr. of up electrons:             6.000000
Nr. of down electrons:           6.000000
Periodic boundaries:         No
Electronic solver:           Relatively robust
Maximal SCC-cycles:                    1000
Initial charges:             Set automatically (system chrg:   0.100E+01)
Included shells:             C:  s, p
                             N:  s, p
                             H:  s
Spin coupling constants:     C   1(s)-1(s):  -0.455900E-01
                             C   1(s)-2(p):  -0.293000E-01
                             C   2(p)-1(s):  -0.293000E-01
                             C   2(p)-2(p):  -0.275500E-01
                             N   1(s)-1(s):  -0.468700E-01
                             N   1(s)-2(p):  -0.317000E-01
                             N   2(p)-1(s):  -0.317000E-01
                             N   2(p)-2(p):  -0.307200E-01
                             H   1(s)-1(s):  -0.792500E-01
Range separated hybrid:      Yes
  Screening parameter omega:   0.300000E+00
  Range separated algorithm:   MatrixBased
Extra options:
                             Mulliken analysis
                             Force calculation
Force type                   original
                             Eigenvector printing


REKS Calcuation:             Yes
SSR(2,2) Calcuation:         Yes
Energy Functional:           (PPS+OSS)/2
Number of Core Orbitals:                  5
Number of Active Orbitals:                2
Number of Basis:                         12
Number of States:                         2
State-Averaging Weight:          0.500000
                                 0.500000
State of Interest:                        1
Initial Guess:               Diagonalize H0 matrix
Newton-Raphson for FON opt:  Yes
NR max. Iterations:                      50
Level Shifting:              Yes
Shift Value:                     0.300000
W Scale Factor:              C  =    3.000000
                             N  =    3.000000
                             H  =    3.000000
Transition Dipole:           No
Gradient of Microstate:      No
CP-REKS Solver:              Preconditioned Conjugate-Gradient
CG max. Iterations:                     100
CG Tolerance:                  0.100000E-07
Memory for A and Hxc:        Direct Updating Without Saving
Non-Adiabatic Coupling:      Yes

--------------------------------------------------------------------------------

***  Geometry step: 0

  iSCC       reks energy        Diff energy         x_a       SCC error   
    1       -6.2633113607       0.0000000000     0.998579    1.17657926
    2       -6.2769496111      -0.0136382504     0.999482    0.11009647
    3       -6.2807486375      -0.0037990264     0.999730    0.05194247
    4       -6.2823463367      -0.0015976992     0.999825    0.02655687
    5       -6.2831615796      -0.0008152429     0.999868    0.01448886
    6       -6.2836581064      -0.0004965268     0.999890    0.00812010
    7       -6.2840030951      -0.0003449888     0.999903    0.00576867
    8       -6.2842615471      -0.0002584520     0.999910    0.00540268
    9       -6.2844622998      -0.0002007527     0.999915    0.00494520
   10       -6.2846205124      -0.0001582126     0.999918    0.00446262
   11       -6.2847456198      -0.0001251073     0.999920    0.00398772
   12       -6.2848443310      -0.0000987112     0.999922    0.00353713
   13       -6.2849218370      -0.0000775060     0.999923    0.00317563
   14       -6.2849823307      -0.0000604937     0.999924    0.00290327
   15       -6.2850292529      -0.0000469222     0.999925    0.00263078
   16       -6.2850654292      -0.0000361762     0.999925    0.00236617
   17       -6.2850931642      -0.0000277351     0.999925    0.00211481
   18       -6.2851143197      -0.0000211555     0.999926    0.00188005
   19       -6.2851303833      -0.0000160636     0.999926    0.00166370
   20       -6.2851425317      -0.0000121484     0.999926    0.00146646
   21       -6.2851516870      -0.0000091553     0.999926    0.00128822
   22       -6.2851585656      -0.0000068786     0.999926    0.00112831
   23       -6.2851637199      -0.0000051543     0.999926    0.00098573
   24       -6.2851675733      -0.0000038534     0.999926    0.00085926
   25       -6.2851704483      -0.0000028751     0.999926    0.00074756
   26       -6.2851725898      -0.0000021414     0.999926    0.00064929
   27       -6.2851741824      -0.0000015927     0.999926    0.00056310
   28       -6.2851753654      -0.0000011830     0.999926    0.00048773
   29       -6.2851762431      -0.0000008777     0.999926    0.00042196
   30       -6.2851768937      -0.0000006506     0.999926    0.00036471
   31       -6.2851773756      -0.0000004819     0.999926    0.00031495
   32       -6.2851777322      -0.0000003566     0.999926    0.00027177
   33       -6.2851779960      -0.0000002638     0.999926    0.00023436
   34       -6.2851781910      -0.0000001950     0.999926    0.00020198
   35       -6.2851783351      -0.0000001441     0.999926    0.00017398
   36       -6.2851784415      -0.0000001064     0.999926    0.00014980
   37       -6.2851785201      -0.0000000786     0.999926    0.00012893
   38       -6.2851785781      -0.0000000580     0.999926    0.00011093
   39       -6.2851786209      -0.0000000428     0.999926    0.00009541
   40       -6.2851786525      -0.0000000316     0.999926    0.00008205
   41       -6.2851786758      -0.0000000233     0.999926    0.00007054
   42       -6.2851786930      -0.0000000172     0.999926    0.00006063
   43       -6.2851787056      -0.0000000127     0.999926    0.00005210
   44       -6.2851787150      -0.0000000093     0.999926    0.00004477
   45       -6.2851787219      -0.0000000069     0.999926    0.00003846
   46       -6.2851787269      -0.0000000051     0.999926    0.00003304
   47       -6.2851787307      -0.0000000037     0.999926    0.00002838
   48       -6.2851787334      -0.0000000028     0.999926    0.00002438
   49       -6.2851787355      -0.0000000020     0.999926    0.00002093
   50       -6.2851787370      -0.0000000015     0.999926    0.00001798
   51       -6.2851787381      -0.0000000011     0.999926    0.00001544
   52       -6.2851787389      -0.0000000008     0.999926    0.00001326
   53       -6.2851787395      -0.0000000006     0.999926    0.00001138
   54       -6.2851787399      -0.0000000004     0.999926    0.00000977
   55       -6.2851787403      -0.0000000003     0.999926    0.00000839
   56       -6.2851787405      -0.0000000002     0.999926    0.00000720
   57       -6.2851787407      -0.0000000002     0.999926    0.00000618
   58       -6.2851787408      -0.0000000001     0.999926    0.00000531
   59       -6.2851787409      -0.0000000001     0.999926    0.00000456
   60       -6.2851787410      -0.0000000001     0.999926    0.00000391
   61       -6.2851787410      -0.0000000001     0.999926    0.00000336
   62       -6.2851787411      -0.0000000000     0.999926    0.00000288
   63       -6.2851787411      -0.0000000000     0.999926    0.00000248
   64       -6.2851787411      -0.0000000000     0.999926    0.00000212
   65       -6.2851787411      -0.0000000000     0.999926    0.00000182
   66       -6.2851787411      -0.0000000000     0.999926    0.00000157
   67       -6.2851787411      -0.0000000000     0.999926    0.00000134
   68       -6.2851787412      -0.0000000000     0.999926    0.00000115
   69       -6.2851787412      -0.0000000000     0.999926    0.00000099
  
--------------------------------------------------
 Final SA-REKS(2,2) energy:      -6.28517874
  
 State     Energy      FON(1)    FON(2)   Spin
  PPS   -6.40721920   1.999852  0.000148  0.00
  OSS   -6.16313828   1.000000  1.000000  0.00
 Trip   -6.24538610   1.000000  1.000000  1.00
--------------------------------------------------

 Lagrangian Wab:   0.00863086  0.00863054

--------------------------------------------------
 SSR: 2SI-2SA-REKS(2,2) Hamiltonian matrix
               PPS           OSS
   PPS    -6.40721920    0.01210046
   OSS     0.01210046   -6.16313828
--------------------------------------------------

----------------------------------------------------------------
 SSR: 2SI-2SA-REKS(2,2) states
                    E_n       C_{PPS}    C_{OSS}
 SSR state  1   -6.40781762  -0.998779   0.049394
 SSR state  2   -6.16253986  -0.049394  -0.998779
----------------------------------------------------------------

 unrelaxed SSR FONs for S0:  1.997413  0.002587

Total Energy:                       -6.4078176182 H         -174.3656 eV
Extrapolated to 0:                  -6.4078176182 H         -174.3656 eV

----------------------------------------------------------------------------------
 Solving CP-REKS equation for  1 state vector...
----------------------------------------------------------------------------------
  CG solver: Constructing Y initial guess
  CG solver: Iteration    1    eps =    0.000210069092
  CG solver: Iteration    2    eps =    0.000046685755
  CG solver: Iteration    3    eps =    0.000025895384
  CG solver: Iteration    4    eps =    0.000000989938
  CG solver: Iteration    5    eps =    0.000000015793
  CG solver: Iteration    6    eps =    0.000000011022
  CG solver: Iteration    7    eps =    0.000000000188
  Convergence reached in CG solver after    7 iterations
  CG solver: Calculating converged R, Z, Q2 matrix
----------------------------------------------------------------------------------

----------------------------------------------------------------------------------
 Solving CP-REKS equation for SI between  1 and  2 state vectors...
----------------------------------------------------------------------------------
  CG solver: Constructing Y initial guess
  CG solver: Iteration    1    eps =    0.004857031060
  CG solver: Iteration    2    eps =    0.008104097699
  CG solver: Iteration    3    eps =    0.000821722975
  CG solver: Iteration    4    eps =    0.000011158374
  CG solver: Iteration    5    eps =    0.000001679944
  CG solver: Iteration    6    eps =    0.000000043452
  CG solver: Iteration    7    eps =    0.000000003504
  Convergence reached in CG solver after    7 iterations
  CG solver: Calculating converged R, Z, Q2 matrix
----------------------------------------------------------------------------------

--------------------------------------------------
 Gradient Information
--------------------------------------------------
           1 st state (SSR)
     0.00627763     0.00027804    -0.02007326
    -0.01457804     0.00046783     0.02387151
     0.01373803     0.00045101     0.00654268
     0.01992229     0.00199863    -0.00774882
    -0.01069927    -0.00314742    -0.00752961
    -0.01466064    -0.00004809     0.00493750

           2 st state (SSR)
    -0.00673044    -0.00641953     0.08839661
     0.01569855    -0.00063502    -0.09874621
    -0.01432371     0.00786938     0.02059051
    -0.01722406     0.00047597    -0.01417362
     0.00853456     0.00628612    -0.01546682
     0.01404510    -0.00757693     0.01939954
--------------------------------------------------
 Coupling Information
--------------------------------------------------
 between  1 and  2 states
--------------------------------------------------
 g vector - difference gradient
     0.00667017     0.00354849    -0.05842524
    -0.01595588     0.00068250     0.06477960
     0.01589642    -0.00315373    -0.00667546
     0.02082627     0.00033174     0.00318328
    -0.01136320    -0.00464347     0.00415748
    -0.01607378     0.00323447    -0.00701965

 h vector - derivative coupling
     0.00135394     0.00184852    -0.03957967
    -0.00749716     0.00129464     0.03197252
     0.01812130     0.00578555     0.00386172
     0.02180534    -0.00437032    -0.00045257
    -0.01713676     0.00097262     0.00170866
    -0.01664666    -0.00553100     0.00248936

 G vector - GDV
     0.00650403     0.00334878    -0.05423493
    -0.01513830     0.00055143     0.06130886
     0.01403087    -0.00370918    -0.00702391
     0.01857318     0.00076133     0.00321240
    -0.00961692    -0.00471677     0.00396860
    -0.01435287     0.00376442    -0.00723102

 H vector - DCV - non-adiabatic coupling
     0.00817631     0.00892709    -0.18408196
    -0.03683538     0.00552704     0.15577498
     0.07991486     0.02220402     0.01298211
     0.09684453    -0.01759745    -0.00055561
    -0.07409690     0.00207810     0.00860464
    -0.07400343    -0.02113881     0.00727583
--------------------------------------------------


--------------------------------------------------------------------------------
DFTB+ running times                          cpu [s]             wall clock [s]
--------------------------------------------------------------------------------
SCC                                    +     0.03  ( 71.9%)      0.03  ( 66.0%)
Post-SCC processing                    +     0.01  ( 24.6%)      0.01  ( 24.0%)
  Force calculation                          0.01  ( 24.0%)      0.01  ( 20.0%)
--------------------------------------------------------------------------------
Missing                                +     0.00  (  3.5%)      0.01  ( 10.0%)
Total                                  =     0.04  (100.0%)      0.05  (100.0%)
--------------------------------------------------------------------------------
