|===============================================================================
|
|  DFTB+ release 20.1
|
|  Copyright (C) 2006 - 2020  DFTB+ developers group
|
|===============================================================================
|
|  When publishing results obtained with DFTB+, please cite the following
|  reference:
|
|  * DFTB+, a software package for efficient approximate density functional
|    theory based atomistic simulations, J. Chem. Phys. 152, 124101 (2020).
|    [doi: 10.1063/1.5143190]
|
|  You should also cite additional publications crediting the parametrization
|  data you use. Please consult the documentation of the SK-files for the
|  references.
|
|===============================================================================

Reading input file 'dftb_in.hsd'
Parser version: 8

--------------------------------------------------------------------------------
Reading SK-files:
Done.


Processed input in HSD format written to 'dftb_pin.hsd'

Starting initialization...
--------------------------------------------------------------------------------
OpenMP threads:              1
Chosen random seed:          500809189
Mode:                        Static calculation
Self consistent charges:     Yes
SCC-tolerance:                 0.100000E-05
Max. scc iterations:                   1000
Shell resolved Hubbard:      No
Spin polarisation:           No
Nr. of up electrons:            16.000000
Nr. of down electrons:          16.000000
Periodic boundaries:         No
Electronic solver:           Relatively robust
Maximal SCC-cycles:                    1000
Initial charges:             Set automatically (system chrg:   0.100E+01)
Included shells:             C:  s, p
                             H:  s
                             N:  s, p
Spin coupling constants:     C   1(s)-1(s):  -0.455900E-01
                             C   1(s)-2(p):  -0.293000E-01
                             C   2(p)-1(s):  -0.293000E-01
                             C   2(p)-2(p):  -0.275500E-01
                             H   1(s)-1(s):  -0.792500E-01
                             N   1(s)-1(s):  -0.468700E-01
                             N   1(s)-2(p):  -0.317000E-01
                             N   2(p)-1(s):  -0.317000E-01
                             N   2(p)-2(p):  -0.307200E-01
Range separated hybrid:      Yes
  Screening parameter omega:   0.300000E+00
  Range separated algorithm:   MatrixBased
Extra options:
                             Mulliken analysis
                             Force calculation
Force type                   original
                             Eigenvector printing


REKS Calcuation:             Yes
SSR(2,2) Calcuation:         Yes
Energy Functional:           (PPS+OSS)/2
Number of Core Orbitals:                 15
Number of Active Orbitals:                2
Number of Basis:                         32
Number of States:                         2
State-Averaging Weight:          0.500000
                                 0.500000
State of Interest:                        1
Initial Guess:               Diagonalize H0 matrix
Newton-Raphson for FON opt:  Yes
NR max. Iterations:                      50
Level Shifting:              Yes
Shift Value:                     0.300000
W Scale Factor:              C  =    3.200000
                             H  =    3.200000
                             N  =    3.200000
Transition Dipole:           No
Gradient of Microstate:      No
CP-REKS Solver:              Preconditioned Conjugate-Gradient
CG max. Iterations:                     100
CG Tolerance:                  0.100000E-07
Memory for A and Hxc:        Direct Updating Without Saving
Non-Adiabatic Coupling:      Yes

--------------------------------------------------------------------------------

***  Geometry step: 0

  iSCC       reks energy        Diff energy         x_a       SCC error   
    1      -16.3909553169       0.0000000000     0.986125    1.26340825
    2      -16.4107281392      -0.0197728223     0.998087    0.06540732
    3      -16.4149194670      -0.0041913278     0.999288    0.02601637
    4      -16.4164716741      -0.0015522071     0.999611    0.01586992
    5      -16.4171921948      -0.0007205207     0.999743    0.01066513
    6      -16.4175657523      -0.0003735575     0.999811    0.00750424
    7      -16.4177725845      -0.0002068322     0.999849    0.00540437
    8      -16.4178918447      -0.0001192602     0.999872    0.00394774
    9      -16.4179624561      -0.0000706114     0.999888    0.00291293
   10      -16.4180050538      -0.0000425977     0.999898    0.00216607
   11      -16.4180311217      -0.0000260679     0.999906    0.00173058
   12      -16.4180472603      -0.0000161385     0.999911    0.00138304
   13      -16.4180573500      -0.0000100897     0.999915    0.00110463
   14      -16.4180637121      -0.0000063621     0.999918    0.00088235
   15      -16.4180677541      -0.0000040421     0.999920    0.00070525
   16      -16.4180703398      -0.0000025857     0.999922    0.00056429
   17      -16.4180720042      -0.0000016644     0.999923    0.00045214
   18      -16.4180730818      -0.0000010776     0.999924    0.00036291
   19      -16.4180737833      -0.0000007015     0.999925    0.00029187
   20      -16.4180742424      -0.0000004591     0.999926    0.00023526
   21      -16.4180745443      -0.0000003019     0.999926    0.00019011
   22      -16.4180747440      -0.0000001996     0.999927    0.00015404
   23      -16.4180748766      -0.0000001326     0.999927    0.00012519
   24      -16.4180749652      -0.0000000886     0.999927    0.00010208
   25      -16.4180750247      -0.0000000595     0.999928    0.00008352
   26      -16.4180750649      -0.0000000402     0.999928    0.00006859
   27      -16.4180750922      -0.0000000273     0.999928    0.00005656
   28      -16.4180751109      -0.0000000187     0.999928    0.00004683
   29      -16.4180751238      -0.0000000129     0.999928    0.00003895
   30      -16.4180751327      -0.0000000089     0.999928    0.00003255
   31      -16.4180751390      -0.0000000063     0.999928    0.00002734
   32      -16.4180751434      -0.0000000044     0.999928    0.00002307
   33      -16.4180751466      -0.0000000032     0.999928    0.00001958
   34      -16.4180751488      -0.0000000023     0.999928    0.00001670
   35      -16.4180751505      -0.0000000017     0.999928    0.00001432
   36      -16.4180751517      -0.0000000012     0.999928    0.00001234
   37      -16.4180751526      -0.0000000009     0.999928    0.00001070
   38      -16.4180751533      -0.0000000007     0.999928    0.00000932
   39      -16.4180751539      -0.0000000005     0.999928    0.00000816
   40      -16.4180751543      -0.0000000004     0.999928    0.00000718
   41      -16.4180751546      -0.0000000003     0.999928    0.00000635
   42      -16.4180751548      -0.0000000003     0.999929    0.00000564
   43      -16.4180751550      -0.0000000002     0.999929    0.00000503
   44      -16.4180751552      -0.0000000002     0.999929    0.00000450
   45      -16.4180751553      -0.0000000001     0.999929    0.00000405
   46      -16.4180751554      -0.0000000001     0.999929    0.00000365
   47      -16.4180751555      -0.0000000001     0.999929    0.00000330
   48      -16.4180751556      -0.0000000001     0.999929    0.00000304
   49      -16.4180751557      -0.0000000001     0.999929    0.00000280
   50      -16.4180751557      -0.0000000001     0.999929    0.00000258
   51      -16.4180751558      -0.0000000000     0.999929    0.00000238
   52      -16.4180751558      -0.0000000000     0.999929    0.00000220
   53      -16.4180751558      -0.0000000000     0.999929    0.00000203
   54      -16.4180751559      -0.0000000000     0.999929    0.00000187
   55      -16.4180751559      -0.0000000000     0.999929    0.00000173
   56      -16.4180751559      -0.0000000000     0.999929    0.00000160
   57      -16.4180751559      -0.0000000000     0.999929    0.00000148
   58      -16.4180751559      -0.0000000000     0.999929    0.00000137
   59      -16.4180751560      -0.0000000000     0.999929    0.00000127
   60      -16.4180751560      -0.0000000000     0.999929    0.00000117
   61      -16.4180751560      -0.0000000000     0.999929    0.00000109
   62      -16.4180751560      -0.0000000000     0.999929    0.00000101
   63      -16.4180751560      -0.0000000000     0.999929    0.00000093
  
--------------------------------------------------
 Final SA-REKS(2,2) energy:     -16.41807516
  
 State     Energy      FON(1)    FON(2)   Spin
  PPS  -16.47141813   1.999857  0.000143  0.00
  OSS  -16.36473218   1.000000  1.000000  0.00
 Trip  -16.40745513   1.000000  1.000000  1.00
--------------------------------------------------

 Lagrangian Wab:  -0.01343728 -0.01343786

--------------------------------------------------
 SSR: 2SI-2SA-REKS(2,2) Hamiltonian matrix
               PPS           OSS
   PPS   -16.47141813   -0.01884189
   OSS    -0.01884189  -16.36473218
--------------------------------------------------

----------------------------------------------------------------
 SSR: 2SI-2SA-REKS(2,2) states
                    E_n       C_{PPS}    C_{OSS}
 SSR state  1  -16.47464803  -0.985623  -0.168957
 SSR state  2  -16.36150229   0.168957  -0.985623
----------------------------------------------------------------

 unrelaxed SSR FONs for S0:  1.971315  0.028685

Total Energy:                      -16.4746480255 H         -448.2980 eV
Extrapolated to 0:                 -16.4746480255 H         -448.2980 eV

----------------------------------------------------------------------------------
 Solving CP-REKS equation for  1 state vector...
----------------------------------------------------------------------------------
  CG solver: Constructing Y initial guess
  CG solver: Iteration    1    eps =    0.007133907993
  CG solver: Iteration    2    eps =    0.001098331878
  CG solver: Iteration    3    eps =    0.000498168191
  CG solver: Iteration    4    eps =    0.000228784508
  CG solver: Iteration    5    eps =    0.000004995863
  CG solver: Iteration    6    eps =    0.000004812654
  CG solver: Iteration    7    eps =    0.000000791208
  CG solver: Iteration    8    eps =    0.000000075780
  CG solver: Iteration    9    eps =    0.000000043091
  CG solver: Iteration   10    eps =    0.000000002118
  Convergence reached in CG solver after   10 iterations
  CG solver: Calculating converged R, Z, Q2 matrix
----------------------------------------------------------------------------------

----------------------------------------------------------------------------------
 Solving CP-REKS equation for SI between  1 and  2 state vectors...
----------------------------------------------------------------------------------
  CG solver: Constructing Y initial guess
  CG solver: Iteration    1    eps =    0.048303984642
  CG solver: Iteration    2    eps =    0.007162549560
  CG solver: Iteration    3    eps =    0.005174664837
  CG solver: Iteration    4    eps =    0.001420344147
  CG solver: Iteration    5    eps =    0.000150294578
  CG solver: Iteration    6    eps =    0.000061283455
  CG solver: Iteration    7    eps =    0.000011540975
  CG solver: Iteration    8    eps =    0.000001032177
  CG solver: Iteration    9    eps =    0.000000446365
  CG solver: Iteration   10    eps =    0.000000025087
  CG solver: Iteration   11    eps =    0.000000001814
  Convergence reached in CG solver after   11 iterations
  CG solver: Calculating converged R, Z, Q2 matrix
----------------------------------------------------------------------------------

--------------------------------------------------
 Gradient Information
--------------------------------------------------
           1 st state (SSR)
    -0.02273956    -0.01378376     0.03058936
     0.00505378    -0.00509858     0.03149518
     0.00995502     0.00872360    -0.04255891
     0.00888494     0.01529645    -0.00885908
     0.01237159    -0.00954177     0.02273619
    -0.05485668    -0.07016845    -0.03667910
     0.19438058     0.17137045     0.01027789
    -0.01957318     0.05291120    -0.00761353
    -0.01550270    -0.00935993     0.00933159
    -0.17583068    -0.07495290    -0.00195826
     0.04322324    -0.05295862    -0.00494702
    -0.00108336    -0.01876974     0.00425236
     0.01517578     0.00355695    -0.00518000
     0.00054122     0.00277511    -0.00088668

           2 st state (SSR)
     0.00168185    -0.01300564     0.04349773
    -0.03091896    -0.03593452     0.01103182
     0.00959622     0.00932350    -0.04209578
     0.00893742     0.01661856    -0.00868694
     0.01185283    -0.00389195     0.02300262
     0.06988329    -0.03511326    -0.01392807
     0.06184112     0.11524193    -0.01614349
    -0.01883350     0.05621408    -0.00064289
    -0.02003103    -0.00619706     0.02232277
    -0.09799177    -0.04099178    -0.01438357
     0.04297750    -0.05422659    -0.00021974
    -0.05575282    -0.01329274    -0.00191873
     0.01613053     0.00302654    -0.00066696
     0.00062732     0.00222893    -0.00116878
--------------------------------------------------
 Coupling Information
--------------------------------------------------
 between  1 and  2 states
--------------------------------------------------
 g vector - difference gradient
    -0.00819997     0.00257328    -0.00122918
     0.01704409     0.02605453     0.00578872
    -0.00097677     0.00174123     0.00116393
     0.00200603    -0.00416152    -0.00104209
     0.00146626    -0.00421567    -0.00176605
    -0.10089627    -0.02861289    -0.01425593
     0.10404585     0.04095840     0.01792002
     0.00089745    -0.00451028    -0.00867293
     0.00303978    -0.00180846    -0.00753370
    -0.04958239    -0.02669820     0.01316152
     0.00034672     0.00132054    -0.00295877
     0.02962694    -0.00310695     0.00236805
     0.00044157     0.00141319    -0.00359689
     0.00074072    -0.00094719     0.00065330

 h vector - derivative coupling
    -0.01344789    -0.00845333    -0.01589881
     0.00575090    -0.02747002     0.01433232
     0.00330397    -0.00583018    -0.00399045
    -0.00575800     0.00979679     0.00269182
    -0.00337231     0.00345312     0.00459987
     0.09837959     0.02837880     0.00620468
    -0.09558731    -0.03169357    -0.01106793
    -0.00365120     0.00781053     0.01408909
    -0.00180770     0.00037163     0.00182549
     0.02351603     0.02460062    -0.01860782
    -0.00061267    -0.00183502     0.00127969
    -0.00180369     0.00057369     0.00256021
    -0.00268344    -0.00320459     0.00340788
    -0.00222629     0.00350153    -0.00142604

 G vector - GDV
    -0.01221070    -0.00038906    -0.00645418
     0.01798637     0.01541797     0.01023168
     0.00017940    -0.00029995    -0.00023156
    -0.00002624    -0.00066105    -0.00008607
     0.00025938    -0.00282491    -0.00013321
    -0.06236998    -0.01752759    -0.01137552
     0.06626973     0.02806426     0.01321069
    -0.00036984    -0.00165144    -0.00348532
     0.00226417    -0.00158143    -0.00649559
    -0.03891945    -0.01698056     0.00621266
     0.00012287     0.00063398    -0.00236364
     0.02733473    -0.00273850     0.00308555
    -0.00047738     0.00026520    -0.00225652
    -0.00004305     0.00027309     0.00014105

 H vector - DCV - non-adiabatic coupling
    -0.08793145    -0.07802108    -0.12887557
    -0.00224541    -0.30561719     0.10239962
     0.03040910    -0.05371166    -0.03668085
    -0.05388962     0.09389204     0.02549996
    -0.03241940     0.04118600     0.04353182
     1.11685047     0.32072130     0.09367076
    -1.10285186    -0.38468535    -0.14498457
    -0.03306927     0.07836601     0.14294191
    -0.02401242     0.00842034     0.03738904
     0.34192286     0.28359957    -0.19381164
    -0.00612637    -0.01917936     0.01937378
    -0.10224093     0.01392650     0.01436511
    -0.02366239    -0.03086551     0.03898763
    -0.02073331     0.03196841    -0.01380700
--------------------------------------------------


--------------------------------------------------------------------------------
DFTB+ running times                          cpu [s]             wall clock [s]
--------------------------------------------------------------------------------
SCC                                    +     0.09  ( 22.9%)      0.09  ( 23.0%)
      Dense to sparse                        0.02  (  4.3%)      0.02  (  5.3%)
Post-SCC processing                    +     0.30  ( 76.7%)      0.30  ( 75.7%)
  Force calculation                          0.30  ( 76.6%)      0.30  ( 75.4%)
--------------------------------------------------------------------------------
Missing                                +     0.00  (  0.4%)      0.01  (  1.3%)
Total                                  =     0.39  (100.0%)      0.40  (100.0%)
--------------------------------------------------------------------------------
