|===============================================================================
|
|  DFTB+ release 20.1
|
|  Copyright (C) 2006 - 2020  DFTB+ developers group
|
|===============================================================================
|
|  When publishing results obtained with DFTB+, please cite the following
|  reference:
|
|  * DFTB+, a software package for efficient approximate density functional
|    theory based atomistic simulations, J. Chem. Phys. 152, 124101 (2020).
|    [doi: 10.1063/1.5143190]
|
|  You should also cite additional publications crediting the parametrization
|  data you use. Please consult the documentation of the SK-files for the
|  references.
|
|===============================================================================

Reading input file 'dftb_in.hsd'
Parser version: 8

--------------------------------------------------------------------------------
Reading SK-files:
Done.


Processed input in HSD format written to 'dftb_pin.hsd'

Starting initialization...
--------------------------------------------------------------------------------
WARNING!
-> Excited state forces are not implemented yet for fractional occupations, kT=  0.3158E-02K
OpenMP threads:              1
Chosen random seed:          433866812
Mode:                        Static calculation
Self consistent charges:     Yes
SCC-tolerance:                 0.100000E-05
Max. scc iterations:                    100
Shell resolved Hubbard:      No
Spin polarisation:           No
Nr. of up electrons:             6.000000
Nr. of down electrons:           6.000000
Periodic boundaries:         No
Electronic solver:           Relatively robust
Mixer:                       Broyden mixer
Mixing parameter:                  0.200000
Maximal SCC-cycles:                     100
Nr. of chrg. vec. in memory:              0
Electronic temperature:        0.100000E-07 H      0.272114E-06 eV
Initial charges:             Set automatically (system chrg:   0.100E+01)
Included shells:             C:  s, p
                             N:  s, p
                             H:  s
Extra options:
                             Mulliken analysis
                             Force calculation
Force type                   original
                             Eigenvector printing

--------------------------------------------------------------------------------

***  Geometry step: 0

 iSCC Total electronic   Diff electronic      SCC error    
    1   -0.52261406E+01    0.00000000E+00    0.11047382E+01
    2   -0.52523334E+01   -0.26192787E-01    0.68238765E+00
    3   -0.52603373E+01   -0.80038581E-02    0.32067988E+00
    4   -0.49065811E+01    0.35375621E+00    0.18591122E+01
    5   -0.52594149E+01   -0.35283380E+00    0.26005254E+00
    6   -0.52665270E+01   -0.71121664E-02    0.11594072E-01
    7   -0.52665392E+01   -0.12138816E-04    0.53826310E-02
    8   -0.52665417E+01   -0.25182518E-05    0.80147493E-03
    9   -0.52665404E+01    0.12485188E-05    0.37751307E-02
   10   -0.52665410E+01   -0.56430609E-06    0.27296019E-02
   11   -0.52665416E+01   -0.63918042E-06    0.87101124E-03
   12   -0.52665417E+01   -0.53586598E-07    0.42568241E-03
   13   -0.52665417E+01   -0.16648270E-07    0.45504583E-06
>> Charges saved for restart in charges.bin

Total Energy:                       -5.0399233758 H         -137.1433 eV
Extrapolated to 0:                  -5.1304175362 H         -139.6058 eV
Total Mermin free energy:           -5.0399233758 H         -137.1433 eV
Force related energy:               -5.1304175362 H         -139.6058 eV

--------------------------------------------------------------------------------
DFTB+ running times                          cpu [s]             wall clock [s]
--------------------------------------------------------------------------------
SCC                                    +     0.01  ( 53.2%)      0.03  ( 63.0%)
Post-SCC processing                    +     0.01  ( 40.6%)      0.02  ( 29.6%)
--------------------------------------------------------------------------------
Missing                                +     0.00  (  6.2%)      0.00  (  7.4%)
Total                                  =     0.03  (100.0%)      0.05  (100.0%)
--------------------------------------------------------------------------------
