|===============================================================================
|
|  DFTB+ release 20.1
|
|  Copyright (C) 2006 - 2020  DFTB+ developers group
|
|===============================================================================
|
|  When publishing results obtained with DFTB+, please cite the following
|  reference:
|
|  * DFTB+, a software package for efficient approximate density functional
|    theory based atomistic simulations, J. Chem. Phys. 152, 124101 (2020).
|    [doi: 10.1063/1.5143190]
|
|  You should also cite additional publications crediting the parametrization
|  data you use. Please consult the documentation of the SK-files for the
|  references.
|
|===============================================================================

Reading input file 'dftb_in.hsd'
Parser version: 8

--------------------------------------------------------------------------------
Reading SK-files:
Done.


Processed input in HSD format written to 'dftb_pin.hsd'

Starting initialization...
--------------------------------------------------------------------------------
OpenMP threads:              1
Chosen random seed:          509732220
Mode:                        Static calculation
Self consistent charges:     Yes
SCC-tolerance:                 0.100000E-05
Max. scc iterations:                   1000
Shell resolved Hubbard:      No
Spin polarisation:           No
Nr. of up electrons:             6.000000
Nr. of down electrons:           6.000000
Periodic boundaries:         No
Electronic solver:           Relatively robust
Maximal SCC-cycles:                    1000
Initial charges:             Set automatically (system chrg:   0.100E+01)
Included shells:             C:  s, p
                             N:  s, p
                             H:  s
Spin coupling constants:     C   1(s)-1(s):  -0.455900E-01
                             C   1(s)-2(p):  -0.293000E-01
                             C   2(p)-1(s):  -0.293000E-01
                             C   2(p)-2(p):  -0.275500E-01
                             N   1(s)-1(s):  -0.468700E-01
                             N   1(s)-2(p):  -0.317000E-01
                             N   2(p)-1(s):  -0.317000E-01
                             N   2(p)-2(p):  -0.307200E-01
                             H   1(s)-1(s):  -0.792500E-01
Range separated hybrid:      Yes
  Screening parameter omega:   0.300000E+00
  Range separated algorithm:   MatrixBased
Extra options:
                             Mulliken analysis
                             Force calculation
Force type                   original
                             Eigenvector printing


REKS Calcuation:             Yes
SSR(2,2) Calcuation:         Yes
Energy Functional:           (PPS+OSS)/2
Number of Core Orbitals:                  5
Number of Active Orbitals:                2
Number of Basis:                         12
Number of States:                         2
State-Averaging Weight:          0.500000
                                 0.500000
State of Interest:                        1
Initial Guess:               Diagonalize H0 matrix
Newton-Raphson for FON opt:  Yes
NR max. Iterations:                      50
Level Shifting:              Yes
Shift Value:                     0.300000
W Scale Factor:              C  =    3.000000
                             N  =    3.000000
                             H  =    3.000000
Transition Dipole:           No
Gradient of Microstate:      No
CP-REKS Solver:              Preconditioned Conjugate-Gradient
CG max. Iterations:                     100
CG Tolerance:                  0.100000E-07
Memory for A and Hxc:        Direct Updating Without Saving
Non-Adiabatic Coupling:      Yes

--------------------------------------------------------------------------------

***  Geometry step: 0

  iSCC       reks energy        Diff energy         x_a       SCC error   
    1       -6.2652218967       0.0000000000     0.998880    1.17836086
    2       -6.2779396539      -0.0127177572     0.999558    0.10350164
    3       -6.2816558642      -0.0037162103     0.999758    0.04686431
    4       -6.2834004928      -0.0017446286     0.999841    0.02424596
    5       -6.2843989464      -0.0009984537     0.999880    0.01367482
    6       -6.2850532606      -0.0006543141     0.999901    0.00794557
    7       -6.2855175497      -0.0004642891     0.999913    0.00608559
    8       -6.2858594891      -0.0003419395     0.999921    0.00547956
    9       -6.2861146609      -0.0002551718     0.999926    0.00483220
   10       -6.2863053338      -0.0001906728     0.999929    0.00420529
   11       -6.2864472383      -0.0001419045     0.999931    0.00364809
   12       -6.2865522073      -0.0001049690     0.999933    0.00319559
   13       -6.2866293507      -0.0000771434     0.999934    0.00277629
   14       -6.2866856968      -0.0000563461     0.999935    0.00239562
   15       -6.2867266283      -0.0000409315     0.999935    0.00205548
   16       -6.2867562238      -0.0000295955     0.999936    0.00177833
   17       -6.2867775398      -0.0000213160     0.999936    0.00155560
   18       -6.2867928435      -0.0000153037     0.999936    0.00135391
   19       -6.2868038023      -0.0000109587     0.999936    0.00117330
   20       -6.2868116332      -0.0000078309     0.999936    0.00101303
   21       -6.2868172195      -0.0000055863     0.999936    0.00087186
   22       -6.2868211992      -0.0000039797     0.999936    0.00074829
   23       -6.2868240311      -0.0000028319     0.999936    0.00064068
   24       -6.2868260445      -0.0000020134     0.999936    0.00054738
   25       -6.2868274748      -0.0000014303     0.999936    0.00046680
   26       -6.2868284903      -0.0000010155     0.999936    0.00039744
   27       -6.2868292110      -0.0000007206     0.999936    0.00033790
   28       -6.2868297222      -0.0000005112     0.999935    0.00028691
   29       -6.2868300846      -0.0000003625     0.999935    0.00024335
   30       -6.2868303415      -0.0000002569     0.999935    0.00020620
   31       -6.2868305236      -0.0000001821     0.999935    0.00017457
   32       -6.2868306526      -0.0000001290     0.999935    0.00014767
   33       -6.2868307440      -0.0000000914     0.999935    0.00012484
   34       -6.2868308087      -0.0000000647     0.999935    0.00010548
   35       -6.2868308545      -0.0000000458     0.999935    0.00008907
   36       -6.2868308870      -0.0000000325     0.999935    0.00007518
   37       -6.2868309100      -0.0000000230     0.999935    0.00006343
   38       -6.2868309262      -0.0000000163     0.999935    0.00005349
   39       -6.2868309378      -0.0000000115     0.999935    0.00004510
   40       -6.2868309459      -0.0000000081     0.999935    0.00003802
   41       -6.2868309517      -0.0000000058     0.999935    0.00003204
   42       -6.2868309558      -0.0000000041     0.999935    0.00002699
   43       -6.2868309586      -0.0000000029     0.999935    0.00002273
   44       -6.2868309607      -0.0000000020     0.999935    0.00001915
   45       -6.2868309621      -0.0000000014     0.999935    0.00001612
   46       -6.2868309632      -0.0000000010     0.999935    0.00001358
   47       -6.2868309639      -0.0000000007     0.999935    0.00001143
   48       -6.2868309644      -0.0000000005     0.999935    0.00000962
   49       -6.2868309648      -0.0000000004     0.999935    0.00000810
   50       -6.2868309650      -0.0000000003     0.999935    0.00000682
   51       -6.2868309652      -0.0000000002     0.999935    0.00000574
   52       -6.2868309653      -0.0000000001     0.999935    0.00000483
   53       -6.2868309654      -0.0000000001     0.999935    0.00000406
   54       -6.2868309655      -0.0000000001     0.999935    0.00000342
   55       -6.2868309655      -0.0000000000     0.999935    0.00000288
   56       -6.2868309656      -0.0000000000     0.999935    0.00000242
   57       -6.2868309656      -0.0000000000     0.999935    0.00000204
   58       -6.2868309656      -0.0000000000     0.999935    0.00000171
   59       -6.2868309656      -0.0000000000     0.999935    0.00000144
   60       -6.2868309656      -0.0000000000     0.999935    0.00000121
   61       -6.2868309656      -0.0000000000     0.999935    0.00000102
   62       -6.2868309656      -0.0000000000     0.999935    0.00000086
  
--------------------------------------------------
 Final SA-REKS(2,2) energy:      -6.28683097
  
 State     Energy      FON(1)    FON(2)   Spin
  PPS   -6.40793899   1.999870  0.000130  0.00
  OSS   -6.16572294   1.000000  1.000000  0.00
 Trip   -6.24639385   1.000000  1.000000  1.00
--------------------------------------------------

 Lagrangian Wab:  -0.00631523 -0.00631498

--------------------------------------------------
 SSR: 2SI-2SA-REKS(2,2) Hamiltonian matrix
               PPS           OSS
   PPS    -6.40793899   -0.00885890
   OSS    -0.00885890   -6.16572294
--------------------------------------------------

----------------------------------------------------------------
 SSR: 2SI-2SA-REKS(2,2) states
                    E_n       C_{PPS}    C_{OSS}
 SSR state  1   -6.40826256  -0.999334  -0.036501
 SSR state  2   -6.16539937   0.036501  -0.999334
----------------------------------------------------------------

 unrelaxed SSR FONs for S0:  1.998538  0.001462

Total Energy:                       -6.4082625630 H         -174.3777 eV
Extrapolated to 0:                  -6.4082625630 H         -174.3777 eV

----------------------------------------------------------------------------------
 Solving CP-REKS equation for  1 state vector...
----------------------------------------------------------------------------------
  CG solver: Constructing Y initial guess
  CG solver: Iteration    1    eps =    0.000103872635
  CG solver: Iteration    2    eps =    0.000076781982
  CG solver: Iteration    3    eps =    0.000007146246
  CG solver: Iteration    4    eps =    0.000001108569
  CG solver: Iteration    5    eps =    0.000000026829
  CG solver: Iteration    6    eps =    0.000000005248
  Convergence reached in CG solver after    6 iterations
  CG solver: Calculating converged R, Z, Q2 matrix
----------------------------------------------------------------------------------

----------------------------------------------------------------------------------
 Solving CP-REKS equation for SI between  1 and  2 state vectors...
----------------------------------------------------------------------------------
  CG solver: Constructing Y initial guess
  CG solver: Iteration    1    eps =    0.003092726128
  CG solver: Iteration    2    eps =    0.004840196112
  CG solver: Iteration    3    eps =    0.000473937577
  CG solver: Iteration    4    eps =    0.000009596947
  CG solver: Iteration    5    eps =    0.000001548185
  CG solver: Iteration    6    eps =    0.000000055940
  CG solver: Iteration    7    eps =    0.000000002323
  Convergence reached in CG solver after    7 iterations
  CG solver: Calculating converged R, Z, Q2 matrix
----------------------------------------------------------------------------------

--------------------------------------------------
 Gradient Information
--------------------------------------------------
           1 st state (SSR)
     0.00710578    -0.01297355    -0.01490503
    -0.02976931     0.00345669     0.02246128
     0.01075114    -0.00066404     0.00349987
     0.02149668     0.00066009    -0.00533651
    -0.00047419     0.00491540     0.00002737
    -0.00911010     0.00460540    -0.00574698

           2 st state (SSR)
    -0.01330213    -0.00214453     0.07841591
     0.02756189     0.00985943    -0.08768003
    -0.01264792    -0.01336676     0.01749222
    -0.01657110     0.00436976    -0.01089556
     0.00242683    -0.00509136    -0.01035057
     0.01253244     0.00637346     0.01301803
--------------------------------------------------
 Coupling Information
--------------------------------------------------
 between  1 and  2 states
--------------------------------------------------
 g vector - difference gradient
     0.01024149    -0.00513313    -0.04844469
    -0.02952840    -0.00375253     0.05635837
     0.01281090     0.00595869    -0.00683123
     0.02038710    -0.00161858     0.00274208
    -0.00222969     0.00523098     0.00540777
    -0.01168139    -0.00068543    -0.00923230

 h vector - derivative coupling
    -0.00014041    -0.00404450     0.02268732
     0.01074816     0.00741786    -0.01559262
    -0.01476592     0.00560015    -0.00251052
    -0.01780419    -0.00329750     0.00061345
     0.01059903    -0.00292867    -0.00280156
     0.01136334    -0.00274733    -0.00239607

 G vector - GDV
     0.01020396    -0.00541451    -0.04666047
    -0.02866560    -0.00320137     0.05507065
     0.01169953     0.00635136    -0.00699618
     0.01903389    -0.00185483     0.00277953
    -0.00145051     0.00500338     0.00518897
    -0.01082127    -0.00088403    -0.00938250

 H vector - DCV - non-adiabatic coupling
    -0.00365307    -0.01506710     0.10771946
     0.05300816     0.03158920    -0.08096177
    -0.06448561     0.02120747    -0.00825758
    -0.07923829    -0.01305520     0.00169548
     0.04419545    -0.01359815    -0.01312925
     0.05017336    -0.01107623    -0.00706635
--------------------------------------------------


--------------------------------------------------------------------------------
DFTB+ running times                          cpu [s]             wall clock [s]
--------------------------------------------------------------------------------
SCC                                    +     0.03  ( 70.9%)      0.03  ( 65.2%)
Post-SCC processing                    +     0.01  ( 25.8%)      0.01  ( 23.9%)
  Force calculation                          0.01  ( 25.2%)      0.01  ( 21.7%)
--------------------------------------------------------------------------------
Missing                                +     0.00  (  3.3%)      0.01  ( 10.9%)
Total                                  =     0.04  (100.0%)      0.05  (100.0%)
--------------------------------------------------------------------------------
