 Fermi distribution function

Calculation with static geometry


********************************************************************************
 iSCC Total electronic   Diff electronic      SCC error    
   13   -0.52806750E+01   -0.43180570E-10    0.37580293E-06
********************************************************************************

 Total charge:     1.00000000

 Atomic gross charges (e)
 Atom           Charge
    1       0.28381830
    2      -0.21152315
    3       0.18094831
    4       0.28071514
    5       0.28101594
    6       0.18502546

Nr. of electrons (up):     12.00000000
Atom populations (up)
 Atom       Population
    1       3.71618170
    2       5.21152315
    3       0.81905169
    4       0.71928486
    5       0.71898406
    6       0.81497454

l-shell populations (up)
 Atom Sh.   l       Population
    1   1   0       1.41072038
    1   2   1       2.30546133
    2   1   0       1.48876499
    2   2   1       3.72275816
    3   1   0       0.81905169
    4   1   0       0.71928486
    5   1   0       0.71898406
    6   1   0       0.81497454

Orbital populations (up)
 Atom Sh.   l   m       Population  Label
    1   1   0   0       1.41072038  s
    1   2   1  -1       0.51536381  p_y
    1   2   1   0       0.83535285  p_z
    1   2   1   1       0.95474467  p_x
    2   1   0   0       1.48876499  s
    2   2   1  -1       1.45353269  p_y
    2   2   1   0       1.04178474  p_z
    2   2   1   1       1.22744072  p_x
    3   1   0   0       0.81905169  s
    4   1   0   0       0.71928486  s
    5   1   0   0       0.71898406  s
    6   1   0   0       0.81497454  s

Fermi level:                        -0.4950369707 H          -13.4706 eV
Band energy:                        -8.5960134454 H         -233.9094 eV
TS:                                  0.0000000000 H            0.0000 eV
Band free energy (E-TS):            -8.5960134454 H         -233.9094 eV
Extrapolated E(0K):                 -8.5960134454 H         -233.9094 eV
Input / Output electrons (q):     12.0000000000     12.0000000000

Energy H0:                          -5.4106363800 H         -147.2309 eV
Energy SCC:                          0.1299613418 H            3.5364 eV
Total Electronic energy:            -5.2806750382 H         -143.6945 eV
Repulsive energy:                    0.1346436123 H            3.6638 eV
Total energy:                       -5.1460314259 H         -140.0306 eV
Extrapolated to 0:                  -5.1460314259 H         -140.0306 eV
Total Mermin free energy:           -5.1460314259 H         -140.0306 eV
Force related energy:               -5.1460314259 H         -140.0306 eV

SCC converged

Excitation Energy:                   0.1065754102 H            2.9001 eV

Total Forces
    1      0.002010242883     -0.005853983272      0.057259940733
    2     -0.004234636751     -0.006075038146     -0.059953531185
    3     -0.011012142885     -0.008234977496      0.002414055150
    4     -0.009987927564      0.014134679931      0.003180561113
    5      0.015476739801     -0.004361492623     -0.005695991096
    6      0.007747724517      0.010390811606      0.002794965285

Maximal derivative component:        0.599535E-01 au


