     6
  Step:   120            Position(A)                                  Velocity(au)
C        -0.03502600    -0.02067307    -0.21898093     0.00001856     0.00001809     0.00002385
N        -0.05006003    -0.14463243     1.51833342     0.00006685     0.00001343    -0.00001589
H         0.96211326     0.25578291    -0.61744755     0.00049504    -0.00104825    -0.00025190
H         0.78823432     0.48883341     1.71067714    -0.00067730     0.00058303    -0.00080243
H        -0.90441137     0.31691203     1.83851501    -0.00093279    -0.00076861     0.00029957
H        -0.94585984     0.52488774    -0.52959827    -0.00003510     0.00083174     0.00069135
