     6
  Step:     0            Position(A)                                  Velocity(au)
C        -0.03267640     0.00984459    -0.00327033    -0.00000277    -0.00004592     0.00004553
N        -0.05267773    -0.05850732     1.31207929    -0.00005741    -0.00007386    -0.00000853
H         0.93038043     0.04233451    -0.52063626    -0.00054207     0.00032763     0.00020327
H         0.86711373    -0.10331519     1.86304726     0.00090903     0.00040018     0.00057471
H        -0.88998446     0.00305906     1.84395250     0.00044886     0.00048776    -0.00116599
H        -0.99904487     0.08387363    -0.48846844     0.00001494     0.00035794    -0.00003593
     6
  Step:     1            Position(A)                                  Velocity(au)
C        -0.03268711     0.00959280    -0.00330280    -0.00000153    -0.00004634    -0.00005699
N        -0.05292577    -0.05894187     1.31228052    -0.00003189    -0.00008527     0.00008163
H         0.92745819     0.04421818    -0.51956798    -0.00052138     0.00036234     0.00018515
H         0.87173065    -0.10102393     1.86599959     0.00077082     0.00043864     0.00050002
H        -0.88805608     0.00585605     1.83788239     0.00024441     0.00053738    -0.00104569
H        -0.99909364     0.08594049    -0.48882812    -0.00003257     0.00039873    -0.00009468
     6
  Step:     2            Position(A)                                  Velocity(au)
C        -0.03269309     0.00933783    -0.00389362    -0.00000109    -0.00004711    -0.00015839
N        -0.05302646    -0.05943990     1.31297205    -0.00000389    -0.00009708     0.00017060
H         0.92467845     0.04629721    -0.51861145    -0.00049029     0.00039922     0.00016233
H         0.87554358    -0.09851806     1.86851565     0.00061751     0.00047873     0.00041686
H        -0.88731155     0.00893598     1.83251650     0.00001895     0.00059135    -0.00091107
H        -0.99940110     0.08823428    -0.48950385    -0.00007921     0.00044105    -0.00015137
     6
  Step:     3            Position(A)                                  Velocity(au)
C        -0.03269898     0.00907783    -0.00503436    -0.00000153    -0.00004820    -0.00025797
N        -0.05296829    -0.06000317     1.31414555     0.00002585    -0.00010915     0.00025787
H         0.92209831     0.04858244    -0.51779344    -0.00044872     0.00043792     0.00013441
H         0.87848122    -0.09579044     1.87055667     0.00045285     0.00051986     0.00032777
H        -0.88784896     0.01232065     1.82792255    -0.00022116     0.00064888    -0.00076600
H        -0.99995958     0.09076201    -0.49048286    -0.00012402     0.00048444    -0.00020555
     6
  Step:     4            Position(A)                                  Velocity(au)
C        -0.03270979     0.00881104    -0.00671288    -0.00000290    -0.00004960    -0.00035498
N        -0.05274396    -0.06063272     1.31579017     0.00005651    -0.00012132     0.00034291
H         0.91977466     0.05108295    -0.51714253    -0.00039674     0.00047805     0.00010114
H         0.88049253    -0.09283683     1.87209766     0.00028057     0.00056143     0.00023526
H        -0.88972851     0.01602725     1.82414529    -0.00046844     0.00070895    -0.00061481
H        -1.00075646     0.09352846    -0.49175017    -0.00016613     0.00052843    -0.00025681
     6
  Step:     5            Position(A)                                  Velocity(au)
C        -0.03273072     0.00853583    -0.00891303    -0.00000524    -0.00005128    -0.00044852
N        -0.05235082    -0.06132872     1.31789237     0.00008719    -0.00013339     0.00042510
H         0.91776338     0.05380587    -0.51668832    -0.00033462     0.00051915     0.00006242
H         0.88154690    -0.08965597     1.87312719     0.00010457     0.00060281     0.00014184
H        -0.89296738     0.02006701     1.82120477    -0.00071446     0.00077022    -0.00046213
H        -1.00177475     0.09653593    -0.49328887    -0.00020475     0.00057246    -0.00030477
     6
  Step:     6            Position(A)                                  Velocity(au)
C        -0.03276701     0.00825071    -0.01161402    -0.00000851    -0.00005319    -0.00053756
N        -0.05179123    -0.06209033     1.32043534     0.00011690    -0.00014515     0.00050365
H         0.91611818     0.05675585    -0.51646043    -0.00026292     0.00056062     0.00001838
H         0.88163524    -0.08624978     1.87364759    -0.00007091     0.00064329     0.00005016
H        -0.89753564     0.02444365     1.81909543    -0.00095010     0.00083103    -0.00031271
H        -1.00299377     0.09978395    -0.49508046    -0.00023921     0.00061588    -0.00034910
     6
  Step:     7            Position(A)                                  Velocity(au)
C        -0.03282371     0.00795437    -0.01478956    -0.00001266    -0.00005530    -0.00062088
N        -0.05107292    -0.06291547     1.32339821     0.00014460    -0.00015632     0.00057762
H         0.91488920     0.05993441    -0.51648735    -0.00018256     0.00060172    -0.00003057
H         0.88077178    -0.08262370     1.87367554    -0.00024118     0.00068209    -0.00003698
H        -0.90335365     0.02915166     1.81778632    -0.00116592     0.00088943    -0.00017119
H        -1.00438971     0.10326865    -0.49710511    -0.00026895     0.00065793    -0.00038949
     6
  Step:     8            Position(A)                                  Velocity(au)
C        -0.03290547     0.00764574    -0.01840696    -0.00001757    -0.00005754    -0.00069711
N        -0.05020922    -0.06380064     1.32675492     0.00016923    -0.00016662     0.00064583
H         0.91412083     0.06333915    -0.51679486    -0.00009495     0.00064157    -0.00008370
H         0.87899654    -0.07878713     1.87324303    -0.00040108     0.00071839    -0.00011660
H        -0.91029178     0.03417476     1.81722250    -0.00135275     0.00094322    -0.00004187
H        -1.00593629     0.10698222    -0.49934181    -0.00029352     0.00069772    -0.00042569
     6
  Step:     9            Position(A)                                  Velocity(au)
C        -0.03301620     0.00732405    -0.02242638    -0.00002309    -0.00005985    -0.00076480
N        -0.04921905    -0.06474074     1.33047328     0.00018976    -0.00017571     0.00070701
H         0.91384906     0.06696282    -0.51740431    -0.00000203     0.00067914    -0.00013994
H         0.87637791    -0.07475379     1.87239818    -0.00054502     0.00075130    -0.00018560
H        -0.91817294     0.03948461     1.81732766    -0.00150224     0.00099006     0.00007157
H        -1.00760522     0.11091217    -0.50176850    -0.00031257     0.00073430    -0.00045742
     6
  Step:    10            Position(A)                                  Velocity(au)
C        -0.03315884     0.00698895    -0.02680037    -0.00002898    -0.00006214    -0.00082251
N        -0.04812671    -0.06572900     1.33451409     0.00020525    -0.00018330     0.00075977
H         0.91409850     0.07079249    -0.51833069     0.00009365     0.00071329    -0.00019784
H         0.87301518    -0.07054190     1.87120611    -0.00066714     0.00077999    -0.00024086
H        -0.92677836     0.04504032     1.81800798    -0.00160762     0.00102766     0.00016630
H        -1.00936669     0.11504088    -0.50436187    -0.00032585     0.00076665    -0.00048439
     6
  Step:    11            Position(A)                                  Velocity(au)
C        -0.03333503     0.00664053    -0.03147400    -0.00003500    -0.00006433    -0.00086898
N        -0.04696126    -0.06675703     1.33883067     0.00021497    -0.00018911     0.00080278
H         0.91487922     0.07480898    -0.51958055     0.00018908     0.00074288    -0.00025561
H         0.86903941    -0.06617390     1.86974869    -0.00076183     0.00080379    -0.00027951
H        -0.93585669     0.05078880     1.81915698    -0.00166431     0.00105400     0.00024055
H        -1.01118961     0.11934527    -0.50709678    -0.00033318     0.00079382    -0.00050619
     6
  Step:    12            Position(A)                                  Velocity(au)
C        -0.03354491     0.00627939    -0.03638567    -0.00004085    -0.00006633    -0.00090328
N        -0.04575553    -0.06781502     1.34336909     0.00021839    -0.00019296     0.00083495
H         0.91618418     0.07898679    -0.52115020     0.00028096     0.00076688    -0.00031132
H         0.86461182    -0.06167574     1.86812303    -0.00082429     0.00082225    -0.00029921
H        -0.94513645     0.05666647     1.82066132    -0.00167041     0.00106760     0.00029367
H        -1.01304181     0.12379707    -0.50994535    -0.00033443     0.00081501    -0.00052227
     6
  Step:    13            Position(A)                                  Velocity(au)
C        -0.03378704     0.00590660    -0.04146909    -0.00004625    -0.00006806    -0.00092506
N        -0.04454467    -0.06889217     1.34806962     0.00021538    -0.00019475     0.00085568
H         0.91798813     0.08329473    -0.52302541     0.00036603     0.00078455    -0.00036314
H         0.85991841    -0.05707546     1.86643784    -0.00085121     0.00083534    -0.00029857
H        -0.95434022     0.06260213     1.82240656    -0.00162699     0.00106773     0.00032621
H        -1.01489018     0.12836355    -0.51287584    -0.00032973     0.00082975    -0.00053228
     6
  Step:    14            Position(A)                                  Velocity(au)
C        -0.03405840     0.00552368    -0.04665636    -0.00005095    -0.00006950    -0.00093469
N        -0.04336425    -0.06997732     1.35286953     0.00020614    -0.00019457     0.00086507
H         0.92024810     0.08769749    -0.52518210     0.00044142     0.00079561    -0.00040955
H         0.85516106    -0.05240111     1.86480806    -0.00084132     0.00084354    -0.00027733
H        -0.96320053     0.06852126     1.82428311    -0.00153812     0.00105464     0.00033977
H        -1.01670268     0.13300959    -0.51585515    -0.00031956     0.00083810    -0.00053637
     6
  Step:    15            Position(A)                                  Velocity(au)
C        -0.03435463     0.00513238    -0.05188192    -0.00005477    -0.00007062    -0.00093338
N        -0.04224814    -0.07105977     1.35770687     0.00019130    -0.00019264     0.00086399
H         0.92290580     0.09215818    -0.52758800     0.00050503     0.00080035    -0.00044952
H         0.85054573    -0.04767804     1.86334828    -0.00079564     0.00084788    -0.00023642
H        -0.97147559     0.07435131     1.82619180    -0.00141042     0.00102961     0.00033691
H        -1.01845027     0.13770034    -0.51885122    -0.00030476     0.00084071    -0.00053513
     6
  Step:    16            Position(A)                                  Velocity(au)
C        -0.03467041     0.00473446    -0.05708699    -0.00005760    -0.00007149    -0.00092312
N        -0.04122647    -0.07213016     1.36252479     0.00017175    -0.00018937     0.00085414
H         0.92589192     0.09664152    -0.53020553     0.00055574     0.00079970    -0.00048267
H         0.84626968    -0.04292586     1.86216606    -0.00071738     0.00084998    -0.00017786
H        -0.97896220     0.08002734     1.82804815    -0.00125226     0.00099489     0.00032077
H        -1.02010847     0.14240465    -0.52183532    -0.00028638     0.00083888    -0.00052959
     6
  Step:    17            Position(A)                                  Velocity(au)
C        -0.03499996     0.00433144    -0.06222378    -0.00005945    -0.00007220    -0.00090646
N        -0.04032404    -0.07318133     1.36727586     0.00014857    -0.00018525     0.00083775
H         0.92913180     0.10111733    -0.53299547     0.00059348     0.00079510    -0.00050933
H         0.84250883    -0.03815555     1.86135564    -0.00061150     0.00085184    -0.00010447
H        -0.98550485     0.08549721     1.82978548    -0.00107265     0.00095335     0.00029480
H        -1.02165861     0.14709839    -0.52478433    -0.00026556     0.00083437    -0.00052108
     6
  Step:    18            Position(A)                                  Velocity(au)
C        -0.03533753     0.00392426    -0.06725844    -0.00006038    -0.00007288    -0.00088609
N        -0.03955932    -0.07420887     1.37192514     0.00012288    -0.00018081     0.00081727
H         0.93255133     0.10556339    -0.53592072     0.00061903     0.00078823    -0.00053031
H         0.83940805    -0.03336739     1.86099376    -0.00048386     0.00085554    -0.00001938
H        -0.99099837     0.09072492     1.83135613    -0.00087995     0.00090801     0.00026232
H        -1.02308835     0.15176717    -0.52768236    -0.00024340     0.00082917    -0.00051099
     6
  Step:    19            Position(A)                                  Velocity(au)
C        -0.03567780     0.00351322    -0.07217180    -0.00006047    -0.00007364    -0.00086439
N        -0.03894448    -0.07521121     1.37645127     0.00009564    -0.00017650     0.00079495
H         0.93608159     0.10996669    -0.53894912     0.00063362     0.00078064    -0.00054665
H         0.83707659    -0.02855053     1.86113801    -0.00034047     0.00086294     0.00007428
H        -0.99538392     0.09569130     1.83273045    -0.00068100     0.00086151     0.00022619
H        -1.02439126     0.15640736    -0.53052118    -0.00022077     0.00082507    -0.00050058
     6
  Step:    20            Position(A)                                  Velocity(au)
C        -0.03601601     0.00309793    -0.07695768    -0.00005981    -0.00007458    -0.00084310
N        -0.03848611    -0.07618932     1.38084520     0.00006766    -0.00017265     0.00077245
H         0.93966113     0.11432280    -0.54205464     0.00063844     0.00077343    -0.00055933
H         0.83558769    -0.02368450     1.86182727    -0.00018702     0.00087528     0.00017357
H        -0.99863981     0.10039183     1.83389420    -0.00048074     0.00081578     0.00018872
H        -1.02556562     0.16102519    -0.53329936    -0.00019825     0.00082340    -0.00049074
     6
  Step:    21            Position(A)                                  Velocity(au)
C        -0.03634796     0.00267752    -0.08161926    -0.00005845    -0.00007573    -0.00082315
N        -0.03818633    -0.07714590     1.38510706     0.00003955    -0.00016944     0.00075073
H         0.94323575     0.11863346    -0.54521684     0.00063438     0.00076713    -0.00056902
H         0.83498093    -0.01874237     1.86308299    -0.00002884     0.00089311     0.00027564
H        -1.00077097     0.10483264     1.83484520    -0.00028257     0.00077193     0.00015165
H        -1.02661281     0.16563410    -0.53602029    -0.00017613     0.00082485    -0.00048193
     6
  Step:    22            Position(A)                                  Velocity(au)
C        -0.03666981     0.00225086    -0.08616481    -0.00005643    -0.00007710    -0.00080480
N        -0.03804370    -0.07808458     1.38924228     0.00001187    -0.00016690     0.00073015
H         0.94675684     0.12290339    -0.54841927     0.00062197     0.00076174    -0.00057603
H         0.83526515    -0.01369479     1.86491033     0.00012894     0.00091622     0.00037762
H        -1.00180039     0.10902604     1.83559047    -0.00008897     0.00073044     0.00011635
H        -1.02753572     0.17025138    -0.53868983    -0.00015450     0.00082954    -0.00047421
     6
  Step:    23            Position(A)                                  Velocity(au)
C        -0.03697791     0.00181684    -0.09060382    -0.00005374    -0.00007863    -0.00078783
N        -0.03805382    -0.07900911     1.39325818    -0.00001488    -0.00016496     0.00071063
H         0.95017922     0.12713726    -0.55164748     0.00060146     0.00075683    -0.00058042
H         0.83642034    -0.00851393     1.86729858     0.00028118     0.00094384     0.00047655
H        -1.00176420     0.11298702     1.83614410     0.00009782     0.00069140     0.00008397
H        -1.02833758     0.17489486    -0.54131417    -0.00013332     0.00083714    -0.00046738
     6
  Step:    24            Position(A)                                  Velocity(au)
C        -0.03726868     0.00137458    -0.09494449    -0.00005038    -0.00008027    -0.00077178
N        -0.03820955    -0.07992286     1.39716161    -0.00004018    -0.00016350     0.00069189
H         0.95345957     0.13133762    -0.55488755     0.00057302     0.00075183    -0.00058209
H         0.83839866    -0.00317654     1.87022105     0.00042280     0.00097481     0.00056942
H        -1.00071033     0.11673110     1.83652627     0.00027541     0.00065479     0.00005560
H        -1.02902140     0.17958060    -0.54389834    -0.00011252     0.00084710    -0.00046111
     6
  Step:    25            Position(A)                                  Velocity(au)
C        -0.03753856     0.00092354    -0.09919239    -0.00004636    -0.00008195    -0.00075613
N        -0.03850099    -0.08082855     1.40095774    -0.00006350    -0.00016240     0.00067359
H         0.95655598     0.13550380    -0.55812519     0.00053690     0.00074609    -0.00058094
H         0.84112534     0.00233403     1.87363521     0.00054889     0.00100780     0.00065330
H        -0.99869937     0.12027370     1.83676281     0.00044115     0.00062062     0.00003228
H        -1.02958969     0.18432161    -0.54644553    -0.00009204     0.00085877    -0.00045503
     6
  Step:    26            Position(A)                                  Velocity(au)
C        -0.03778408     0.00046353    -0.10335024    -0.00004171    -0.00008361    -0.00074043
N        -0.03891550    -0.08172821     1.40464981    -0.00008433    -0.00016154     0.00065543
H         0.95942816     0.13963179    -0.56134568     0.00049349     0.00073908    -0.00057689
H         0.84450059     0.00802698     1.87748363     0.00065509     0.00104146     0.00072557
H        -0.99580610     0.12363034     1.83688516     0.00059217     0.00058902     0.00001507
H        -1.03004460     0.18912740    -0.54895680    -0.00007187     0.00087157    -0.00044879
     6
  Step:    27            Position(A)                                  Velocity(au)
C        -0.03800194    -0.00000528    -0.10741818    -0.00003647    -0.00008518    -0.00072433
N        -0.03943784    -0.08262323     1.40823921    -0.00010219    -0.00016084     0.00063716
H         0.96203833     0.14371455    -0.56453413     0.00044339     0.00073034    -0.00057002
H         0.84840306     0.01390403     1.88169588     0.00073783     0.00107450     0.00078408
H        -0.99212071     0.12681734     1.83693027     0.00072550     0.00056026     0.00000497
H        -1.03038809     0.19400426    -0.55143136    -0.00005200     0.00088498    -0.00044212
     6
  Step:    28            Position(A)                                  Velocity(au)
C        -0.03818913    -0.00048242    -0.11139433    -0.00003071    -0.00008662    -0.00070756
N        -0.04005044    -0.08351447     1.41172589    -0.00011672    -0.00016022     0.00061861
H         0.96435227     0.14774265    -0.56767611     0.00038741     0.00071955    -0.00056050
H         0.85269472     0.01995996     1.88619134     0.00079461     0.00110581     0.00082729
H        -0.98774901     0.12985243     1.83694039     0.00083831     0.00053472     0.00000290
H        -1.03062206     0.19895568    -0.55386679    -0.00003247     0.00089862    -0.00043478
     6
  Step:    29            Position(A)                                  Velocity(au)
C        -0.03834297    -0.00096720    -0.11527542    -0.00002450    -0.00008791    -0.00069000
N        -0.04073393    -0.08440246     1.41510870    -0.00012762    -0.00015965     0.00059969
H         0.96634042     0.15170493    -0.57075833     0.00032654     0.00070652    -0.00054866
H         0.85722689     0.02618370     1.89088268     0.00082406     0.00113452     0.00085433
H        -0.98281161     0.13275527     1.83696250     0.00092809     0.00051281     0.00000965
H        -1.03074862     0.20398311    -0.55625945    -0.00001333     0.00091222    -0.00042663
     6
  Step:    30            Position(A)                                  Velocity(au)
C        -0.03846124    -0.00145874    -0.11905734    -0.00001793    -0.00008903    -0.00067160
N        -0.04146771    -0.08528749     1.41838585    -0.00013474    -0.00015910     0.00058033
H         0.96797875     0.15558910    -0.57376933     0.00026188     0.00069114    -0.00053491
H         0.86184647     0.03255959     1.89567932     0.00082598     0.00115999     0.00086497
H        -0.97744185     0.13554754     1.83704751     0.00099289     0.00049489     0.00002579
H        -1.03077014     0.20908661    -0.55860482     0.00000532     0.00092569    -0.00041756
     6
  Step:    31            Position(A)                                  Velocity(au)
C        -0.03854218    -0.00195612    -0.12273563    -0.00001109    -0.00008997    -0.00065235
N        -0.04223064    -0.08616974     1.42155514    -0.00013806    -0.00015857     0.00056055
H         0.96924939     0.15938223    -0.57670020     0.00019460     0.00067335    -0.00051982
H         0.86640203     0.03906901     1.90049089     0.00080127     0.00118191     0.00085959
H        -0.97178238     0.13825259     1.83724902     0.00103144     0.00048123     0.00005171
H        -1.03068949     0.21426582    -0.56089780     0.00002339     0.00093907    -0.00040753
     6
  Step:    32            Position(A)                                  Velocity(au)
C        -0.03858445    -0.00245837    -0.12630582    -0.00000404    -0.00009074    -0.00063230
N        -0.04300178    -0.08704941     1.42461425    -0.00013770    -0.00015808     0.00054033
H         0.97014100     0.16307094    -0.57954525     0.00012591     0.00065312    -0.00050409
H         0.87074966     0.04569213     1.90523045     0.00075179     0.00120031     0.00083909
H        -0.96598120     0.14089463     1.83762202     0.00104326     0.00047187     0.00008749
H        -1.03051020     0.21952084    -0.56313299     0.00004073     0.00095260    -0.00039651
     6
  Step:    33            Position(A)                                  Velocity(au)
C        -0.03858706    -0.00296464    -0.12976335     0.00000318    -0.00009138    -0.00061143
N        -0.04376115    -0.08792668     1.42756062    -0.00013390    -0.00015762     0.00051964
H         0.97064881     0.16664136    -0.58230288     0.00005698     0.00063031    -0.00048855
H         0.87475777     0.05240995     1.90981696     0.00068009     0.00121561     0.00080471
H        -0.96018701     0.14349726     1.83822146     0.00102871     0.00046652     0.00013304
H        -1.03023684     0.22485351    -0.56530487     0.00005707     0.00096680    -0.00038453
     6
  Step:    34            Position(A)                                  Velocity(au)
C        -0.03854915    -0.00347425    -0.13310331     0.00001056    -0.00009193    -0.00058961
N        -0.04449038    -0.08880179     1.43039134    -0.00012701    -0.00015722     0.00049840
H         0.97077448     0.17007838    -0.58497673    -0.00001105     0.00060455    -0.00047441
H         0.87831053     0.05920659     1.91417679     0.00058931     0.00122870     0.00075790
H        -0.95454463     0.14608111     1.83910111     0.00098893     0.00046425     0.00018809
H        -1.02987575     0.23026923    -0.56740800     0.00007195     0.00098265    -0.00037163
     6
  Step:    35            Position(A)                                  Velocity(au)
C        -0.03846959    -0.00398688    -0.13631964     0.00001827    -0.00009250    -0.00056644
N        -0.04517350    -0.08967486     1.43310264    -0.00011757    -0.00015680     0.00047630
H         0.97052591     0.17336374    -0.58757813    -0.00007704     0.00057484    -0.00046364
H         0.88131075     0.06607266     1.91824452     0.00048305     0.00124132     0.00070008
H        -0.94919043     0.14865960     1.84031295     0.00092586     0.00046295     0.00025240
H        -1.02943681     0.23578026    -0.56943728     0.00008426     0.00100209    -0.00035800
     6
  Step:    36            Position(A)                                  Velocity(au)
C        -0.03834597    -0.00450291    -0.13940261     0.00002914    -0.00010157    -0.00058765
N        -0.04579792    -0.09054560     1.43568827    -0.00011572    -0.00016993     0.00049194
H         0.96991776     0.17647114    -0.59013285    -0.00015133     0.00058596    -0.00050175
H         0.88368249     0.07301122     1.92196227     0.00039770     0.00136766     0.00068796
H        -0.94424823     0.15122959     1.84190808     0.00091595     0.00049752     0.00035527
H        -1.02893869     0.24141345    -0.57138928     0.00009855     0.00112060    -0.00037516
     6
  Step:    37            Position(A)                                  Velocity(au)
C        -0.03819688    -0.00508627    -0.14242503     0.00002288    -0.00010660    -0.00051335
N        -0.04638390    -0.09147312     1.43823842    -0.00009335    -0.00016509     0.00043490
H         0.96919369     0.17989532    -0.59304873    -0.00012058     0.00064998    -0.00052366
H         0.88554649     0.08034755     1.92568353     0.00026503     0.00126486     0.00064741
H        -0.93946262     0.15417417     1.84405179     0.00080026     0.00057900     0.00041176
H        -1.02849779     0.24754878    -0.57376065     0.00007979     0.00107054    -0.00046189
     6
  Step:    38            Position(A)                                  Velocity(au)
C        -0.03809142    -0.00568877    -0.14511322     0.00001715    -0.00010801    -0.00047179
N        -0.04683633    -0.09238208     1.44052618    -0.00007023    -0.00016350     0.00040051
H         0.96857642     0.18370165    -0.59595821    -0.00012703     0.00069837    -0.00050373
H         0.88663078     0.08708181     1.92916423     0.00012117     0.00117782     0.00059433
H        -0.93534600     0.15767046     1.84648855     0.00067910     0.00067023     0.00046687
H        -1.02805105     0.25332234    -0.57652747     0.00009837     0.00101266    -0.00050126
     6
  Step:    39            Position(A)                                  Velocity(au)
C        -0.03800613    -0.00628764    -0.14767272     0.00001497    -0.00010705    -0.00045201
N        -0.04716509    -0.09329174     1.44269331    -0.00004872    -0.00016392     0.00038125
H         0.96778072     0.18766324    -0.59865173    -0.00016515     0.00071535    -0.00046574
H         0.88689422     0.09344838     1.93229423    -0.00002638     0.00112309     0.00052639
H        -0.93190903     0.16162912     1.84924477     0.00055500     0.00074402     0.00052752
H        -1.02740358     0.25881251    -0.57933616     0.00013507     0.00097109    -0.00049992
     6
  Step:    40            Position(A)                                  Velocity(au)
C        -0.03792491    -0.00687918    -0.15013973     0.00001470    -0.00010568    -0.00043637
N        -0.04737807    -0.09420498     1.44476577    -0.00002830    -0.00016467     0.00036507
H         0.96673989     0.19165651    -0.60113736    -0.00020986     0.00071724    -0.00042992
H         0.88633741     0.09957094     1.93501789    -0.00017268     0.00108350     0.00045169
H        -0.92917428     0.16594421     1.85235477     0.00042868     0.00080446     0.00059163
H        -1.02654901     0.26412113    -0.58208674     0.00017190     0.00094245    -0.00048679
     6
  Step:    41            Position(A)                                  Velocity(au)
C        -0.03784267    -0.00746251    -0.15252383     0.00001502    -0.00010419    -0.00042208
N        -0.04747970    -0.09512241     1.44675184    -0.00000875    -0.00016549     0.00035017
H         0.96544775     0.19563680    -0.60343114    -0.00025424     0.00071336    -0.00039670
H         0.88497453     0.10549366     1.93731572    -0.00031523     0.00104988     0.00037495
H        -0.92714341     0.17057234     1.85582193     0.00030424     0.00085869     0.00065469
H        -1.02549254     0.26928973    -0.58474776     0.00020783     0.00091935    -0.00046952
     6
  Step:    42            Position(A)                                  Velocity(au)
C        -0.03775799    -0.00803714    -0.15483043     0.00001546    -0.00010264    -0.00040862
N        -0.04747530    -0.09604412     1.44865735     0.00000968    -0.00016629     0.00033626
H         0.96391443     0.19958432    -0.60554601    -0.00029616     0.00070683    -0.00036565
H         0.88283409     0.11123864     1.93918484    -0.00045146     0.00101959     0.00029864
H        -0.92579317     0.17548713     1.85963059     0.00018601     0.00090843     0.00071369
H        -1.02423929     0.27433827    -0.58730471     0.00024281     0.00089902    -0.00045023
     6
  Step:    43            Position(A)                                  Velocity(au)
C        -0.03767091    -0.00860278    -0.15706357     0.00001583    -0.00010103    -0.00039582
N        -0.04737213    -0.09696987     1.45048759     0.00002663    -0.00016702     0.00032326
H         0.96215748     0.20348955    -0.60749340    -0.00033452     0.00069904    -0.00033658
H         0.87995889     0.11682105     1.94063349    -0.00057883     0.00099183     0.00022455
H        -0.92507683     0.18066478     1.86375091     0.00007798     0.00095368     0.00076632
H        -1.02279497     0.27927768    -0.58974973     0.00027665     0.00088023    -0.00042982
     6
  Step:    44            Position(A)                                  Velocity(au)
C        -0.03758221    -0.00915920    -0.15922656     0.00001602    -0.00009938    -0.00038354
N        -0.04717950    -0.09789908     1.45224763     0.00004174    -0.00016761     0.00031115
H         0.96019911     0.20734813    -0.60928423    -0.00036859     0.00069070    -0.00030946
H         0.87640543     0.12225430     1.94167877    -0.00069492     0.00096650     0.00015418
H        -0.92492712     0.18607902     1.86814159    -0.00001648     0.00099382     0.00081068
H        -1.02116667     0.28411446    -0.59207849     0.00030908     0.00086236    -0.00040882
     6