|===============================================================================
|
|  DFTB+ release 20.1
|
|  Copyright (C) 2006 - 2020  DFTB+ developers group
|
|===============================================================================
|
|  When publishing results obtained with DFTB+, please cite the following
|  reference:
|
|  * DFTB+, a software package for efficient approximate density functional
|    theory based atomistic simulations, J. Chem. Phys. 152, 124101 (2020).
|    [doi: 10.1063/1.5143190]
|
|  You should also cite additional publications crediting the parametrization
|  data you use. Please consult the documentation of the SK-files for the
|  references.
|
|===============================================================================

Reading input file 'dftb_in.hsd'
Parser version: 8

--------------------------------------------------------------------------------
Reading SK-files:
Done.


Processed input in HSD format written to 'dftb_pin.hsd'

Starting initialization...
--------------------------------------------------------------------------------
OpenMP threads:              1
Chosen random seed:          451733048
Mode:                        Static calculation
Self consistent charges:     Yes
SCC-tolerance:                 0.100000E-05
Max. scc iterations:                   1000
Shell resolved Hubbard:      No
Spin polarisation:           No
Nr. of up electrons:             6.000000
Nr. of down electrons:           6.000000
Periodic boundaries:         No
Electronic solver:           Relatively robust
Maximal SCC-cycles:                    1000
Initial charges:             Set automatically (system chrg:   0.100E+01)
Included shells:             C:  s, p
                             N:  s, p
                             H:  s
Spin coupling constants:     C   1(s)-1(s):  -0.455900E-01
                             C   1(s)-2(p):  -0.293000E-01
                             C   2(p)-1(s):  -0.293000E-01
                             C   2(p)-2(p):  -0.275500E-01
                             N   1(s)-1(s):  -0.468700E-01
                             N   1(s)-2(p):  -0.317000E-01
                             N   2(p)-1(s):  -0.317000E-01
                             N   2(p)-2(p):  -0.307200E-01
                             H   1(s)-1(s):  -0.792500E-01
Range separated hybrid:      Yes
  Screening parameter omega:   0.300000E+00
  Range separated algorithm:   MatrixBased
Extra options:
                             Mulliken analysis
                             Force calculation
Force type                   original
                             Eigenvector printing


REKS Calcuation:             Yes
SSR(2,2) Calcuation:         Yes
Energy Functional:           (PPS+OSS)/2
Number of Core Orbitals:                  5
Number of Active Orbitals:                2
Number of Basis:                         12
Number of States:                         2
State-Averaging Weight:          0.500000
                                 0.500000
State of Interest:                        2
Initial Guess:               Diagonalize H0 matrix
Newton-Raphson for FON opt:  Yes
NR max. Iterations:                      50
Level Shifting:              Yes
Shift Value:                     0.300000
W Scale Factor:              C  =    3.200000
                             N  =    3.200000
                             H  =    3.200000
Transition Dipole:           No
Gradient of Microstate:      No
CP-REKS Solver:              Preconditioned Conjugate-Gradient
CG max. Iterations:                     100
CG Tolerance:                  0.100000E-07
Memory for A and Hxc:        Direct Updating Without Saving
Non-Adiabatic Coupling:      Yes

--------------------------------------------------------------------------------

***  Geometry step: 0

  iSCC       reks energy        Diff energy         x_a       SCC error   
    1       -6.2463189345       0.0000000000     0.993932    1.15685407
    2       -6.2639463266      -0.0176273921     0.999075    0.12273876
    3       -6.2700167239      -0.0060703973     0.999802    0.07217026
    4       -6.2722934851      -0.0022767612     0.999941    0.03651505
    5       -6.2731160634      -0.0008225783     0.999975    0.01720251
    6       -6.2734141510      -0.0002980876     0.999985    0.00803743
    7       -6.2735286631      -0.0001145121     0.999989    0.00426317
    8       -6.2735763167      -0.0000476536     0.999991    0.00228020
    9       -6.2735977506      -0.0000214339     0.999992    0.00124013
   10       -6.2736080632      -0.0000103126     0.999992    0.00092138
   11       -6.2736133070      -0.0000052438     0.999992    0.00067890
   12       -6.2736160923      -0.0000027852     0.999993    0.00049505
   13       -6.2736176225      -0.0000015302     0.999993    0.00035889
   14       -6.2736184859      -0.0000008634     0.999993    0.00025905
   15       -6.2736189843      -0.0000004984     0.999993    0.00018605
   16       -6.2736192784      -0.0000002942     0.999993    0.00014263
   17       -6.2736194565      -0.0000001780     0.999993    0.00011177
   18       -6.2736195677      -0.0000001112     0.999993    0.00008682
   19       -6.2736196402      -0.0000000725     0.999993    0.00006696
   20       -6.2736196899      -0.0000000497     0.999993    0.00005831
   21       -6.2736197262      -0.0000000363     0.999993    0.00006085
   22       -6.2736197544      -0.0000000283     0.999993    0.00006245
   23       -6.2736197778      -0.0000000234     0.999993    0.00006340
   24       -6.2736197982      -0.0000000204     0.999993    0.00006391
   25       -6.2736198166      -0.0000000185     0.999993    0.00006410
   26       -6.2736198338      -0.0000000172     0.999993    0.00006408
   27       -6.2736198501      -0.0000000163     0.999993    0.00006389
   28       -6.2736198657      -0.0000000156     0.999993    0.00006359
   29       -6.2736198809      -0.0000000151     0.999993    0.00006321
   30       -6.2736198956      -0.0000000147     0.999993    0.00006277
   31       -6.2736199099      -0.0000000143     0.999993    0.00006229
   32       -6.2736199239      -0.0000000140     0.999993    0.00006177
   33       -6.2736199375      -0.0000000137     0.999993    0.00006124
   34       -6.2736199509      -0.0000000134     0.999993    0.00006069
   35       -6.2736199640      -0.0000000131     0.999993    0.00006014
   36       -6.2736199768      -0.0000000128     0.999993    0.00005958
   37       -6.2736199894      -0.0000000126     0.999993    0.00005901
   38       -6.2736200017      -0.0000000123     0.999993    0.00005845
   39       -6.2736200137      -0.0000000121     0.999993    0.00005789
   40       -6.2736200255      -0.0000000118     0.999993    0.00005734
   41       -6.2736200371      -0.0000000116     0.999993    0.00005679
   42       -6.2736200485      -0.0000000114     0.999993    0.00005625
   43       -6.2736200596      -0.0000000111     0.999993    0.00005571
   44       -6.2736200705      -0.0000000109     0.999993    0.00005517
   45       -6.2736200812      -0.0000000107     0.999993    0.00005465
   46       -6.2736200917      -0.0000000105     0.999993    0.00005413
   47       -6.2736201020      -0.0000000103     0.999993    0.00005362
   48       -6.2736201121      -0.0000000101     0.999993    0.00005311
   49       -6.2736201220      -0.0000000099     0.999993    0.00005261
   50       -6.2736201317      -0.0000000097     0.999993    0.00005212
   51       -6.2736201413      -0.0000000095     0.999993    0.00005163
   52       -6.2736201506      -0.0000000094     0.999993    0.00005115
   53       -6.2736201598      -0.0000000092     0.999993    0.00005068
   54       -6.2736201688      -0.0000000090     0.999993    0.00005022
   55       -6.2736201777      -0.0000000088     0.999993    0.00004976
   56       -6.2736201864      -0.0000000087     0.999993    0.00004930
   57       -6.2736201949      -0.0000000085     0.999993    0.00004886
   58       -6.2736202033      -0.0000000084     0.999993    0.00004842
   59       -6.2736202115      -0.0000000082     0.999993    0.00004798
   60       -6.2736202196      -0.0000000081     0.999993    0.00004755
   61       -6.2736202275      -0.0000000079     0.999993    0.00004713
   62       -6.2736202353      -0.0000000078     0.999993    0.00004672
   63       -6.2736202429      -0.0000000077     0.999993    0.00004630
   64       -6.2736202504      -0.0000000075     0.999993    0.00004590
   65       -6.2736202578      -0.0000000074     0.999993    0.00004550
   66       -6.2736202651      -0.0000000073     0.999993    0.00004510
   67       -6.2736202722      -0.0000000071     0.999993    0.00004471
   68       -6.2736202792      -0.0000000070     0.999993    0.00004433
   69       -6.2736202861      -0.0000000069     0.999993    0.00004395
   70       -6.2736202929      -0.0000000068     0.999993    0.00004358
   71       -6.2736202995      -0.0000000067     0.999993    0.00004321
   72       -6.2736203061      -0.0000000065     0.999993    0.00004284
   73       -6.2736203125      -0.0000000064     0.999993    0.00004248
   74       -6.2736203188      -0.0000000063     0.999993    0.00004213
   75       -6.2736203250      -0.0000000062     0.999993    0.00004178
   76       -6.2736203311      -0.0000000061     0.999993    0.00004143
   77       -6.2736203371      -0.0000000060     0.999992    0.00004109
   78       -6.2736203430      -0.0000000059     0.999992    0.00004075
   79       -6.2736203489      -0.0000000058     0.999992    0.00004042
   80       -6.2736203546      -0.0000000057     0.999992    0.00004009
   81       -6.2736203602      -0.0000000056     0.999992    0.00003976
   82       -6.2736203657      -0.0000000055     0.999992    0.00003944
   83       -6.2736203712      -0.0000000054     0.999992    0.00003913
   84       -6.2736203765      -0.0000000054     0.999992    0.00003881
   85       -6.2736203818      -0.0000000053     0.999992    0.00003850
   86       -6.2736203870      -0.0000000052     0.999992    0.00003820
   87       -6.2736203921      -0.0000000051     0.999992    0.00003790
   88       -6.2736203971      -0.0000000050     0.999992    0.00003760
   89       -6.2736204021      -0.0000000049     0.999992    0.00003731
   90       -6.2736204069      -0.0000000049     0.999992    0.00003701
   91       -6.2736204117      -0.0000000048     0.999992    0.00003673
   92       -6.2736204164      -0.0000000047     0.999992    0.00003644
   93       -6.2736204211      -0.0000000046     0.999992    0.00003616
   94       -6.2736204257      -0.0000000046     0.999992    0.00003589
   95       -6.2736204302      -0.0000000045     0.999992    0.00003561
   96       -6.2736204346      -0.0000000044     0.999992    0.00003534
   97       -6.2736204390      -0.0000000044     0.999992    0.00003508
   98       -6.2736204433      -0.0000000043     0.999992    0.00003481
   99       -6.2736204475      -0.0000000042     0.999992    0.00003455
  100       -6.2736204517      -0.0000000042     0.999992    0.00003429
  101       -6.2736204558      -0.0000000041     0.999992    0.00003404
  102       -6.2736204598      -0.0000000040     0.999992    0.00003379
  103       -6.2736204638      -0.0000000040     0.999992    0.00003354
  104       -6.2736204677      -0.0000000039     0.999992    0.00003329
  105       -6.2736204716      -0.0000000039     0.999992    0.00003305
  106       -6.2736204754      -0.0000000038     0.999992    0.00003281
  107       -6.2736204792      -0.0000000038     0.999992    0.00003257
  108       -6.2736204829      -0.0000000037     0.999992    0.00003233
  109       -6.2736204865      -0.0000000037     0.999992    0.00003210
  110       -6.2736204901      -0.0000000036     0.999992    0.00003187
  111       -6.2736204937      -0.0000000035     0.999992    0.00003164
  112       -6.2736204972      -0.0000000035     0.999992    0.00003142
  113       -6.2736205006      -0.0000000034     0.999992    0.00003120
  114       -6.2736205040      -0.0000000034     0.999992    0.00003098
  115       -6.2736205074      -0.0000000033     0.999992    0.00003076
  116       -6.2736205107      -0.0000000033     0.999992    0.00003054
  117       -6.2736205139      -0.0000000033     0.999992    0.00003033
  118       -6.2736205171      -0.0000000032     0.999992    0.00003012
  119       -6.2736205203      -0.0000000032     0.999992    0.00002991
  120       -6.2736205234      -0.0000000031     0.999992    0.00002970
  121       -6.2736205265      -0.0000000031     0.999992    0.00002950
  122       -6.2736205296      -0.0000000030     0.999992    0.00002930
  123       -6.2736205325      -0.0000000030     0.999992    0.00002910
  124       -6.2736205355      -0.0000000030     0.999992    0.00002890
  125       -6.2736205384      -0.0000000029     0.999992    0.00002871
  126       -6.2736205413      -0.0000000029     0.999992    0.00002851
  127       -6.2736205441      -0.0000000028     0.999992    0.00002832
  128       -6.2736205469      -0.0000000028     0.999992    0.00002813
  129       -6.2736205497      -0.0000000028     0.999992    0.00002795
  130       -6.2736205524      -0.0000000027     0.999992    0.00002776
  131       -6.2736205551      -0.0000000027     0.999992    0.00002758
  132       -6.2736205578      -0.0000000027     0.999992    0.00002740
  133       -6.2736205604      -0.0000000026     0.999992    0.00002722
  134       -6.2736205630      -0.0000000026     0.999992    0.00002704
  135       -6.2736205655      -0.0000000025     0.999992    0.00002686
  136       -6.2736205680      -0.0000000025     0.999992    0.00002669
  137       -6.2736205705      -0.0000000025     0.999992    0.00002652
  138       -6.2736205730      -0.0000000025     0.999992    0.00002635
  139       -6.2736205754      -0.0000000024     0.999992    0.00002618
  140       -6.2736205778      -0.0000000024     0.999992    0.00002601
  141       -6.2736205801      -0.0000000024     0.999992    0.00002585
  142       -6.2736205825      -0.0000000023     0.999992    0.00002568
  143       -6.2736205848      -0.0000000023     0.999992    0.00002552
  144       -6.2736205870      -0.0000000023     0.999992    0.00002536
  145       -6.2736205893      -0.0000000022     0.999992    0.00002520
  146       -6.2736205915      -0.0000000022     0.999992    0.00002504
  147       -6.2736205937      -0.0000000022     0.999992    0.00002489
  148       -6.2736205958      -0.0000000022     0.999992    0.00002473
  149       -6.2736205980      -0.0000000021     0.999992    0.00002458
  150       -6.2736206001      -0.0000000021     0.999992    0.00002443
  151       -6.2736206021      -0.0000000021     0.999992    0.00002428
  152       -6.2736206042      -0.0000000021     0.999992    0.00002413
  153       -6.2736206062      -0.0000000020     0.999992    0.00002398
  154       -6.2736206082      -0.0000000020     0.999992    0.00002384
  155       -6.2736206102      -0.0000000020     0.999992    0.00002369
  156       -6.2736206122      -0.0000000020     0.999992    0.00002355
  157       -6.2736206141      -0.0000000019     0.999992    0.00002341
  158       -6.2736206160      -0.0000000019     0.999992    0.00002327
  159       -6.2736206179      -0.0000000019     0.999992    0.00002313
  160       -6.2736206198      -0.0000000019     0.999992    0.00002299
  161       -6.2736206216      -0.0000000018     0.999992    0.00002286
  162       -6.2736206234      -0.0000000018     0.999992    0.00002272
  163       -6.2736206252      -0.0000000018     0.999992    0.00002259
  164       -6.2736206270      -0.0000000018     0.999992    0.00002246
  165       -6.2736206288      -0.0000000018     0.999992    0.00002233
  166       -6.2736206305      -0.0000000017     0.999992    0.00002220
  167       -6.2736206322      -0.0000000017     0.999992    0.00002207
  168       -6.2736206339      -0.0000000017     0.999992    0.00002194
  169       -6.2736206356      -0.0000000017     0.999992    0.00002181
  170       -6.2736206372      -0.0000000017     0.999992    0.00002169
  171       -6.2736206389      -0.0000000016     0.999992    0.00002157
  172       -6.2736206405      -0.0000000016     0.999992    0.00002144
  173       -6.2736206421      -0.0000000016     0.999992    0.00002132
  174       -6.2736206437      -0.0000000016     0.999992    0.00002120
  175       -6.2736206452      -0.0000000016     0.999992    0.00002108
  176       -6.2736206468      -0.0000000015     0.999992    0.00002096
  177       -6.2736206483      -0.0000000015     0.999992    0.00002084
  178       -6.2736206498      -0.0000000015     0.999992    0.00002073
  179       -6.2736206513      -0.0000000015     0.999992    0.00002061
  180       -6.2736206528      -0.0000000015     0.999992    0.00002050
  181       -6.2736206543      -0.0000000015     0.999992    0.00002039
  182       -6.2736206557      -0.0000000014     0.999992    0.00002027
  183       -6.2736206571      -0.0000000014     0.999992    0.00002016
  184       -6.2736206586      -0.0000000014     0.999992    0.00002005
  185       -6.2736206600      -0.0000000014     0.999992    0.00001994
  186       -6.2736206613      -0.0000000014     0.999992    0.00001983
  187       -6.2736206627      -0.0000000014     0.999992    0.00001973
  188       -6.2736206641      -0.0000000014     0.999992    0.00001962
  189       -6.2736206654      -0.0000000013     0.999992    0.00001951
  190       -6.2736206667      -0.0000000013     0.999992    0.00001941
  191       -6.2736206680      -0.0000000013     0.999992    0.00001931
  192       -6.2736206693      -0.0000000013     0.999992    0.00001920
  193       -6.2736206706      -0.0000000013     0.999992    0.00001910
  194       -6.2736206719      -0.0000000013     0.999992    0.00001900
  195       -6.2736206731      -0.0000000013     0.999992    0.00001890
  196       -6.2736206744      -0.0000000012     0.999992    0.00001880
  197       -6.2736206756      -0.0000000012     0.999992    0.00001870
  198       -6.2736206768      -0.0000000012     0.999992    0.00001860
  199       -6.2736206780      -0.0000000012     0.999992    0.00001851
  200       -6.2736206792      -0.0000000012     0.999992    0.00001841
  201       -6.2736206804      -0.0000000012     0.999992    0.00001832
  202       -6.2736206816      -0.0000000012     0.999992    0.00001822
  203       -6.2736206827      -0.0000000012     0.999992    0.00001813
  204       -6.2736206839      -0.0000000011     0.999992    0.00001803
  205       -6.2736206850      -0.0000000011     0.999992    0.00001794
  206       -6.2736206861      -0.0000000011     0.999992    0.00001785
  207       -6.2736206872      -0.0000000011     0.999992    0.00001776
  208       -6.2736206883      -0.0000000011     0.999992    0.00001767
  209       -6.2736206894      -0.0000000011     0.999992    0.00001758
  210       -6.2736206905      -0.0000000011     0.999992    0.00001749
  211       -6.2736206915      -0.0000000011     0.999992    0.00001740
  212       -6.2736206926      -0.0000000011     0.999992    0.00001732
  213       -6.2736206936      -0.0000000010     0.999992    0.00001723
  214       -6.2736206947      -0.0000000010     0.999992    0.00001715
  215       -6.2736206957      -0.0000000010     0.999992    0.00001706
  216       -6.2736206967      -0.0000000010     0.999992    0.00001698
  217       -6.2736206977      -0.0000000010     0.999992    0.00001689
  218       -6.2736206987      -0.0000000010     0.999992    0.00001681
  219       -6.2736206997      -0.0000000010     0.999992    0.00001673
  220       -6.2736207007      -0.0000000010     0.999992    0.00001665
  221       -6.2736207016      -0.0000000010     0.999992    0.00001657
  222       -6.2736207026      -0.0000000010     0.999992    0.00001648
  223       -6.2736207035      -0.0000000009     0.999992    0.00001641
  224       -6.2736207045      -0.0000000009     0.999992    0.00001633
  225       -6.2736207054      -0.0000000009     0.999992    0.00001625
  226       -6.2736207063      -0.0000000009     0.999992    0.00001617
  227       -6.2736207072      -0.0000000009     0.999992    0.00001609
  228       -6.2736207081      -0.0000000009     0.999992    0.00001602
  229       -6.2736207090      -0.0000000009     0.999992    0.00001594
  230       -6.2736207099      -0.0000000009     0.999992    0.00001587
  231       -6.2736207108      -0.0000000009     0.999992    0.00001579
  232       -6.2736207116      -0.0000000009     0.999992    0.00001572
  233       -6.2736207125      -0.0000000009     0.999992    0.00001564
  234       -6.2736207133      -0.0000000009     0.999992    0.00001557
  235       -6.2736207142      -0.0000000008     0.999992    0.00001550
  236       -6.2736207150      -0.0000000008     0.999992    0.00001542
  237       -6.2736207158      -0.0000000008     0.999992    0.00001535
  238       -6.2736207167      -0.0000000008     0.999992    0.00001528
  239       -6.2736207175      -0.0000000008     0.999992    0.00001521
  240       -6.2736207183      -0.0000000008     0.999992    0.00001514
  241       -6.2736207191      -0.0000000008     0.999992    0.00001507
  242       -6.2736207199      -0.0000000008     0.999992    0.00001500
  243       -6.2736207206      -0.0000000008     0.999992    0.00001494
  244       -6.2736207214      -0.0000000008     0.999992    0.00001487
  245       -6.2736207222      -0.0000000008     0.999992    0.00001480
  246       -6.2736207229      -0.0000000008     0.999992    0.00001473
  247       -6.2736207237      -0.0000000008     0.999992    0.00001467
  248       -6.2736207244      -0.0000000007     0.999992    0.00001460
  249       -6.2736207252      -0.0000000007     0.999992    0.00001454
  250       -6.2736207259      -0.0000000007     0.999992    0.00001447
  251       -6.2736207266      -0.0000000007     0.999992    0.00001441
  252       -6.2736207274      -0.0000000007     0.999992    0.00001434
  253       -6.2736207281      -0.0000000007     0.999992    0.00001428
  254       -6.2736207288      -0.0000000007     0.999992    0.00001422
  255       -6.2736207295      -0.0000000007     0.999992    0.00001416
  256       -6.2736207302      -0.0000000007     0.999992    0.00001409
  257       -6.2736207309      -0.0000000007     0.999992    0.00001403
  258       -6.2736207316      -0.0000000007     0.999992    0.00001397
  259       -6.2736207322      -0.0000000007     0.999992    0.00001391
  260       -6.2736207329      -0.0000000007     0.999992    0.00001385
  261       -6.2736207336      -0.0000000007     0.999992    0.00001379
  262       -6.2736207342      -0.0000000007     0.999992    0.00001373
  263       -6.2736207349      -0.0000000007     0.999992    0.00001367
  264       -6.2736207355      -0.0000000006     0.999992    0.00001361
  265       -6.2736207362      -0.0000000006     0.999992    0.00001356
  266       -6.2736207368      -0.0000000006     0.999992    0.00001350
  267       -6.2736207375      -0.0000000006     0.999992    0.00001344
  268       -6.2736207381      -0.0000000006     0.999992    0.00001338
  269       -6.2736207387      -0.0000000006     0.999992    0.00001333
  270       -6.2736207393      -0.0000000006     0.999992    0.00001327
  271       -6.2736207399      -0.0000000006     0.999992    0.00001322
  272       -6.2736207405      -0.0000000006     0.999992    0.00001316
  273       -6.2736207411      -0.0000000006     0.999992    0.00001311
  274       -6.2736207417      -0.0000000006     0.999992    0.00001305
  275       -6.2736207423      -0.0000000006     0.999992    0.00001300
  276       -6.2736207429      -0.0000000006     0.999992    0.00001294
  277       -6.2736207435      -0.0000000006     0.999992    0.00001289
  278       -6.2736207441      -0.0000000006     0.999992    0.00001284
  279       -6.2736207446      -0.0000000006     0.999992    0.00001278
  280       -6.2736207452      -0.0000000006     0.999992    0.00001273
  281       -6.2736207458      -0.0000000006     0.999992    0.00001268
  282       -6.2736207463      -0.0000000006     0.999992    0.00001263
  283       -6.2736207469      -0.0000000006     0.999992    0.00001258
  284       -6.2736207474      -0.0000000005     0.999992    0.00001253
  285       -6.2736207480      -0.0000000005     0.999992    0.00001248
  286       -6.2736207485      -0.0000000005     0.999992    0.00001243
  287       -6.2736207491      -0.0000000005     0.999992    0.00001238
  288       -6.2736207496      -0.0000000005     0.999992    0.00001233
  289       -6.2736207501      -0.0000000005     0.999992    0.00001228
  290       -6.2736207506      -0.0000000005     0.999992    0.00001223
  291       -6.2736207512      -0.0000000005     0.999992    0.00001218
  292       -6.2736207517      -0.0000000005     0.999992    0.00001213
  293       -6.2736207522      -0.0000000005     0.999992    0.00001208
  294       -6.2736207527      -0.0000000005     0.999992    0.00001204
  295       -6.2736207532      -0.0000000005     0.999992    0.00001199
  296       -6.2736207537      -0.0000000005     0.999992    0.00001194
  297       -6.2736207542      -0.0000000005     0.999992    0.00001190
  298       -6.2736207547      -0.0000000005     0.999992    0.00001185
  299       -6.2736207552      -0.0000000005     0.999992    0.00001180
  300       -6.2736207557      -0.0000000005     0.999992    0.00001176
  301       -6.2736207561      -0.0000000005     0.999992    0.00001171
  302       -6.2736207566      -0.0000000005     0.999992    0.00001167
  303       -6.2736207571      -0.0000000005     0.999992    0.00001162
  304       -6.2736207576      -0.0000000005     0.999992    0.00001158
  305       -6.2736207580      -0.0000000005     0.999992    0.00001154
  306       -6.2736207585      -0.0000000005     0.999992    0.00001149
  307       -6.2736207589      -0.0000000005     0.999992    0.00001145
  308       -6.2736207594      -0.0000000005     0.999992    0.00001140
  309       -6.2736207598      -0.0000000005     0.999992    0.00001136
  310       -6.2736207603      -0.0000000004     0.999992    0.00001132
  311       -6.2736207607      -0.0000000004     0.999992    0.00001128
  312       -6.2736207612      -0.0000000004     0.999992    0.00001123
  313       -6.2736207616      -0.0000000004     0.999992    0.00001119
  314       -6.2736207620      -0.0000000004     0.999992    0.00001115
  315       -6.2736207625      -0.0000000004     0.999992    0.00001111
  316       -6.2736207629      -0.0000000004     0.999992    0.00001107
  317       -6.2736207633      -0.0000000004     0.999992    0.00001103
  318       -6.2736207638      -0.0000000004     0.999992    0.00001099
  319       -6.2736207642      -0.0000000004     0.999992    0.00001095
  320       -6.2736207646      -0.0000000004     0.999992    0.00001091
  321       -6.2736207650      -0.0000000004     0.999992    0.00001087
  322       -6.2736207654      -0.0000000004     0.999992    0.00001083
  323       -6.2736207658      -0.0000000004     0.999992    0.00001079
  324       -6.2736207662      -0.0000000004     0.999992    0.00001075
  325       -6.2736207666      -0.0000000004     0.999992    0.00001071
  326       -6.2736207670      -0.0000000004     0.999992    0.00001067
  327       -6.2736207674      -0.0000000004     0.999992    0.00001063
  328       -6.2736207678      -0.0000000004     0.999992    0.00001059
  329       -6.2736207682      -0.0000000004     0.999992    0.00001056
  330       -6.2736207686      -0.0000000004     0.999992    0.00001052
  331       -6.2736207690      -0.0000000004     0.999992    0.00001048
  332       -6.2736207693      -0.0000000004     0.999992    0.00001044
  333       -6.2736207697      -0.0000000004     0.999992    0.00001041
  334       -6.2736207701      -0.0000000004     0.999992    0.00001037
  335       -6.2736207705      -0.0000000004     0.999992    0.00001033
  336       -6.2736207708      -0.0000000004     0.999992    0.00001030
  337       -6.2736207712      -0.0000000004     0.999992    0.00001026
  338       -6.2736207716      -0.0000000004     0.999992    0.00001023
  339       -6.2736207719      -0.0000000004     0.999992    0.00001019
  340       -6.2736207723      -0.0000000004     0.999992    0.00001016
  341       -6.2736207727      -0.0000000004     0.999992    0.00001012
  342       -6.2736207730      -0.0000000004     0.999992    0.00001009
  343       -6.2736207734      -0.0000000004     0.999992    0.00001005
  344       -6.2736207737      -0.0000000004     0.999992    0.00001002
  345       -6.2736207741      -0.0000000003     0.999992    0.00000998
  346       -6.2736207744      -0.0000000003     0.999992    0.00000995
  347       -6.2736207748      -0.0000000003     0.999992    0.00000991
  348       -6.2736207751      -0.0000000003     0.999992    0.00000988
  349       -6.2736207754      -0.0000000003     0.999992    0.00000985
  350       -6.2736207758      -0.0000000003     0.999992    0.00000981
  351       -6.2736207761      -0.0000000003     0.999992    0.00000978
  352       -6.2736207764      -0.0000000003     0.999992    0.00000975
  353       -6.2736207768      -0.0000000003     0.999992    0.00000972
  354       -6.2736207771      -0.0000000003     0.999992    0.00000968
  355       -6.2736207774      -0.0000000003     0.999992    0.00000965
  356       -6.2736207777      -0.0000000003     0.999992    0.00000962
  357       -6.2736207781      -0.0000000003     0.999992    0.00000959
  358       -6.2736207784      -0.0000000003     0.999992    0.00000955
  359       -6.2736207787      -0.0000000003     0.999992    0.00000952
  360       -6.2736207790      -0.0000000003     0.999992    0.00000949
  361       -6.2736207793      -0.0000000003     0.999992    0.00000946
  362       -6.2736207796      -0.0000000003     0.999992    0.00000943
  363       -6.2736207799      -0.0000000003     0.999992    0.00000940
  364       -6.2736207802      -0.0000000003     0.999992    0.00000937
  365       -6.2736207805      -0.0000000003     0.999992    0.00000934
  366       -6.2736207809      -0.0000000003     0.999992    0.00000931
  367       -6.2736207812      -0.0000000003     0.999992    0.00000928
  368       -6.2736207814      -0.0000000003     0.999992    0.00000925
  369       -6.2736207817      -0.0000000003     0.999992    0.00000922
  370       -6.2736207820      -0.0000000003     0.999992    0.00000919
  371       -6.2736207823      -0.0000000003     0.999992    0.00000916
  372       -6.2736207826      -0.0000000003     0.999992    0.00000913
  373       -6.2736207829      -0.0000000003     0.999992    0.00000910
  374       -6.2736207832      -0.0000000003     0.999992    0.00000907
  375       -6.2736207835      -0.0000000003     0.999992    0.00000904
  376       -6.2736207838      -0.0000000003     0.999992    0.00000901
  377       -6.2736207840      -0.0000000003     0.999992    0.00000899
  378       -6.2736207843      -0.0000000003     0.999992    0.00000896
  379       -6.2736207846      -0.0000000003     0.999992    0.00000893
  380       -6.2736207849      -0.0000000003     0.999992    0.00000890
  381       -6.2736207852      -0.0000000003     0.999992    0.00000887
  382       -6.2736207854      -0.0000000003     0.999992    0.00000885
  383       -6.2736207857      -0.0000000003     0.999992    0.00000882
  384       -6.2736207860      -0.0000000003     0.999992    0.00000879
  385       -6.2736207862      -0.0000000003     0.999992    0.00000876
  386       -6.2736207865      -0.0000000003     0.999992    0.00000874
  387       -6.2736207868      -0.0000000003     0.999992    0.00000871
  388       -6.2736207870      -0.0000000003     0.999992    0.00000868
  389       -6.2736207873      -0.0000000003     0.999992    0.00000866
  390       -6.2736207876      -0.0000000003     0.999992    0.00000863
  391       -6.2736207878      -0.0000000003     0.999992    0.00000860
  392       -6.2736207881      -0.0000000003     0.999992    0.00000858
  393       -6.2736207883      -0.0000000003     0.999992    0.00000855
  394       -6.2736207886      -0.0000000003     0.999992    0.00000853
  395       -6.2736207888      -0.0000000003     0.999992    0.00000850
  396       -6.2736207891      -0.0000000003     0.999992    0.00000848
  397       -6.2736207893      -0.0000000002     0.999992    0.00000845
  398       -6.2736207896      -0.0000000002     0.999992    0.00000843
  399       -6.2736207898      -0.0000000002     0.999992    0.00000840
  400       -6.2736207901      -0.0000000002     0.999992    0.00000837
  401       -6.2736207903      -0.0000000002     0.999992    0.00000835
  402       -6.2736207906      -0.0000000002     0.999992    0.00000833
  403       -6.2736207908      -0.0000000002     0.999992    0.00000830
  404       -6.2736207910      -0.0000000002     0.999992    0.00000828
  405       -6.2736207913      -0.0000000002     0.999992    0.00000825
  406       -6.2736207915      -0.0000000002     0.999992    0.00000823
  407       -6.2736207917      -0.0000000002     0.999992    0.00000820
  408       -6.2736207920      -0.0000000002     0.999992    0.00000818
  409       -6.2736207922      -0.0000000002     0.999992    0.00000816
  410       -6.2736207924      -0.0000000002     0.999992    0.00000813
  411       -6.2736207927      -0.0000000002     0.999992    0.00000811
  412       -6.2736207929      -0.0000000002     0.999992    0.00000809
  413       -6.2736207931      -0.0000000002     0.999992    0.00000806
  414       -6.2736207933      -0.0000000002     0.999992    0.00000804
  415       -6.2736207936      -0.0000000002     0.999992    0.00000802
  416       -6.2736207938      -0.0000000002     0.999992    0.00000799
  417       -6.2736207940      -0.0000000002     0.999992    0.00000797
  418       -6.2736207942      -0.0000000002     0.999992    0.00000795
  419       -6.2736207944      -0.0000000002     0.999992    0.00000793
  420       -6.2736207947      -0.0000000002     0.999992    0.00000790
  421       -6.2736207949      -0.0000000002     0.999992    0.00000788
  422       -6.2736207951      -0.0000000002     0.999992    0.00000786
  423       -6.2736207953      -0.0000000002     0.999992    0.00000784
  424       -6.2736207955      -0.0000000002     0.999992    0.00000782
  425       -6.2736207957      -0.0000000002     0.999992    0.00000779
  426       -6.2736207959      -0.0000000002     0.999992    0.00000777
  427       -6.2736207962      -0.0000000002     0.999992    0.00000775
  428       -6.2736207964      -0.0000000002     0.999992    0.00000773
  429       -6.2736207966      -0.0000000002     0.999992    0.00000771
  430       -6.2736207968      -0.0000000002     0.999992    0.00000769
  431       -6.2736207970      -0.0000000002     0.999992    0.00000767
  432       -6.2736207972      -0.0000000002     0.999992    0.00000764
  433       -6.2736207974      -0.0000000002     0.999992    0.00000762
  434       -6.2736207976      -0.0000000002     0.999992    0.00000760
  435       -6.2736207978      -0.0000000002     0.999992    0.00000758
  436       -6.2736207980      -0.0000000002     0.999992    0.00000756
  437       -6.2736207982      -0.0000000002     0.999992    0.00000754
  438       -6.2736207984      -0.0000000002     0.999992    0.00000752
  439       -6.2736207986      -0.0000000002     0.999992    0.00000750
  440       -6.2736207988      -0.0000000002     0.999992    0.00000748
  441       -6.2736207990      -0.0000000002     0.999992    0.00000746
  442       -6.2736207992      -0.0000000002     0.999992    0.00000744
  443       -6.2736207994      -0.0000000002     0.999992    0.00000742
  444       -6.2736207995      -0.0000000002     0.999992    0.00000740
  445       -6.2736207997      -0.0000000002     0.999992    0.00000738
  446       -6.2736207999      -0.0000000002     0.999992    0.00000736
  447       -6.2736208001      -0.0000000002     0.999992    0.00000734
  448       -6.2736208003      -0.0000000002     0.999992    0.00000732
  449       -6.2736208005      -0.0000000002     0.999992    0.00000730
  450       -6.2736208007      -0.0000000002     0.999992    0.00000728
  451       -6.2736208008      -0.0000000002     0.999992    0.00000727
  452       -6.2736208010      -0.0000000002     0.999992    0.00000725
  453       -6.2736208012      -0.0000000002     0.999992    0.00000723
  454       -6.2736208014      -0.0000000002     0.999992    0.00000721
  455       -6.2736208016      -0.0000000002     0.999992    0.00000719
  456       -6.2736208018      -0.0000000002     0.999992    0.00000717
  457       -6.2736208019      -0.0000000002     0.999992    0.00000715
  458       -6.2736208021      -0.0000000002     0.999992    0.00000713
  459       -6.2736208023      -0.0000000002     0.999992    0.00000712
  460       -6.2736208025      -0.0000000002     0.999992    0.00000710
  461       -6.2736208026      -0.0000000002     0.999992    0.00000708
  462       -6.2736208028      -0.0000000002     0.999992    0.00000706
  463       -6.2736208030      -0.0000000002     0.999992    0.00000704
  464       -6.2736208032      -0.0000000002     0.999992    0.00000703
  465       -6.2736208033      -0.0000000002     0.999992    0.00000701
  466       -6.2736208035      -0.0000000002     0.999992    0.00000699
  467       -6.2736208037      -0.0000000002     0.999992    0.00000697
  468       -6.2736208038      -0.0000000002     0.999992    0.00000696
  469       -6.2736208040      -0.0000000002     0.999992    0.00000694
  470       -6.2736208042      -0.0000000002     0.999992    0.00000692
  471       -6.2736208043      -0.0000000002     0.999992    0.00000690
  472       -6.2736208045      -0.0000000002     0.999992    0.00000689
  473       -6.2736208047      -0.0000000002     0.999992    0.00000687
  474       -6.2736208048      -0.0000000002     0.999992    0.00000685
  475       -6.2736208050      -0.0000000002     0.999992    0.00000684
  476       -6.2736208051      -0.0000000002     0.999992    0.00000682
  477       -6.2736208053      -0.0000000002     0.999992    0.00000680
  478       -6.2736208055      -0.0000000002     0.999992    0.00000679
  479       -6.2736208056      -0.0000000002     0.999992    0.00000677
  480       -6.2736208058      -0.0000000002     0.999992    0.00000675
  481       -6.2736208059      -0.0000000002     0.999992    0.00000674
  482       -6.2736208061      -0.0000000002     0.999992    0.00000672
  483       -6.2736208063      -0.0000000002     0.999992    0.00000670
  484       -6.2736208064      -0.0000000002     0.999992    0.00000669
  485       -6.2736208066      -0.0000000002     0.999992    0.00000667
  486       -6.2736208067      -0.0000000002     0.999992    0.00000666
  487       -6.2736208069      -0.0000000002     0.999992    0.00000664
  488       -6.2736208070      -0.0000000002     0.999992    0.00000662
  489       -6.2736208072      -0.0000000002     0.999992    0.00000661
  490       -6.2736208073      -0.0000000002     0.999992    0.00000659
  491       -6.2736208075      -0.0000000002     0.999992    0.00000658
  492       -6.2736208076      -0.0000000001     0.999992    0.00000656
  493       -6.2736208078      -0.0000000001     0.999992    0.00000655
  494       -6.2736208079      -0.0000000001     0.999992    0.00000653
  495       -6.2736208081      -0.0000000001     0.999992    0.00000652
  496       -6.2736208082      -0.0000000001     0.999992    0.00000650
  497       -6.2736208084      -0.0000000001     0.999992    0.00000649
  498       -6.2736208085      -0.0000000001     0.999992    0.00000647
  499       -6.2736208087      -0.0000000001     0.999992    0.00000646
  500       -6.2736208088      -0.0000000001     0.999992    0.00000644
  501       -6.2736208089      -0.0000000001     0.999992    0.00000643
  502       -6.2736208091      -0.0000000001     0.999992    0.00000641
  503       -6.2736208092      -0.0000000001     0.999992    0.00000640
  504       -6.2736208094      -0.0000000001     0.999992    0.00000638
  505       -6.2736208095      -0.0000000001     0.999992    0.00000637
  506       -6.2736208097      -0.0000000001     0.999992    0.00000635
  507       -6.2736208098      -0.0000000001     0.999992    0.00000634
  508       -6.2736208099      -0.0000000001     0.999992    0.00000632
  509       -6.2736208101      -0.0000000001     0.999992    0.00000631
  510       -6.2736208102      -0.0000000001     0.999992    0.00000630
  511       -6.2736208103      -0.0000000001     0.999992    0.00000628
  512       -6.2736208105      -0.0000000001     0.999992    0.00000627
  513       -6.2736208106      -0.0000000001     0.999992    0.00000625
  514       -6.2736208108      -0.0000000001     0.999992    0.00000624
  515       -6.2736208109      -0.0000000001     0.999992    0.00000623
  516       -6.2736208110      -0.0000000001     0.999992    0.00000621
  517       -6.2736208112      -0.0000000001     0.999992    0.00000620
  518       -6.2736208113      -0.0000000001     0.999992    0.00000618
  519       -6.2736208114      -0.0000000001     0.999992    0.00000617
  520       -6.2736208116      -0.0000000001     0.999992    0.00000616
  521       -6.2736208117      -0.0000000001     0.999992    0.00000614
  522       -6.2736208118      -0.0000000001     0.999992    0.00000613
  523       -6.2736208119      -0.0000000001     0.999992    0.00000612
  524       -6.2736208121      -0.0000000001     0.999992    0.00000610
  525       -6.2736208122      -0.0000000001     0.999992    0.00000609
  526       -6.2736208123      -0.0000000001     0.999992    0.00000608
  527       -6.2736208125      -0.0000000001     0.999992    0.00000606
  528       -6.2736208126      -0.0000000001     0.999992    0.00000605
  529       -6.2736208127      -0.0000000001     0.999992    0.00000604
  530       -6.2736208128      -0.0000000001     0.999992    0.00000602
  531       -6.2736208130      -0.0000000001     0.999992    0.00000601
  532       -6.2736208131      -0.0000000001     0.999992    0.00000600
  533       -6.2736208132      -0.0000000001     0.999992    0.00000599
  534       -6.2736208133      -0.0000000001     0.999992    0.00000597
  535       -6.2736208135      -0.0000000001     0.999992    0.00000596
  536       -6.2736208136      -0.0000000001     0.999992    0.00000595
  537       -6.2736208137      -0.0000000001     0.999992    0.00000594
  538       -6.2736208138      -0.0000000001     0.999992    0.00000592
  539       -6.2736208140      -0.0000000001     0.999992    0.00000591
  540       -6.2736208141      -0.0000000001     0.999992    0.00000590
  541       -6.2736208142      -0.0000000001     0.999992    0.00000589
  542       -6.2736208143      -0.0000000001     0.999992    0.00000587
  543       -6.2736208144      -0.0000000001     0.999992    0.00000586
  544       -6.2736208146      -0.0000000001     0.999992    0.00000585
  545       -6.2736208147      -0.0000000001     0.999992    0.00000584
  546       -6.2736208148      -0.0000000001     0.999992    0.00000583
  547       -6.2736208149      -0.0000000001     0.999992    0.00000581
  548       -6.2736208150      -0.0000000001     0.999992    0.00000580
  549       -6.2736208151      -0.0000000001     0.999992    0.00000579
  550       -6.2736208153      -0.0000000001     0.999992    0.00000578
  551       -6.2736208154      -0.0000000001     0.999992    0.00000577
  552       -6.2736208155      -0.0000000001     0.999992    0.00000576
  553       -6.2736208156      -0.0000000001     0.999992    0.00000574
  554       -6.2736208157      -0.0000000001     0.999992    0.00000573
  555       -6.2736208158      -0.0000000001     0.999992    0.00000572
  556       -6.2736208159      -0.0000000001     0.999992    0.00000571
  557       -6.2736208161      -0.0000000001     0.999992    0.00000570
  558       -6.2736208162      -0.0000000001     0.999992    0.00000569
  559       -6.2736208163      -0.0000000001     0.999992    0.00000567
  560       -6.2736208164      -0.0000000001     0.999992    0.00000566
  561       -6.2736208165      -0.0000000001     0.999992    0.00000565
  562       -6.2736208166      -0.0000000001     0.999992    0.00000564
  563       -6.2736208167      -0.0000000001     0.999992    0.00000563
  564       -6.2736208168      -0.0000000001     0.999992    0.00000562
  565       -6.2736208169      -0.0000000001     0.999992    0.00000561
  566       -6.2736208170      -0.0000000001     0.999992    0.00000560
  567       -6.2736208172      -0.0000000001     0.999992    0.00000559
  568       -6.2736208173      -0.0000000001     0.999992    0.00000558
  569       -6.2736208174      -0.0000000001     0.999992    0.00000556
  570       -6.2736208175      -0.0000000001     0.999992    0.00000555
  571       -6.2736208176      -0.0000000001     0.999992    0.00000554
  572       -6.2736208177      -0.0000000001     0.999992    0.00000553
  573       -6.2736208178      -0.0000000001     0.999992    0.00000552
  574       -6.2736208179      -0.0000000001     0.999992    0.00000551
  575       -6.2736208180      -0.0000000001     0.999992    0.00000550
  576       -6.2736208181      -0.0000000001     0.999992    0.00000549
  577       -6.2736208182      -0.0000000001     0.999992    0.00000548
  578       -6.2736208183      -0.0000000001     0.999992    0.00000547
  579       -6.2736208184      -0.0000000001     0.999992    0.00000546
  580       -6.2736208185      -0.0000000001     0.999992    0.00000545
  581       -6.2736208186      -0.0000000001     0.999992    0.00000544
  582       -6.2736208187      -0.0000000001     0.999992    0.00000543
  583       -6.2736208188      -0.0000000001     0.999992    0.00000542
  584       -6.2736208189      -0.0000000001     0.999992    0.00000541
  585       -6.2736208190      -0.0000000001     0.999992    0.00000540
  586       -6.2736208191      -0.0000000001     0.999992    0.00000539
  587       -6.2736208192      -0.0000000001     0.999992    0.00000538
  588       -6.2736208193      -0.0000000001     0.999992    0.00000537
  589       -6.2736208194      -0.0000000001     0.999992    0.00000536
  590       -6.2736208195      -0.0000000001     0.999992    0.00000535
  591       -6.2736208196      -0.0000000001     0.999992    0.00000534
  592       -6.2736208197      -0.0000000001     0.999992    0.00000533
  593       -6.2736208198      -0.0000000001     0.999992    0.00000532
  594       -6.2736208199      -0.0000000001     0.999992    0.00000531
  595       -6.2736208200      -0.0000000001     0.999992    0.00000530
  596       -6.2736208201      -0.0000000001     0.999992    0.00000529
  597       -6.2736208202      -0.0000000001     0.999992    0.00000528
  598       -6.2736208203      -0.0000000001     0.999992    0.00000527
  599       -6.2736208204      -0.0000000001     0.999992    0.00000526
  600       -6.2736208205      -0.0000000001     0.999992    0.00000525
  601       -6.2736208206      -0.0000000001     0.999992    0.00000524
  602       -6.2736208207      -0.0000000001     0.999992    0.00000523
  603       -6.2736208208      -0.0000000001     0.999992    0.00000522
  604       -6.2736208209      -0.0000000001     0.999992    0.00000522
  605       -6.2736208210      -0.0000000001     0.999992    0.00000521
  606       -6.2736208211      -0.0000000001     0.999992    0.00000520
  607       -6.2736208212      -0.0000000001     0.999992    0.00000519
  608       -6.2736208213      -0.0000000001     0.999992    0.00000518
  609       -6.2736208214      -0.0000000001     0.999992    0.00000517
  610       -6.2736208215      -0.0000000001     0.999992    0.00000516
  611       -6.2736208215      -0.0000000001     0.999991    0.00000515
  612       -6.2736208216      -0.0000000001     0.999991    0.00000514
  613       -6.2736208217      -0.0000000001     0.999991    0.00000513
  614       -6.2736208218      -0.0000000001     0.999991    0.00000513
  615       -6.2736208219      -0.0000000001     0.999991    0.00000512
  616       -6.2736208220      -0.0000000001     0.999991    0.00000511
  617       -6.2736208221      -0.0000000001     0.999991    0.00000510
  618       -6.2736208222      -0.0000000001     0.999991    0.00000509
  619       -6.2736208223      -0.0000000001     0.999991    0.00000508
  620       -6.2736208224      -0.0000000001     0.999991    0.00000507
  621       -6.2736208224      -0.0000000001     0.999991    0.00000506
  622       -6.2736208225      -0.0000000001     0.999991    0.00000506
  623       -6.2736208226      -0.0000000001     0.999991    0.00000505
  624       -6.2736208227      -0.0000000001     0.999991    0.00000504
  625       -6.2736208228      -0.0000000001     0.999991    0.00000503
  626       -6.2736208229      -0.0000000001     0.999991    0.00000502
  627       -6.2736208230      -0.0000000001     0.999991    0.00000501
  628       -6.2736208231      -0.0000000001     0.999991    0.00000501
  629       -6.2736208231      -0.0000000001     0.999991    0.00000500
  630       -6.2736208232      -0.0000000001     0.999991    0.00000499
  631       -6.2736208233      -0.0000000001     0.999991    0.00000498
  632       -6.2736208234      -0.0000000001     0.999991    0.00000497
  633       -6.2736208235      -0.0000000001     0.999991    0.00000496
  634       -6.2736208236      -0.0000000001     0.999991    0.00000496
  635       -6.2736208237      -0.0000000001     0.999991    0.00000495
  636       -6.2736208237      -0.0000000001     0.999991    0.00000494
  637       -6.2736208238      -0.0000000001     0.999991    0.00000493
  638       -6.2736208239      -0.0000000001     0.999991    0.00000492
  639       -6.2736208240      -0.0000000001     0.999991    0.00000492
  640       -6.2736208241      -0.0000000001     0.999991    0.00000491
  641       -6.2736208242      -0.0000000001     0.999991    0.00000490
  642       -6.2736208242      -0.0000000001     0.999991    0.00000489
  643       -6.2736208243      -0.0000000001     0.999991    0.00000488
  644       -6.2736208244      -0.0000000001     0.999991    0.00000488
  645       -6.2736208245      -0.0000000001     0.999991    0.00000487
  646       -6.2736208246      -0.0000000001     0.999991    0.00000486
  647       -6.2736208247      -0.0000000001     0.999991    0.00000485
  648       -6.2736208247      -0.0000000001     0.999991    0.00000485
  649       -6.2736208248      -0.0000000001     0.999991    0.00000484
  650       -6.2736208249      -0.0000000001     0.999991    0.00000483
  651       -6.2736208250      -0.0000000001     0.999991    0.00000482
  652       -6.2736208251      -0.0000000001     0.999991    0.00000482
  653       -6.2736208251      -0.0000000001     0.999991    0.00000481
  654       -6.2736208252      -0.0000000001     0.999991    0.00000480
  655       -6.2736208253      -0.0000000001     0.999991    0.00000479
  656       -6.2736208254      -0.0000000001     0.999991    0.00000479
  657       -6.2736208255      -0.0000000001     0.999991    0.00000478
  658       -6.2736208255      -0.0000000001     0.999991    0.00000477
  659       -6.2736208256      -0.0000000001     0.999991    0.00000476
  660       -6.2736208257      -0.0000000001     0.999991    0.00000476
  661       -6.2736208258      -0.0000000001     0.999991    0.00000475
  662       -6.2736208259      -0.0000000001     0.999991    0.00000474
  663       -6.2736208259      -0.0000000001     0.999991    0.00000474
  664       -6.2736208260      -0.0000000001     0.999991    0.00000473
  665       -6.2736208261      -0.0000000001     0.999991    0.00000472
  666       -6.2736208262      -0.0000000001     0.999991    0.00000471
  667       -6.2736208262      -0.0000000001     0.999991    0.00000471
  668       -6.2736208263      -0.0000000001     0.999991    0.00000470
  669       -6.2736208264      -0.0000000001     0.999991    0.00000469
  670       -6.2736208265      -0.0000000001     0.999991    0.00000469
  671       -6.2736208265      -0.0000000001     0.999991    0.00000468
  672       -6.2736208266      -0.0000000001     0.999991    0.00000467
  673       -6.2736208267      -0.0000000001     0.999991    0.00000467
  674       -6.2736208268      -0.0000000001     0.999991    0.00000466
  675       -6.2736208268      -0.0000000001     0.999991    0.00000465
  676       -6.2736208269      -0.0000000001     0.999991    0.00000465
  677       -6.2736208270      -0.0000000001     0.999991    0.00000464
  678       -6.2736208271      -0.0000000001     0.999991    0.00000463
  679       -6.2736208271      -0.0000000001     0.999991    0.00000463
  680       -6.2736208272      -0.0000000001     0.999991    0.00000462
  681       -6.2736208273      -0.0000000001     0.999991    0.00000461
  682       -6.2736208274      -0.0000000001     0.999991    0.00000461
  683       -6.2736208274      -0.0000000001     0.999991    0.00000460
  684       -6.2736208275      -0.0000000001     0.999991    0.00000459
  685       -6.2736208276      -0.0000000001     0.999991    0.00000459
  686       -6.2736208277      -0.0000000001     0.999991    0.00000458
  687       -6.2736208277      -0.0000000001     0.999991    0.00000457
  688       -6.2736208278      -0.0000000001     0.999991    0.00000457
  689       -6.2736208279      -0.0000000001     0.999991    0.00000456
  690       -6.2736208279      -0.0000000001     0.999991    0.00000455
  691       -6.2736208280      -0.0000000001     0.999991    0.00000455
  692       -6.2736208281      -0.0000000001     0.999991    0.00000454
  693       -6.2736208282      -0.0000000001     0.999991    0.00000454
  694       -6.2736208282      -0.0000000001     0.999991    0.00000453
  695       -6.2736208283      -0.0000000001     0.999991    0.00000452
  696       -6.2736208284      -0.0000000001     0.999991    0.00000452
  697       -6.2736208284      -0.0000000001     0.999991    0.00000451
  698       -6.2736208285      -0.0000000001     0.999991    0.00000450
  699       -6.2736208286      -0.0000000001     0.999991    0.00000450
  700       -6.2736208287      -0.0000000001     0.999991    0.00000449
  701       -6.2736208287      -0.0000000001     0.999991    0.00000449
  702       -6.2736208288      -0.0000000001     0.999991    0.00000448
  703       -6.2736208289      -0.0000000001     0.999991    0.00000447
  704       -6.2736208289      -0.0000000001     0.999991    0.00000447
  705       -6.2736208290      -0.0000000001     0.999991    0.00000446
  706       -6.2736208291      -0.0000000001     0.999991    0.00000446
  707       -6.2736208291      -0.0000000001     0.999991    0.00000445
  708       -6.2736208292      -0.0000000001     0.999991    0.00000444
  709       -6.2736208293      -0.0000000001     0.999991    0.00000444
  710       -6.2736208293      -0.0000000001     0.999991    0.00000443
  711       -6.2736208294      -0.0000000001     0.999991    0.00000443
  712       -6.2736208295      -0.0000000001     0.999991    0.00000442
  713       -6.2736208295      -0.0000000001     0.999991    0.00000442
  714       -6.2736208296      -0.0000000001     0.999991    0.00000441
  715       -6.2736208297      -0.0000000001     0.999991    0.00000440
  716       -6.2736208298      -0.0000000001     0.999991    0.00000440
  717       -6.2736208298      -0.0000000001     0.999991    0.00000439
  718       -6.2736208299      -0.0000000001     0.999991    0.00000439
  719       -6.2736208300      -0.0000000001     0.999991    0.00000438
  720       -6.2736208300      -0.0000000001     0.999991    0.00000438
  721       -6.2736208301      -0.0000000001     0.999991    0.00000437
  722       -6.2736208301      -0.0000000001     0.999991    0.00000437
  723       -6.2736208302      -0.0000000001     0.999991    0.00000436
  724       -6.2736208303      -0.0000000001     0.999991    0.00000435
  725       -6.2736208303      -0.0000000001     0.999991    0.00000435
  726       -6.2736208304      -0.0000000001     0.999991    0.00000434
  727       -6.2736208305      -0.0000000001     0.999991    0.00000434
  728       -6.2736208305      -0.0000000001     0.999991    0.00000433
  729       -6.2736208306      -0.0000000001     0.999991    0.00000433
  730       -6.2736208307      -0.0000000001     0.999991    0.00000432
  731       -6.2736208307      -0.0000000001     0.999991    0.00000432
  732       -6.2736208308      -0.0000000001     0.999991    0.00000431
  733       -6.2736208309      -0.0000000001     0.999991    0.00000431
  734       -6.2736208309      -0.0000000001     0.999991    0.00000430
  735       -6.2736208310      -0.0000000001     0.999991    0.00000430
  736       -6.2736208311      -0.0000000001     0.999991    0.00000429
  737       -6.2736208311      -0.0000000001     0.999991    0.00000429
  738       -6.2736208312      -0.0000000001     0.999991    0.00000428
  739       -6.2736208312      -0.0000000001     0.999991    0.00000427
  740       -6.2736208313      -0.0000000001     0.999991    0.00000427
  741       -6.2736208314      -0.0000000001     0.999991    0.00000426
  742       -6.2736208314      -0.0000000001     0.999991    0.00000426
  743       -6.2736208315      -0.0000000001     0.999991    0.00000425
  744       -6.2736208316      -0.0000000001     0.999991    0.00000425
  745       -6.2736208316      -0.0000000001     0.999991    0.00000424
  746       -6.2736208317      -0.0000000001     0.999991    0.00000424
  747       -6.2736208317      -0.0000000001     0.999991    0.00000423
  748       -6.2736208318      -0.0000000001     0.999991    0.00000423
  749       -6.2736208319      -0.0000000001     0.999991    0.00000422
  750       -6.2736208319      -0.0000000001     0.999991    0.00000422
  751       -6.2736208320      -0.0000000001     0.999991    0.00000422
  752       -6.2736208321      -0.0000000001     0.999991    0.00000421
  753       -6.2736208321      -0.0000000001     0.999991    0.00000421
  754       -6.2736208322      -0.0000000001     0.999991    0.00000420
  755       -6.2736208322      -0.0000000001     0.999991    0.00000420
  756       -6.2736208323      -0.0000000001     0.999991    0.00000419
  757       -6.2736208324      -0.0000000001     0.999991    0.00000419
  758       -6.2736208324      -0.0000000001     0.999991    0.00000418
  759       -6.2736208325      -0.0000000001     0.999991    0.00000418
  760       -6.2736208325      -0.0000000001     0.999991    0.00000417
  761       -6.2736208326      -0.0000000001     0.999991    0.00000417
  762       -6.2736208327      -0.0000000001     0.999991    0.00000416
  763       -6.2736208327      -0.0000000001     0.999991    0.00000416
  764       -6.2736208328      -0.0000000001     0.999991    0.00000415
  765       -6.2736208328      -0.0000000001     0.999991    0.00000415
  766       -6.2736208329      -0.0000000001     0.999991    0.00000414
  767       -6.2736208330      -0.0000000001     0.999991    0.00000414
  768       -6.2736208330      -0.0000000001     0.999991    0.00000414
  769       -6.2736208331      -0.0000000001     0.999991    0.00000413
  770       -6.2736208331      -0.0000000001     0.999991    0.00000413
  771       -6.2736208332      -0.0000000001     0.999991    0.00000412
  772       -6.2736208333      -0.0000000001     0.999991    0.00000412
  773       -6.2736208333      -0.0000000001     0.999991    0.00000411
  774       -6.2736208334      -0.0000000001     0.999991    0.00000411
  775       -6.2736208334      -0.0000000001     0.999991    0.00000410
  776       -6.2736208335      -0.0000000001     0.999991    0.00000410
  777       -6.2736208335      -0.0000000001     0.999991    0.00000410
  778       -6.2736208336      -0.0000000001     0.999991    0.00000409
  779       -6.2736208337      -0.0000000001     0.999991    0.00000409
  780       -6.2736208337      -0.0000000001     0.999991    0.00000408
  781       -6.2736208338      -0.0000000001     0.999991    0.00000408
  782       -6.2736208338      -0.0000000001     0.999991    0.00000407
  783       -6.2736208339      -0.0000000001     0.999991    0.00000407
  784       -6.2736208340      -0.0000000001     0.999991    0.00000407
  785       -6.2736208340      -0.0000000001     0.999991    0.00000406
  786       -6.2736208341      -0.0000000001     0.999991    0.00000406
  787       -6.2736208341      -0.0000000001     0.999991    0.00000405
  788       -6.2736208342      -0.0000000001     0.999991    0.00000405
  789       -6.2736208342      -0.0000000001     0.999991    0.00000405
  790       -6.2736208343      -0.0000000001     0.999991    0.00000404
  791       -6.2736208343      -0.0000000001     0.999991    0.00000404
  792       -6.2736208344      -0.0000000001     0.999991    0.00000403
  793       -6.2736208345      -0.0000000001     0.999991    0.00000403
  794       -6.2736208345      -0.0000000001     0.999991    0.00000403
  795       -6.2736208346      -0.0000000001     0.999991    0.00000402
  796       -6.2736208346      -0.0000000001     0.999991    0.00000402
  797       -6.2736208347      -0.0000000001     0.999991    0.00000401
  798       -6.2736208347      -0.0000000001     0.999991    0.00000401
  799       -6.2736208348      -0.0000000001     0.999991    0.00000401
  800       -6.2736208349      -0.0000000001     0.999991    0.00000400
  801       -6.2736208349      -0.0000000001     0.999991    0.00000400
  802       -6.2736208350      -0.0000000001     0.999991    0.00000399
  803       -6.2736208350      -0.0000000001     0.999991    0.00000399
  804       -6.2736208351      -0.0000000001     0.999991    0.00000399
  805       -6.2736208351      -0.0000000001     0.999991    0.00000398
  806       -6.2736208352      -0.0000000001     0.999991    0.00000398
  807       -6.2736208352      -0.0000000001     0.999991    0.00000397
  808       -6.2736208353      -0.0000000001     0.999991    0.00000397
  809       -6.2736208353      -0.0000000001     0.999991    0.00000397
  810       -6.2736208354      -0.0000000001     0.999991    0.00000396
  811       -6.2736208355      -0.0000000001     0.999991    0.00000396
  812       -6.2736208355      -0.0000000001     0.999991    0.00000396
  813       -6.2736208356      -0.0000000001     0.999991    0.00000395
  814       -6.2736208356      -0.0000000001     0.999991    0.00000395
  815       -6.2736208357      -0.0000000001     0.999991    0.00000395
  816       -6.2736208357      -0.0000000001     0.999991    0.00000394
  817       -6.2736208358      -0.0000000001     0.999991    0.00000394
  818       -6.2736208358      -0.0000000001     0.999991    0.00000393
  819       -6.2736208359      -0.0000000001     0.999991    0.00000393
  820       -6.2736208359      -0.0000000001     0.999991    0.00000393
  821       -6.2736208360      -0.0000000001     0.999991    0.00000392
  822       -6.2736208360      -0.0000000001     0.999991    0.00000392
  823       -6.2736208361      -0.0000000001     0.999991    0.00000392
  824       -6.2736208361      -0.0000000001     0.999991    0.00000391
  825       -6.2736208362      -0.0000000001     0.999991    0.00000391
  826       -6.2736208363      -0.0000000001     0.999991    0.00000391
  827       -6.2736208363      -0.0000000001     0.999991    0.00000390
  828       -6.2736208364      -0.0000000001     0.999991    0.00000390
  829       -6.2736208364      -0.0000000001     0.999991    0.00000390
  830       -6.2736208365      -0.0000000001     0.999991    0.00000389
  831       -6.2736208365      -0.0000000001     0.999991    0.00000389
  832       -6.2736208366      -0.0000000001     0.999991    0.00000389
  833       -6.2736208366      -0.0000000001     0.999991    0.00000388
  834       -6.2736208367      -0.0000000001     0.999991    0.00000388
  835       -6.2736208367      -0.0000000001     0.999991    0.00000388
  836       -6.2736208368      -0.0000000001     0.999991    0.00000387
  837       -6.2736208368      -0.0000000001     0.999991    0.00000387
  838       -6.2736208369      -0.0000000001     0.999991    0.00000387
  839       -6.2736208369      -0.0000000001     0.999991    0.00000386
  840       -6.2736208370      -0.0000000001     0.999991    0.00000386
  841       -6.2736208370      -0.0000000001     0.999991    0.00000386
  842       -6.2736208371      -0.0000000001     0.999991    0.00000385
  843       -6.2736208371      -0.0000000001     0.999991    0.00000385
  844       -6.2736208372      -0.0000000001     0.999991    0.00000385
  845       -6.2736208372      -0.0000000001     0.999991    0.00000384
  846       -6.2736208373      -0.0000000001     0.999991    0.00000384
  847       -6.2736208373      -0.0000000001     0.999991    0.00000384
  848       -6.2736208374      -0.0000000001     0.999991    0.00000384
  849       -6.2736208374      -0.0000000001     0.999991    0.00000383
  850       -6.2736208375      -0.0000000001     0.999991    0.00000383
  851       -6.2736208375      -0.0000000001     0.999991    0.00000383
  852       -6.2736208376      -0.0000000001     0.999991    0.00000382
  853       -6.2736208376      -0.0000000001     0.999991    0.00000382
  854       -6.2736208377      -0.0000000001     0.999991    0.00000382
  855       -6.2736208377      -0.0000000001     0.999991    0.00000381
  856       -6.2736208378      -0.0000000001     0.999991    0.00000381
  857       -6.2736208378      -0.0000000001     0.999991    0.00000381
  858       -6.2736208379      -0.0000000001     0.999991    0.00000381
  859       -6.2736208379      -0.0000000001     0.999991    0.00000380
  860       -6.2736208380      -0.0000000000     0.999991    0.00000380
  861       -6.2736208380      -0.0000000000     0.999991    0.00000380
  862       -6.2736208381      -0.0000000000     0.999991    0.00000379
  863       -6.2736208381      -0.0000000000     0.999991    0.00000379
  864       -6.2736208382      -0.0000000000     0.999991    0.00000379
  865       -6.2736208382      -0.0000000000     0.999991    0.00000379
  866       -6.2736208383      -0.0000000000     0.999991    0.00000378
  867       -6.2736208383      -0.0000000000     0.999991    0.00000378
  868       -6.2736208384      -0.0000000000     0.999991    0.00000378
  869       -6.2736208384      -0.0000000000     0.999991    0.00000377
  870       -6.2736208385      -0.0000000000     0.999991    0.00000377
  871       -6.2736208385      -0.0000000000     0.999991    0.00000377
  872       -6.2736208386      -0.0000000000     0.999991    0.00000377
  873       -6.2736208386      -0.0000000000     0.999991    0.00000376
  874       -6.2736208387      -0.0000000000     0.999991    0.00000376
  875       -6.2736208387      -0.0000000000     0.999991    0.00000376
  876       -6.2736208388      -0.0000000000     0.999991    0.00000376
  877       -6.2736208388      -0.0000000000     0.999991    0.00000375
  878       -6.2736208389      -0.0000000000     0.999991    0.00000375
  879       -6.2736208389      -0.0000000000     0.999991    0.00000375
  880       -6.2736208390      -0.0000000000     0.999991    0.00000374
  881       -6.2736208390      -0.0000000000     0.999991    0.00000374
  882       -6.2736208391      -0.0000000000     0.999991    0.00000374
  883       -6.2736208391      -0.0000000000     0.999991    0.00000374
  884       -6.2736208392      -0.0000000000     0.999991    0.00000373
  885       -6.2736208392      -0.0000000000     0.999991    0.00000373
  886       -6.2736208393      -0.0000000000     0.999991    0.00000373
  887       -6.2736208393      -0.0000000000     0.999991    0.00000373
  888       -6.2736208394      -0.0000000000     0.999991    0.00000372
  889       -6.2736208394      -0.0000000000     0.999991    0.00000372
  890       -6.2736208395      -0.0000000000     0.999991    0.00000372
  891       -6.2736208395      -0.0000000000     0.999991    0.00000372
  892       -6.2736208396      -0.0000000000     0.999991    0.00000371
  893       -6.2736208396      -0.0000000000     0.999991    0.00000371
  894       -6.2736208397      -0.0000000000     0.999991    0.00000371
  895       -6.2736208397      -0.0000000000     0.999991    0.00000371
  896       -6.2736208397      -0.0000000000     0.999991    0.00000370
  897       -6.2736208398      -0.0000000000     0.999991    0.00000370
  898       -6.2736208398      -0.0000000000     0.999991    0.00000370
  899       -6.2736208399      -0.0000000000     0.999991    0.00000370
  900       -6.2736208399      -0.0000000000     0.999991    0.00000370
  901       -6.2736208400      -0.0000000000     0.999991    0.00000369
  902       -6.2736208400      -0.0000000000     0.999991    0.00000369
  903       -6.2736208401      -0.0000000000     0.999991    0.00000369
  904       -6.2736208401      -0.0000000000     0.999991    0.00000369
  905       -6.2736208402      -0.0000000000     0.999991    0.00000368
  906       -6.2736208402      -0.0000000000     0.999991    0.00000368
  907       -6.2736208403      -0.0000000000     0.999991    0.00000368
  908       -6.2736208403      -0.0000000000     0.999991    0.00000368
  909       -6.2736208404      -0.0000000000     0.999991    0.00000368
  910       -6.2736208404      -0.0000000000     0.999991    0.00000367
  911       -6.2736208405      -0.0000000000     0.999991    0.00000367
  912       -6.2736208405      -0.0000000000     0.999991    0.00000367
  913       -6.2736208405      -0.0000000000     0.999991    0.00000367
  914       -6.2736208406      -0.0000000000     0.999991    0.00000366
  915       -6.2736208406      -0.0000000000     0.999991    0.00000366
  916       -6.2736208407      -0.0000000000     0.999991    0.00000366
  917       -6.2736208407      -0.0000000000     0.999991    0.00000366
  918       -6.2736208408      -0.0000000000     0.999991    0.00000366
  919       -6.2736208408      -0.0000000000     0.999991    0.00000365
  920       -6.2736208409      -0.0000000000     0.999991    0.00000365
  921       -6.2736208409      -0.0000000000     0.999991    0.00000365
  922       -6.2736208410      -0.0000000000     0.999991    0.00000365
  923       -6.2736208410      -0.0000000000     0.999991    0.00000365
  924       -6.2736208411      -0.0000000000     0.999991    0.00000364
  925       -6.2736208411      -0.0000000000     0.999991    0.00000364
  926       -6.2736208411      -0.0000000000     0.999991    0.00000364
  927       -6.2736208412      -0.0000000000     0.999991    0.00000364
  928       -6.2736208412      -0.0000000000     0.999991    0.00000364
  929       -6.2736208413      -0.0000000000     0.999991    0.00000363
  930       -6.2736208413      -0.0000000000     0.999991    0.00000363
  931       -6.2736208414      -0.0000000000     0.999991    0.00000363
  932       -6.2736208414      -0.0000000000     0.999991    0.00000363
  933       -6.2736208415      -0.0000000000     0.999991    0.00000363
  934       -6.2736208415      -0.0000000000     0.999991    0.00000362
  935       -6.2736208416      -0.0000000000     0.999991    0.00000362
  936       -6.2736208416      -0.0000000000     0.999991    0.00000362
  937       -6.2736208416      -0.0000000000     0.999991    0.00000362
  938       -6.2736208417      -0.0000000000     0.999991    0.00000362
  939       -6.2736208417      -0.0000000000     0.999991    0.00000362
  940       -6.2736208418      -0.0000000000     0.999991    0.00000361
  941       -6.2736208418      -0.0000000000     0.999991    0.00000361
  942       -6.2736208419      -0.0000000000     0.999991    0.00000361
  943       -6.2736208419      -0.0000000000     0.999991    0.00000361
  944       -6.2736208420      -0.0000000000     0.999991    0.00000361
  945       -6.2736208420      -0.0000000000     0.999991    0.00000360
  946       -6.2736208421      -0.0000000000     0.999991    0.00000360
  947       -6.2736208421      -0.0000000000     0.999991    0.00000360
  948       -6.2736208421      -0.0000000000     0.999991    0.00000360
  949       -6.2736208422      -0.0000000000     0.999991    0.00000360
  950       -6.2736208422      -0.0000000000     0.999991    0.00000360
  951       -6.2736208423      -0.0000000000     0.999991    0.00000359
  952       -6.2736208423      -0.0000000000     0.999991    0.00000359
  953       -6.2736208424      -0.0000000000     0.999991    0.00000359
  954       -6.2736208424      -0.0000000000     0.999991    0.00000359
  955       -6.2736208425      -0.0000000000     0.999991    0.00000359
  956       -6.2736208425      -0.0000000000     0.999991    0.00000359
  957       -6.2736208425      -0.0000000000     0.999991    0.00000358
  958       -6.2736208426      -0.0000000000     0.999991    0.00000358
  959       -6.2736208426      -0.0000000000     0.999991    0.00000358
  960       -6.2736208427      -0.0000000000     0.999991    0.00000358
  961       -6.2736208427      -0.0000000000     0.999991    0.00000358
  962       -6.2736208428      -0.0000000000     0.999991    0.00000358
  963       -6.2736208428      -0.0000000000     0.999991    0.00000358
  964       -6.2736208429      -0.0000000000     0.999991    0.00000357
  965       -6.2736208429      -0.0000000000     0.999991    0.00000357
  966       -6.2736208429      -0.0000000000     0.999991    0.00000357
  967       -6.2736208430      -0.0000000000     0.999991    0.00000357
  968       -6.2736208430      -0.0000000000     0.999991    0.00000357
  969       -6.2736208431      -0.0000000000     0.999991    0.00000357
  970       -6.2736208431      -0.0000000000     0.999991    0.00000357
  971       -6.2736208432      -0.0000000000     0.999991    0.00000356
  972       -6.2736208432      -0.0000000000     0.999991    0.00000356
  973       -6.2736208432      -0.0000000000     0.999991    0.00000356
  974       -6.2736208433      -0.0000000000     0.999991    0.00000356
  975       -6.2736208433      -0.0000000000     0.999991    0.00000356
  976       -6.2736208434      -0.0000000000     0.999991    0.00000356
  977       -6.2736208434      -0.0000000000     0.999991    0.00000356
  978       -6.2736208435      -0.0000000000     0.999991    0.00000355
  979       -6.2736208435      -0.0000000000     0.999991    0.00000355
  980       -6.2736208436      -0.0000000000     0.999991    0.00000355
  981       -6.2736208436      -0.0000000000     0.999991    0.00000355
  982       -6.2736208436      -0.0000000000     0.999991    0.00000355
  983       -6.2736208437      -0.0000000000     0.999991    0.00000355
  984       -6.2736208437      -0.0000000000     0.999991    0.00000355
  985       -6.2736208438      -0.0000000000     0.999991    0.00000355
  986       -6.2736208438      -0.0000000000     0.999991    0.00000354
  987       -6.2736208439      -0.0000000000     0.999991    0.00000354
  988       -6.2736208439      -0.0000000000     0.999991    0.00000354
  989       -6.2736208439      -0.0000000000     0.999991    0.00000354
  990       -6.2736208440      -0.0000000000     0.999991    0.00000354
  991       -6.2736208440      -0.0000000000     0.999991    0.00000354
  992       -6.2736208441      -0.0000000000     0.999991    0.00000354
  993       -6.2736208441      -0.0000000000     0.999991    0.00000354
  994       -6.2736208442      -0.0000000000     0.999991    0.00000353
  995       -6.2736208442      -0.0000000000     0.999991    0.00000353
  996       -6.2736208442      -0.0000000000     0.999991    0.00000353
  997       -6.2736208443      -0.0000000000     0.999991    0.00000353
  998       -6.2736208443      -0.0000000000     0.999991    0.00000353
  999       -6.2736208444      -0.0000000000     0.999991    0.00000353
 1000       -6.2736208444      -0.0000000000     0.999991    0.00000353

Total Energy:                       -6.2736208444 H         -170.7139 eV
Extrapolated to 0:                  -6.2530331409 H         -170.1537 eV

----------------------------------------------------------------------------------
 Solving CP-REKS equation for  1 state vector...
----------------------------------------------------------------------------------
  CG solver: Constructing Y initial guess
  CG solver: Iteration    1    eps =    0.047456456224
  CG solver: Iteration    2    eps =    0.014019085738
  CG solver: Iteration    3    eps =    0.003724835943
  CG solver: Iteration    4    eps =    0.028429337819
  CG solver: Iteration    5    eps =    0.436058606079
  CG solver: Iteration    6    eps =    0.681947332831
  CG solver: Iteration    7    eps =    0.298484663093
  CG solver: Iteration    8    eps =    0.028804794771
  CG solver: Iteration    9    eps =    0.004383463662
  CG solver: Iteration   10    eps =    0.000336484401
  CG solver: Iteration   11    eps =    0.000022077699
  CG solver: Iteration   12    eps =    0.000000415698
  CG solver: Iteration   13    eps =    0.000000009525
  Convergence reached in CG solver after   13 iterations
  CG solver: Calculating converged R, Z, Q2 matrix
----------------------------------------------------------------------------------

----------------------------------------------------------------------------------
 Solving CP-REKS equation for SI between  1 and  2 state vectors...
----------------------------------------------------------------------------------
  CG solver: Constructing Y initial guess
  CG solver: Iteration    1    eps =    0.026815733731
  CG solver: Iteration    2    eps =    0.056534647068
  CG solver: Iteration    3    eps =    0.450547632844
  CG solver: Iteration    4    eps =    0.933248494577
  CG solver: Iteration    5    eps =    0.659428620668
  CG solver: Iteration    6    eps =    0.043493657813
  CG solver: Iteration    7    eps =    0.008265312875
  CG solver: Iteration    8    eps =    0.001513995534
  CG solver: Iteration    9    eps =    0.000071754242
  CG solver: Iteration   10    eps =    0.000002744222
  CG solver: Iteration   11    eps =    0.000000057780
  CG solver: Iteration   12    eps =    0.000000001158
  Convergence reached in CG solver after   12 iterations
  CG solver: Calculating converged R, Z, Q2 matrix
----------------------------------------------------------------------------------

--------------------------------------------------
 Gradient Information
--------------------------------------------------
           1 st state (SSR)
     0.00000000     0.00000000     0.00000000
     0.00000000     0.00000000     0.00000000
     0.00000000     0.00000000     0.00000000
     0.00000000     0.00000000     0.00000000
     0.00000000     0.00000000     0.00000000
     0.00000000     0.00000000     0.00000000

           2 st state (SSR)
     0.00000000     0.00000000     0.00000000
     0.00000000     0.00000000     0.00000000
     0.00000000     0.00000000     0.00000000
     0.00000000     0.00000000     0.00000000
     0.00000000     0.00000000     0.00000000
     0.00000000     0.00000000     0.00000000
--------------------------------------------------
 Coupling Information
--------------------------------------------------
 between  1 and  2 states
--------------------------------------------------
 g vector - difference gradient
     1.66432175     1.73475638   -29.53659074
    -3.29006004    -3.37923473    30.18708679
    -1.45865029    -0.86206315     0.87030621
     0.67824633     2.04723660    -1.66109335
     2.04996151    -0.77424833    -1.10274420
     0.35618073     1.23355323     1.24303529

 h vector - derivative coupling
    -2.69779868    -3.11885922    61.70833383
     5.13182062     6.18412924   -63.40984605
     3.59003165     1.82080786    -1.99042584
    -1.07335846    -4.17678092     3.24125742
    -3.99080901     1.77179468     3.06821249
    -0.95988612    -2.48109164    -2.61753186

 G vector - GDV
     0.00000000     0.00000000     0.00000000
     0.00000000     0.00000000     0.00000000
     0.00000000     0.00000000     0.00000000
     0.00000000     0.00000000     0.00000000
     0.00000000     0.00000000     0.00000000
     0.00000000     0.00000000     0.00000000

 H vector - DCV - non-adiabatic coupling
     0.00000000     0.00000000     0.00000000
     0.00000000     0.00000000     0.00000000
     0.00000000     0.00000000     0.00000000
     0.00000000     0.00000000     0.00000000
     0.00000000     0.00000000     0.00000000
     0.00000000     0.00000000     0.00000000
--------------------------------------------------

WARNING!
-> SCC is NOT converged, maximal SCC iterations exceeded

--------------------------------------------------------------------------------
DFTB+ running times                          cpu [s]             wall clock [s]
--------------------------------------------------------------------------------
SCC                                    +     0.40  ( 96.5%)      0.40  ( 94.1%)
      Sparse to dense                        0.02  (  4.8%)      0.02  (  4.9%)
      Dense to sparse                        0.07  ( 16.0%)      0.06  ( 13.3%)
      Range separated Hamiltonian            0.03  (  6.7%)      0.04  (  8.4%)
  Density matrix creation                    0.05  ( 12.3%)      0.06  ( 13.3%)
  Force calculation                          0.01  (  3.2%)      0.01  (  3.0%)
--------------------------------------------------------------------------------
Missing                                +     0.01  (  3.5%)      0.02  (  5.9%)
Total                                  =     0.42  (100.0%)      0.43  (100.0%)
--------------------------------------------------------------------------------
