|===============================================================================
|
|  DFTB+ release 20.1
|
|  Copyright (C) 2006 - 2020  DFTB+ developers group
|
|===============================================================================
|
|  When publishing results obtained with DFTB+, please cite the following
|  reference:
|
|  * DFTB+, a software package for efficient approximate density functional
|    theory based atomistic simulations, J. Chem. Phys. 152, 124101 (2020).
|    [doi: 10.1063/1.5143190]
|
|  You should also cite additional publications crediting the parametrization
|  data you use. Please consult the documentation of the SK-files for the
|  references.
|
|===============================================================================

Reading input file 'dftb_in.hsd'
Parser version: 8

--------------------------------------------------------------------------------
Reading SK-files:
Done.


Processed input in HSD format written to 'dftb_pin.hsd'

Starting initialization...
--------------------------------------------------------------------------------
OpenMP threads:              1
Chosen random seed:          509173079
Mode:                        Static calculation
Self consistent charges:     Yes
SCC-tolerance:                 0.100000E-05
Max. scc iterations:                   1000
Shell resolved Hubbard:      No
Spin polarisation:           No
Nr. of up electrons:             6.000000
Nr. of down electrons:           6.000000
Periodic boundaries:         No
Electronic solver:           Relatively robust
Maximal SCC-cycles:                    1000
Initial charges:             Set automatically (system chrg:   0.100E+01)
Included shells:             C:  s, p
                             N:  s, p
                             H:  s
Spin coupling constants:     C   1(s)-1(s):  -0.455900E-01
                             C   1(s)-2(p):  -0.293000E-01
                             C   2(p)-1(s):  -0.293000E-01
                             C   2(p)-2(p):  -0.275500E-01
                             N   1(s)-1(s):  -0.468700E-01
                             N   1(s)-2(p):  -0.317000E-01
                             N   2(p)-1(s):  -0.317000E-01
                             N   2(p)-2(p):  -0.307200E-01
                             H   1(s)-1(s):  -0.792500E-01
Range separated hybrid:      Yes
  Screening parameter omega:   0.300000E+00
  Range separated algorithm:   MatrixBased
Extra options:
                             Mulliken analysis
                             Force calculation
Force type                   original
                             Eigenvector printing


REKS Calcuation:             Yes
SSR(2,2) Calcuation:         Yes
Energy Functional:           (PPS+OSS)/2
Number of Core Orbitals:                  5
Number of Active Orbitals:                2
Number of Basis:                         12
Number of States:                         2
State-Averaging Weight:          0.500000
                                 0.500000
State of Interest:                        2
Initial Guess:               Diagonalize H0 matrix
Newton-Raphson for FON opt:  Yes
NR max. Iterations:                      50
Level Shifting:              Yes
Shift Value:                     0.300000
W Scale Factor:              C  =    3.000000
                             N  =    3.000000
                             H  =    3.000000
Transition Dipole:           No
Gradient of Microstate:      No
CP-REKS Solver:              Preconditioned Conjugate-Gradient
CG max. Iterations:                     100
CG Tolerance:                  0.100000E-07
Memory for A and Hxc:        Direct Updating Without Saving
Non-Adiabatic Coupling:      Yes

--------------------------------------------------------------------------------

***  Geometry step: 0

  iSCC       reks energy        Diff energy         x_a       SCC error   
    1       -6.2396307337       0.0000000000     0.997171    1.13962658
    2       -6.2584306808      -0.0187999471     0.999571    0.11029607
    3       -6.2657018938      -0.0072712131     0.999932    0.07552888
    4       -6.2683871140      -0.0026852202     0.999985    0.04513491
    5       -6.2690945654      -0.0007074513     0.999994    0.02276750
    6       -6.2692360028      -0.0001414374     0.999997    0.01019237
    7       -6.2692621655      -0.0000261627     0.999997    0.00400189
    8       -6.2692678842      -0.0000057187     0.999997    0.00149637
    9       -6.2692697880      -0.0000019039     0.999997    0.00054491
   10       -6.2692707959      -0.0000010079     0.999997    0.00040040
   11       -6.2692714996      -0.0000007037     0.999997    0.00033716
   12       -6.2692720594      -0.0000005598     0.999997    0.00029361
   13       -6.2692725369      -0.0000004775     0.999997    0.00026267
   14       -6.2692729627      -0.0000004257     0.999997    0.00024019
   15       -6.2692733537      -0.0000003911     0.999997    0.00022352
   16       -6.2692737204      -0.0000003667     0.999997    0.00021089
   17       -6.2692740690      -0.0000003486     0.999997    0.00020114
   18       -6.2692744035      -0.0000003345     0.999997    0.00019342
   19       -6.2692747264      -0.0000003229     0.999997    0.00018718
   20       -6.2692750395      -0.0000003130     0.999997    0.00018202
   21       -6.2692753437      -0.0000003043     0.999997    0.00017766
   22       -6.2692756400      -0.0000002963     0.999997    0.00017388
   23       -6.2692759288      -0.0000002888     0.999997    0.00017055
   24       -6.2692762105      -0.0000002817     0.999997    0.00016756
   25       -6.2692764855      -0.0000002750     0.999997    0.00016484
   26       -6.2692767540      -0.0000002685     0.999997    0.00016231
   27       -6.2692770163      -0.0000002623     0.999997    0.00015995
   28       -6.2692772726      -0.0000002562     0.999997    0.00015772
   29       -6.2692775230      -0.0000002504     0.999997    0.00015560
   30       -6.2692777676      -0.0000002447     0.999997    0.00015356
   31       -6.2692780068      -0.0000002392     0.999997    0.00015159
   32       -6.2692782406      -0.0000002338     0.999997    0.00014969
   33       -6.2692784691      -0.0000002285     0.999997    0.00014784
   34       -6.2692786925      -0.0000002234     0.999997    0.00014604
   35       -6.2692789110      -0.0000002185     0.999997    0.00014428
   36       -6.2692791246      -0.0000002136     0.999997    0.00014256
   37       -6.2692793335      -0.0000002089     0.999997    0.00014087
   38       -6.2692795379      -0.0000002043     0.999997    0.00013921
   39       -6.2692797377      -0.0000001999     0.999997    0.00013759
   40       -6.2692799333      -0.0000001955     0.999997    0.00013600
   41       -6.2692801245      -0.0000001913     0.999997    0.00013443
   42       -6.2692803117      -0.0000001871     0.999997    0.00013289
   43       -6.2692804948      -0.0000001831     0.999997    0.00013137
   44       -6.2692806740      -0.0000001792     0.999997    0.00012988
   45       -6.2692808493      -0.0000001754     0.999997    0.00012841
   46       -6.2692810210      -0.0000001716     0.999997    0.00012697
   47       -6.2692811890      -0.0000001680     0.999997    0.00012554
   48       -6.2692813534      -0.0000001645     0.999997    0.00012414
   49       -6.2692815144      -0.0000001610     0.999997    0.00012276
   50       -6.2692816721      -0.0000001576     0.999997    0.00012141
   51       -6.2692818264      -0.0000001543     0.999997    0.00012007
   52       -6.2692819775      -0.0000001511     0.999997    0.00011875
   53       -6.2692821255      -0.0000001480     0.999997    0.00011746
   54       -6.2692822705      -0.0000001450     0.999997    0.00011618
   55       -6.2692824125      -0.0000001420     0.999997    0.00011492
   56       -6.2692825516      -0.0000001391     0.999997    0.00011368
   57       -6.2692826878      -0.0000001363     0.999997    0.00011246
   58       -6.2692828213      -0.0000001335     0.999997    0.00011126
   59       -6.2692829521      -0.0000001308     0.999997    0.00011007
   60       -6.2692830803      -0.0000001282     0.999997    0.00010890
   61       -6.2692832059      -0.0000001256     0.999997    0.00010775
   62       -6.2692833290      -0.0000001231     0.999997    0.00010662
   63       -6.2692834497      -0.0000001207     0.999997    0.00010550
   64       -6.2692835679      -0.0000001183     0.999997    0.00010440
   65       -6.2692836839      -0.0000001159     0.999997    0.00010331
   66       -6.2692837975      -0.0000001137     0.999997    0.00010224
   67       -6.2692839090      -0.0000001114     0.999997    0.00010119
   68       -6.2692840182      -0.0000001093     0.999997    0.00010015
   69       -6.2692841254      -0.0000001071     0.999997    0.00009913
   70       -6.2692842304      -0.0000001051     0.999997    0.00009812
   71       -6.2692843335      -0.0000001031     0.999997    0.00009712
   72       -6.2692844346      -0.0000001011     0.999997    0.00009614
   73       -6.2692845337      -0.0000000991     0.999997    0.00009517
   74       -6.2692846310      -0.0000000973     0.999997    0.00009422
   75       -6.2692847264      -0.0000000954     0.999997    0.00009328
   76       -6.2692848200      -0.0000000936     0.999997    0.00009235
   77       -6.2692849119      -0.0000000919     0.999997    0.00009144
   78       -6.2692850020      -0.0000000901     0.999997    0.00009053
   79       -6.2692850905      -0.0000000885     0.999997    0.00008964
   80       -6.2692851773      -0.0000000868     0.999997    0.00008877
   81       -6.2692852625      -0.0000000852     0.999997    0.00008790
   82       -6.2692853462      -0.0000000836     0.999997    0.00008705
   83       -6.2692854283      -0.0000000821     0.999997    0.00008621
   84       -6.2692855089      -0.0000000806     0.999997    0.00008538
   85       -6.2692855881      -0.0000000791     0.999997    0.00008456
   86       -6.2692856658      -0.0000000777     0.999997    0.00008375
   87       -6.2692857421      -0.0000000763     0.999997    0.00008296
   88       -6.2692858170      -0.0000000749     0.999997    0.00008217
   89       -6.2692858906      -0.0000000736     0.999997    0.00008140
   90       -6.2692859629      -0.0000000723     0.999997    0.00008063
   91       -6.2692860339      -0.0000000710     0.999997    0.00007988
   92       -6.2692861036      -0.0000000697     0.999997    0.00007913
   93       -6.2692861721      -0.0000000685     0.999997    0.00007840
   94       -6.2692862394      -0.0000000673     0.999997    0.00007767
   95       -6.2692863055      -0.0000000661     0.999997    0.00007696
   96       -6.2692863705      -0.0000000650     0.999997    0.00007625
   97       -6.2692864344      -0.0000000638     0.999997    0.00007556
   98       -6.2692864971      -0.0000000627     0.999997    0.00007487
   99       -6.2692865588      -0.0000000617     0.999997    0.00007419
  100       -6.2692866194      -0.0000000606     0.999997    0.00007352
  101       -6.2692866789      -0.0000000596     0.999997    0.00007286
  102       -6.2692867375      -0.0000000586     0.999997    0.00007221
  103       -6.2692867950      -0.0000000576     0.999997    0.00007156
  104       -6.2692868516      -0.0000000566     0.999997    0.00007093
  105       -6.2692869073      -0.0000000556     0.999997    0.00007030
  106       -6.2692869620      -0.0000000547     0.999997    0.00006968
  107       -6.2692870158      -0.0000000538     0.999997    0.00006907
  108       -6.2692870687      -0.0000000529     0.999997    0.00006847
  109       -6.2692871207      -0.0000000520     0.999997    0.00006787
  110       -6.2692871718      -0.0000000512     0.999997    0.00006728
  111       -6.2692872221      -0.0000000503     0.999997    0.00006670
  112       -6.2692872716      -0.0000000495     0.999997    0.00006613
  113       -6.2692873203      -0.0000000487     0.999997    0.00006556
  114       -6.2692873682      -0.0000000479     0.999997    0.00006500
  115       -6.2692874153      -0.0000000471     0.999997    0.00006445
  116       -6.2692874617      -0.0000000464     0.999997    0.00006390
  117       -6.2692875073      -0.0000000456     0.999997    0.00006336
  118       -6.2692875522      -0.0000000449     0.999997    0.00006283
  119       -6.2692875964      -0.0000000442     0.999997    0.00006230
  120       -6.2692876398      -0.0000000435     0.999997    0.00006178
  121       -6.2692876826      -0.0000000428     0.999997    0.00006127
  122       -6.2692877247      -0.0000000421     0.999997    0.00006076
  123       -6.2692877661      -0.0000000414     0.999997    0.00006026
  124       -6.2692878069      -0.0000000408     0.999997    0.00005977
  125       -6.2692878471      -0.0000000402     0.999997    0.00005928
  126       -6.2692878866      -0.0000000395     0.999997    0.00005880
  127       -6.2692879255      -0.0000000389     0.999997    0.00005832
  128       -6.2692879639      -0.0000000383     0.999997    0.00005785
  129       -6.2692880016      -0.0000000377     0.999997    0.00005738
  130       -6.2692880388      -0.0000000372     0.999997    0.00005692
  131       -6.2692880753      -0.0000000366     0.999997    0.00005646
  132       -6.2692881114      -0.0000000360     0.999997    0.00005602
  133       -6.2692881469      -0.0000000355     0.999997    0.00005557
  134       -6.2692881818      -0.0000000350     0.999997    0.00005513
  135       -6.2692882162      -0.0000000344     0.999997    0.00005470
  136       -6.2692882502      -0.0000000339     0.999997    0.00005427
  137       -6.2692882836      -0.0000000334     0.999997    0.00005384
  138       -6.2692883165      -0.0000000329     0.999997    0.00005343
  139       -6.2692883489      -0.0000000324     0.999997    0.00005301
  140       -6.2692883809      -0.0000000319     0.999997    0.00005260
  141       -6.2692884123      -0.0000000315     0.999997    0.00005220
  142       -6.2692884434      -0.0000000310     0.999997    0.00005180
  143       -6.2692884739      -0.0000000306     0.999997    0.00005140
  144       -6.2692885040      -0.0000000301     0.999997    0.00005101
  145       -6.2692885337      -0.0000000297     0.999997    0.00005062
  146       -6.2692885630      -0.0000000293     0.999997    0.00005024
  147       -6.2692885918      -0.0000000288     0.999997    0.00004986
  148       -6.2692886202      -0.0000000284     0.999997    0.00004949
  149       -6.2692886483      -0.0000000280     0.999997    0.00004912
  150       -6.2692886759      -0.0000000276     0.999997    0.00004875
  151       -6.2692887031      -0.0000000272     0.999997    0.00004839
  152       -6.2692887300      -0.0000000268     0.999997    0.00004804
  153       -6.2692887564      -0.0000000265     0.999997    0.00004768
  154       -6.2692887825      -0.0000000261     0.999997    0.00004733
  155       -6.2692888083      -0.0000000257     0.999997    0.00004699
  156       -6.2692888336      -0.0000000254     0.999997    0.00004665
  157       -6.2692888587      -0.0000000250     0.999997    0.00004631
  158       -6.2692888833      -0.0000000247     0.999997    0.00004597
  159       -6.2692889077      -0.0000000243     0.999997    0.00004564
  160       -6.2692889317      -0.0000000240     0.999997    0.00004531
  161       -6.2692889554      -0.0000000237     0.999997    0.00004499
  162       -6.2692889787      -0.0000000234     0.999997    0.00004467
  163       -6.2692890018      -0.0000000230     0.999997    0.00004435
  164       -6.2692890245      -0.0000000227     0.999997    0.00004404
  165       -6.2692890469      -0.0000000224     0.999997    0.00004373
  166       -6.2692890690      -0.0000000221     0.999997    0.00004342
  167       -6.2692890909      -0.0000000218     0.999997    0.00004312
  168       -6.2692891124      -0.0000000215     0.999997    0.00004282
  169       -6.2692891337      -0.0000000213     0.999997    0.00004252
  170       -6.2692891546      -0.0000000210     0.999997    0.00004223
  171       -6.2692891753      -0.0000000207     0.999997    0.00004194
  172       -6.2692891957      -0.0000000204     0.999997    0.00004165
  173       -6.2692892159      -0.0000000202     0.999997    0.00004137
  174       -6.2692892358      -0.0000000199     0.999997    0.00004108
  175       -6.2692892554      -0.0000000196     0.999997    0.00004081
  176       -6.2692892748      -0.0000000194     0.999997    0.00004053
  177       -6.2692892939      -0.0000000191     0.999997    0.00004026
  178       -6.2692893128      -0.0000000189     0.999997    0.00003999
  179       -6.2692893315      -0.0000000186     0.999997    0.00003972
  180       -6.2692893499      -0.0000000184     0.999997    0.00003945
  181       -6.2692893680      -0.0000000182     0.999997    0.00003919
  182       -6.2692893860      -0.0000000179     0.999997    0.00003893
  183       -6.2692894037      -0.0000000177     0.999997    0.00003868
  184       -6.2692894212      -0.0000000175     0.999997    0.00003842
  185       -6.2692894384      -0.0000000173     0.999997    0.00003817
  186       -6.2692894555      -0.0000000171     0.999997    0.00003792
  187       -6.2692894723      -0.0000000168     0.999997    0.00003767
  188       -6.2692894890      -0.0000000166     0.999997    0.00003743
  189       -6.2692895054      -0.0000000164     0.999997    0.00003719
  190       -6.2692895216      -0.0000000162     0.999997    0.00003695
  191       -6.2692895377      -0.0000000160     0.999997    0.00003671
  192       -6.2692895535      -0.0000000158     0.999997    0.00003648
  193       -6.2692895691      -0.0000000156     0.999997    0.00003625
  194       -6.2692895846      -0.0000000154     0.999997    0.00003602
  195       -6.2692895998      -0.0000000153     0.999997    0.00003579
  196       -6.2692896149      -0.0000000151     0.999997    0.00003556
  197       -6.2692896298      -0.0000000149     0.999997    0.00003534
  198       -6.2692896445      -0.0000000147     0.999997    0.00003512
  199       -6.2692896591      -0.0000000145     0.999997    0.00003490
  200       -6.2692896734      -0.0000000144     0.999997    0.00003468
  201       -6.2692896876      -0.0000000142     0.999997    0.00003447
  202       -6.2692897017      -0.0000000140     0.999997    0.00003425
  203       -6.2692897155      -0.0000000139     0.999997    0.00003404
  204       -6.2692897292      -0.0000000137     0.999997    0.00003384
  205       -6.2692897428      -0.0000000135     0.999997    0.00003363
  206       -6.2692897562      -0.0000000134     0.999997    0.00003342
  207       -6.2692897694      -0.0000000132     0.999997    0.00003322
  208       -6.2692897825      -0.0000000131     0.999997    0.00003302
  209       -6.2692897954      -0.0000000129     0.999997    0.00003282
  210       -6.2692898082      -0.0000000128     0.999997    0.00003263
  211       -6.2692898208      -0.0000000126     0.999997    0.00003243
  212       -6.2692898333      -0.0000000125     0.999997    0.00003224
  213       -6.2692898456      -0.0000000123     0.999997    0.00003205
  214       -6.2692898578      -0.0000000122     0.999997    0.00003186
  215       -6.2692898699      -0.0000000121     0.999997    0.00003167
  216       -6.2692898818      -0.0000000119     0.999997    0.00003148
  217       -6.2692898936      -0.0000000118     0.999997    0.00003130
  218       -6.2692899053      -0.0000000117     0.999997    0.00003112
  219       -6.2692899168      -0.0000000115     0.999997    0.00003093
  220       -6.2692899282      -0.0000000114     0.999997    0.00003075
  221       -6.2692899395      -0.0000000113     0.999997    0.00003058
  222       -6.2692899506      -0.0000000112     0.999997    0.00003040
  223       -6.2692899616      -0.0000000110     0.999997    0.00003023
  224       -6.2692899726      -0.0000000109     0.999997    0.00003005
  225       -6.2692899833      -0.0000000108     0.999997    0.00002988
  226       -6.2692899940      -0.0000000107     0.999997    0.00002971
  227       -6.2692900046      -0.0000000106     0.999997    0.00002954
  228       -6.2692900150      -0.0000000104     0.999997    0.00002938
  229       -6.2692900253      -0.0000000103     0.999997    0.00002921
  230       -6.2692900356      -0.0000000102     0.999997    0.00002905
  231       -6.2692900457      -0.0000000101     0.999997    0.00002889
  232       -6.2692900557      -0.0000000100     0.999997    0.00002873
  233       -6.2692900656      -0.0000000099     0.999997    0.00002857
  234       -6.2692900753      -0.0000000098     0.999997    0.00002841
  235       -6.2692900850      -0.0000000097     0.999997    0.00002825
  236       -6.2692900946      -0.0000000096     0.999997    0.00002810
  237       -6.2692901041      -0.0000000095     0.999997    0.00002794
  238       -6.2692901135      -0.0000000094     0.999997    0.00002779
  239       -6.2692901228      -0.0000000093     0.999997    0.00002764
  240       -6.2692901320      -0.0000000092     0.999997    0.00002749
  241       -6.2692901410      -0.0000000091     0.999997    0.00002734
  242       -6.2692901500      -0.0000000090     0.999997    0.00002719
  243       -6.2692901590      -0.0000000089     0.999997    0.00002705
  244       -6.2692901678      -0.0000000088     0.999997    0.00002690
  245       -6.2692901765      -0.0000000087     0.999997    0.00002676
  246       -6.2692901851      -0.0000000086     0.999997    0.00002662
  247       -6.2692901937      -0.0000000085     0.999997    0.00002648
  248       -6.2692902021      -0.0000000085     0.999997    0.00002634
  249       -6.2692902105      -0.0000000084     0.999997    0.00002620
  250       -6.2692902188      -0.0000000083     0.999997    0.00002606
  251       -6.2692902270      -0.0000000082     0.999997    0.00002593
  252       -6.2692902351      -0.0000000081     0.999997    0.00002579
  253       -6.2692902432      -0.0000000080     0.999997    0.00002566
  254       -6.2692902511      -0.0000000080     0.999997    0.00002552
  255       -6.2692902590      -0.0000000079     0.999997    0.00002539
  256       -6.2692902668      -0.0000000078     0.999997    0.00002526
  257       -6.2692902746      -0.0000000077     0.999997    0.00002513
  258       -6.2692902822      -0.0000000077     0.999997    0.00002500
  259       -6.2692902898      -0.0000000076     0.999997    0.00002488
  260       -6.2692902973      -0.0000000075     0.999997    0.00002475
  261       -6.2692903048      -0.0000000074     0.999997    0.00002463
  262       -6.2692903121      -0.0000000074     0.999997    0.00002450
  263       -6.2692903194      -0.0000000073     0.999997    0.00002438
  264       -6.2692903266      -0.0000000072     0.999997    0.00002426
  265       -6.2692903338      -0.0000000072     0.999997    0.00002414
  266       -6.2692903409      -0.0000000071     0.999997    0.00002402
  267       -6.2692903479      -0.0000000070     0.999997    0.00002390
  268       -6.2692903548      -0.0000000069     0.999997    0.00002378
  269       -6.2692903617      -0.0000000069     0.999997    0.00002366
  270       -6.2692903685      -0.0000000068     0.999997    0.00002355
  271       -6.2692903753      -0.0000000068     0.999997    0.00002343
  272       -6.2692903820      -0.0000000067     0.999997    0.00002332
  273       -6.2692903886      -0.0000000066     0.999997    0.00002320
  274       -6.2692903952      -0.0000000066     0.999997    0.00002309
  275       -6.2692904017      -0.0000000065     0.999997    0.00002298
  276       -6.2692904081      -0.0000000064     0.999997    0.00002287
  277       -6.2692904145      -0.0000000064     0.999997    0.00002276
  278       -6.2692904208      -0.0000000063     0.999997    0.00002265
  279       -6.2692904271      -0.0000000063     0.999997    0.00002254
  280       -6.2692904333      -0.0000000062     0.999997    0.00002244
  281       -6.2692904395      -0.0000000062     0.999997    0.00002233
  282       -6.2692904456      -0.0000000061     0.999997    0.00002222
  283       -6.2692904516      -0.0000000060     0.999997    0.00002212
  284       -6.2692904576      -0.0000000060     0.999997    0.00002202
  285       -6.2692904636      -0.0000000059     0.999997    0.00002191
  286       -6.2692904694      -0.0000000059     0.999997    0.00002181
  287       -6.2692904753      -0.0000000058     0.999997    0.00002171
  288       -6.2692904810      -0.0000000058     0.999997    0.00002161
  289       -6.2692904868      -0.0000000057     0.999997    0.00002151
  290       -6.2692904925      -0.0000000057     0.999997    0.00002141
  291       -6.2692904981      -0.0000000056     0.999997    0.00002131
  292       -6.2692905037      -0.0000000056     0.999997    0.00002122
  293       -6.2692905092      -0.0000000055     0.999997    0.00002112
  294       -6.2692905147      -0.0000000055     0.999997    0.00002102
  295       -6.2692905201      -0.0000000054     0.999997    0.00002093
  296       -6.2692905255      -0.0000000054     0.999997    0.00002083
  297       -6.2692905308      -0.0000000053     0.999997    0.00002074
  298       -6.2692905361      -0.0000000053     0.999997    0.00002065
  299       -6.2692905414      -0.0000000052     0.999997    0.00002055
  300       -6.2692905466      -0.0000000052     0.999997    0.00002046
  301       -6.2692905517      -0.0000000052     0.999997    0.00002037
  302       -6.2692905568      -0.0000000051     0.999997    0.00002028
  303       -6.2692905619      -0.0000000051     0.999997    0.00002019
  304       -6.2692905669      -0.0000000050     0.999997    0.00002010
  305       -6.2692905719      -0.0000000050     0.999997    0.00002002
  306       -6.2692905769      -0.0000000049     0.999997    0.00001993
  307       -6.2692905818      -0.0000000049     0.999997    0.00001984
  308       -6.2692905866      -0.0000000049     0.999997    0.00001976
  309       -6.2692905915      -0.0000000048     0.999997    0.00001967
  310       -6.2692905962      -0.0000000048     0.999997    0.00001959
  311       -6.2692906010      -0.0000000047     0.999997    0.00001950
  312       -6.2692906057      -0.0000000047     0.999997    0.00001942
  313       -6.2692906103      -0.0000000047     0.999997    0.00001933
  314       -6.2692906150      -0.0000000046     0.999997    0.00001925
  315       -6.2692906196      -0.0000000046     0.999997    0.00001917
  316       -6.2692906241      -0.0000000046     0.999997    0.00001909
  317       -6.2692906286      -0.0000000045     0.999997    0.00001901
  318       -6.2692906331      -0.0000000045     0.999997    0.00001893
  319       -6.2692906375      -0.0000000044     0.999997    0.00001885
  320       -6.2692906419      -0.0000000044     0.999997    0.00001877
  321       -6.2692906463      -0.0000000044     0.999997    0.00001869
  322       -6.2692906507      -0.0000000043     0.999997    0.00001862
  323       -6.2692906550      -0.0000000043     0.999997    0.00001854
  324       -6.2692906592      -0.0000000043     0.999997    0.00001846
  325       -6.2692906635      -0.0000000042     0.999997    0.00001839
  326       -6.2692906677      -0.0000000042     0.999997    0.00001831
  327       -6.2692906718      -0.0000000042     0.999997    0.00001824
  328       -6.2692906760      -0.0000000041     0.999997    0.00001816
  329       -6.2692906801      -0.0000000041     0.999997    0.00001809
  330       -6.2692906841      -0.0000000041     0.999997    0.00001802
  331       -6.2692906882      -0.0000000040     0.999997    0.00001794
  332       -6.2692906922      -0.0000000040     0.999997    0.00001787
  333       -6.2692906961      -0.0000000040     0.999997    0.00001780
  334       -6.2692907001      -0.0000000039     0.999997    0.00001773
  335       -6.2692907040      -0.0000000039     0.999997    0.00001766
  336       -6.2692907079      -0.0000000039     0.999997    0.00001759
  337       -6.2692907117      -0.0000000039     0.999997    0.00001752
  338       -6.2692907156      -0.0000000038     0.999997    0.00001745
  339       -6.2692907194      -0.0000000038     0.999997    0.00001738
  340       -6.2692907231      -0.0000000038     0.999997    0.00001731
  341       -6.2692907269      -0.0000000037     0.999997    0.00001724
  342       -6.2692907306      -0.0000000037     0.999997    0.00001718
  343       -6.2692907343      -0.0000000037     0.999997    0.00001711
  344       -6.2692907379      -0.0000000037     0.999997    0.00001704
  345       -6.2692907416      -0.0000000036     0.999997    0.00001698
  346       -6.2692907452      -0.0000000036     0.999997    0.00001691
  347       -6.2692907487      -0.0000000036     0.999997    0.00001685
  348       -6.2692907523      -0.0000000036     0.999997    0.00001678
  349       -6.2692907558      -0.0000000035     0.999997    0.00001672
  350       -6.2692907593      -0.0000000035     0.999997    0.00001666
  351       -6.2692907628      -0.0000000035     0.999997    0.00001659
  352       -6.2692907662      -0.0000000034     0.999997    0.00001653
  353       -6.2692907697      -0.0000000034     0.999997    0.00001647
  354       -6.2692907731      -0.0000000034     0.999997    0.00001641
  355       -6.2692907764      -0.0000000034     0.999997    0.00001635
  356       -6.2692907798      -0.0000000033     0.999997    0.00001629
  357       -6.2692907831      -0.0000000033     0.999997    0.00001623
  358       -6.2692907864      -0.0000000033     0.999997    0.00001617
  359       -6.2692907897      -0.0000000033     0.999997    0.00001611
  360       -6.2692907929      -0.0000000033     0.999997    0.00001605
  361       -6.2692907962      -0.0000000032     0.999997    0.00001599
  362       -6.2692907994      -0.0000000032     0.999997    0.00001593
  363       -6.2692908026      -0.0000000032     0.999997    0.00001587
  364       -6.2692908057      -0.0000000032     0.999997    0.00001581
  365       -6.2692908089      -0.0000000031     0.999997    0.00001576
  366       -6.2692908120      -0.0000000031     0.999997    0.00001570
  367       -6.2692908151      -0.0000000031     0.999997    0.00001564
  368       -6.2692908182      -0.0000000031     0.999997    0.00001559
  369       -6.2692908212      -0.0000000031     0.999997    0.00001553
  370       -6.2692908243      -0.0000000030     0.999997    0.00001548
  371       -6.2692908273      -0.0000000030     0.999997    0.00001542
  372       -6.2692908303      -0.0000000030     0.999997    0.00001537
  373       -6.2692908333      -0.0000000030     0.999997    0.00001531
  374       -6.2692908362      -0.0000000030     0.999997    0.00001526
  375       -6.2692908391      -0.0000000029     0.999997    0.00001521
  376       -6.2692908421      -0.0000000029     0.999997    0.00001515
  377       -6.2692908450      -0.0000000029     0.999997    0.00001510
  378       -6.2692908478      -0.0000000029     0.999997    0.00001505
  379       -6.2692908507      -0.0000000029     0.999997    0.00001499
  380       -6.2692908535      -0.0000000028     0.999997    0.00001494
  381       -6.2692908563      -0.0000000028     0.999997    0.00001489
  382       -6.2692908592      -0.0000000028     0.999997    0.00001484
  383       -6.2692908619      -0.0000000028     0.999997    0.00001479
  384       -6.2692908647      -0.0000000028     0.999997    0.00001474
  385       -6.2692908674      -0.0000000027     0.999997    0.00001469
  386       -6.2692908702      -0.0000000027     0.999997    0.00001464
  387       -6.2692908729      -0.0000000027     0.999997    0.00001459
  388       -6.2692908756      -0.0000000027     0.999997    0.00001454
  389       -6.2692908782      -0.0000000027     0.999997    0.00001449
  390       -6.2692908809      -0.0000000027     0.999997    0.00001444
  391       -6.2692908835      -0.0000000026     0.999997    0.00001440
  392       -6.2692908862      -0.0000000026     0.999997    0.00001435
  393       -6.2692908888      -0.0000000026     0.999997    0.00001430
  394       -6.2692908914      -0.0000000026     0.999997    0.00001425
  395       -6.2692908939      -0.0000000026     0.999997    0.00001421
  396       -6.2692908965      -0.0000000026     0.999997    0.00001416
  397       -6.2692908990      -0.0000000025     0.999997    0.00001411
  398       -6.2692909016      -0.0000000025     0.999997    0.00001407
  399       -6.2692909041      -0.0000000025     0.999997    0.00001402
  400       -6.2692909066      -0.0000000025     0.999997    0.00001398
  401       -6.2692909091      -0.0000000025     0.999997    0.00001393
  402       -6.2692909115      -0.0000000025     0.999997    0.00001389
  403       -6.2692909140      -0.0000000024     0.999997    0.00001384
  404       -6.2692909164      -0.0000000024     0.999997    0.00001380
  405       -6.2692909188      -0.0000000024     0.999997    0.00001376
  406       -6.2692909212      -0.0000000024     0.999997    0.00001371
  407       -6.2692909236      -0.0000000024     0.999997    0.00001367
  408       -6.2692909260      -0.0000000024     0.999997    0.00001363
  409       -6.2692909284      -0.0000000024     0.999997    0.00001358
  410       -6.2692909307      -0.0000000023     0.999997    0.00001354
  411       -6.2692909330      -0.0000000023     0.999997    0.00001350
  412       -6.2692909354      -0.0000000023     0.999997    0.00001346
  413       -6.2692909377      -0.0000000023     0.999997    0.00001341
  414       -6.2692909399      -0.0000000023     0.999997    0.00001337
  415       -6.2692909422      -0.0000000023     0.999997    0.00001333
  416       -6.2692909445      -0.0000000023     0.999997    0.00001329
  417       -6.2692909467      -0.0000000023     0.999997    0.00001325
  418       -6.2692909490      -0.0000000022     0.999997    0.00001321
  419       -6.2692909512      -0.0000000022     0.999997    0.00001317
  420       -6.2692909534      -0.0000000022     0.999997    0.00001313
  421       -6.2692909556      -0.0000000022     0.999997    0.00001309
  422       -6.2692909578      -0.0000000022     0.999997    0.00001305
  423       -6.2692909600      -0.0000000022     0.999997    0.00001301
  424       -6.2692909621      -0.0000000022     0.999997    0.00001297
  425       -6.2692909643      -0.0000000021     0.999997    0.00001293
  426       -6.2692909664      -0.0000000021     0.999997    0.00001290
  427       -6.2692909685      -0.0000000021     0.999997    0.00001286
  428       -6.2692909707      -0.0000000021     0.999997    0.00001282
  429       -6.2692909728      -0.0000000021     0.999997    0.00001278
  430       -6.2692909748      -0.0000000021     0.999997    0.00001274
  431       -6.2692909769      -0.0000000021     0.999997    0.00001271
  432       -6.2692909790      -0.0000000021     0.999997    0.00001267
  433       -6.2692909810      -0.0000000021     0.999997    0.00001263
  434       -6.2692909831      -0.0000000020     0.999997    0.00001260
  435       -6.2692909851      -0.0000000020     0.999997    0.00001256
  436       -6.2692909871      -0.0000000020     0.999997    0.00001252
  437       -6.2692909891      -0.0000000020     0.999997    0.00001249
  438       -6.2692909911      -0.0000000020     0.999997    0.00001245
  439       -6.2692909931      -0.0000000020     0.999997    0.00001242
  440       -6.2692909951      -0.0000000020     0.999997    0.00001238
  441       -6.2692909971      -0.0000000020     0.999997    0.00001235
  442       -6.2692909990      -0.0000000020     0.999997    0.00001231
  443       -6.2692910010      -0.0000000019     0.999997    0.00001228
  444       -6.2692910029      -0.0000000019     0.999997    0.00001224
  445       -6.2692910048      -0.0000000019     0.999997    0.00001221
  446       -6.2692910067      -0.0000000019     0.999997    0.00001218
  447       -6.2692910086      -0.0000000019     0.999997    0.00001214
  448       -6.2692910105      -0.0000000019     0.999997    0.00001211
  449       -6.2692910124      -0.0000000019     0.999997    0.00001207
  450       -6.2692910143      -0.0000000019     0.999997    0.00001204
  451       -6.2692910161      -0.0000000019     0.999997    0.00001201
  452       -6.2692910180      -0.0000000019     0.999997    0.00001198
  453       -6.2692910198      -0.0000000018     0.999997    0.00001194
  454       -6.2692910217      -0.0000000018     0.999997    0.00001191
  455       -6.2692910235      -0.0000000018     0.999997    0.00001188
  456       -6.2692910253      -0.0000000018     0.999997    0.00001185
  457       -6.2692910271      -0.0000000018     0.999997    0.00001182
  458       -6.2692910289      -0.0000000018     0.999997    0.00001178
  459       -6.2692910307      -0.0000000018     0.999997    0.00001175
  460       -6.2692910325      -0.0000000018     0.999997    0.00001172
  461       -6.2692910342      -0.0000000018     0.999997    0.00001169
  462       -6.2692910360      -0.0000000018     0.999997    0.00001166
  463       -6.2692910378      -0.0000000018     0.999997    0.00001163
  464       -6.2692910395      -0.0000000017     0.999997    0.00001160
  465       -6.2692910412      -0.0000000017     0.999997    0.00001157
  466       -6.2692910430      -0.0000000017     0.999997    0.00001154
  467       -6.2692910447      -0.0000000017     0.999997    0.00001151
  468       -6.2692910464      -0.0000000017     0.999997    0.00001148
  469       -6.2692910481      -0.0000000017     0.999997    0.00001145
  470       -6.2692910498      -0.0000000017     0.999997    0.00001142
  471       -6.2692910515      -0.0000000017     0.999997    0.00001139
  472       -6.2692910531      -0.0000000017     0.999997    0.00001136
  473       -6.2692910548      -0.0000000017     0.999997    0.00001133
  474       -6.2692910565      -0.0000000017     0.999997    0.00001130
  475       -6.2692910581      -0.0000000017     0.999997    0.00001128
  476       -6.2692910597      -0.0000000016     0.999997    0.00001125
  477       -6.2692910614      -0.0000000016     0.999997    0.00001122
  478       -6.2692910630      -0.0000000016     0.999997    0.00001119
  479       -6.2692910646      -0.0000000016     0.999997    0.00001116
  480       -6.2692910662      -0.0000000016     0.999997    0.00001114
  481       -6.2692910678      -0.0000000016     0.999997    0.00001111
  482       -6.2692910694      -0.0000000016     0.999997    0.00001108
  483       -6.2692910710      -0.0000000016     0.999997    0.00001105
  484       -6.2692910726      -0.0000000016     0.999997    0.00001103
  485       -6.2692910742      -0.0000000016     0.999997    0.00001100
  486       -6.2692910757      -0.0000000016     0.999997    0.00001097
  487       -6.2692910773      -0.0000000016     0.999997    0.00001095
  488       -6.2692910789      -0.0000000016     0.999997    0.00001092
  489       -6.2692910804      -0.0000000015     0.999997    0.00001089
  490       -6.2692910819      -0.0000000015     0.999997    0.00001087
  491       -6.2692910835      -0.0000000015     0.999997    0.00001084
  492       -6.2692910850      -0.0000000015     0.999997    0.00001082
  493       -6.2692910865      -0.0000000015     0.999997    0.00001079
  494       -6.2692910880      -0.0000000015     0.999997    0.00001077
  495       -6.2692910895      -0.0000000015     0.999997    0.00001074
  496       -6.2692910910      -0.0000000015     0.999997    0.00001072
  497       -6.2692910925      -0.0000000015     0.999997    0.00001069
  498       -6.2692910940      -0.0000000015     0.999997    0.00001067
  499       -6.2692910955      -0.0000000015     0.999997    0.00001064
  500       -6.2692910969      -0.0000000015     0.999997    0.00001062
  501       -6.2692910984      -0.0000000015     0.999997    0.00001059
  502       -6.2692910999      -0.0000000015     0.999997    0.00001057
  503       -6.2692911013      -0.0000000015     0.999997    0.00001054
  504       -6.2692911028      -0.0000000014     0.999997    0.00001052
  505       -6.2692911042      -0.0000000014     0.999997    0.00001050
  506       -6.2692911056      -0.0000000014     0.999997    0.00001047
  507       -6.2692911070      -0.0000000014     0.999997    0.00001045
  508       -6.2692911085      -0.0000000014     0.999997    0.00001043
  509       -6.2692911099      -0.0000000014     0.999997    0.00001040
  510       -6.2692911113      -0.0000000014     0.999997    0.00001038
  511       -6.2692911127      -0.0000000014     0.999997    0.00001036
  512       -6.2692911141      -0.0000000014     0.999997    0.00001033
  513       -6.2692911155      -0.0000000014     0.999997    0.00001031
  514       -6.2692911169      -0.0000000014     0.999997    0.00001029
  515       -6.2692911182      -0.0000000014     0.999997    0.00001027
  516       -6.2692911196      -0.0000000014     0.999997    0.00001024
  517       -6.2692911210      -0.0000000014     0.999997    0.00001022
  518       -6.2692911223      -0.0000000014     0.999997    0.00001020
  519       -6.2692911237      -0.0000000014     0.999997    0.00001018
  520       -6.2692911250      -0.0000000014     0.999997    0.00001016
  521       -6.2692911264      -0.0000000013     0.999997    0.00001013
  522       -6.2692911277      -0.0000000013     0.999997    0.00001011
  523       -6.2692911291      -0.0000000013     0.999997    0.00001009
  524       -6.2692911304      -0.0000000013     0.999997    0.00001007
  525       -6.2692911317      -0.0000000013     0.999997    0.00001005
  526       -6.2692911330      -0.0000000013     0.999997    0.00001003
  527       -6.2692911343      -0.0000000013     0.999997    0.00001001
  528       -6.2692911357      -0.0000000013     0.999997    0.00000999
  529       -6.2692911370      -0.0000000013     0.999997    0.00000997
  530       -6.2692911383      -0.0000000013     0.999997    0.00000994
  531       -6.2692911395      -0.0000000013     0.999997    0.00000992
  532       -6.2692911408      -0.0000000013     0.999997    0.00000990
  533       -6.2692911421      -0.0000000013     0.999997    0.00000988
  534       -6.2692911434      -0.0000000013     0.999997    0.00000986
  535       -6.2692911447      -0.0000000013     0.999997    0.00000984
  536       -6.2692911459      -0.0000000013     0.999997    0.00000982
  537       -6.2692911472      -0.0000000013     0.999997    0.00000980
  538       -6.2692911484      -0.0000000013     0.999997    0.00000978
  539       -6.2692911497      -0.0000000013     0.999997    0.00000976
  540       -6.2692911509      -0.0000000012     0.999997    0.00000975
  541       -6.2692911522      -0.0000000012     0.999997    0.00000973
  542       -6.2692911534      -0.0000000012     0.999997    0.00000971
  543       -6.2692911547      -0.0000000012     0.999997    0.00000969
  544       -6.2692911559      -0.0000000012     0.999997    0.00000967
  545       -6.2692911571      -0.0000000012     0.999997    0.00000965
  546       -6.2692911583      -0.0000000012     0.999997    0.00000963
  547       -6.2692911595      -0.0000000012     0.999997    0.00000961
  548       -6.2692911608      -0.0000000012     0.999997    0.00000959
  549       -6.2692911620      -0.0000000012     0.999997    0.00000958
  550       -6.2692911632      -0.0000000012     0.999997    0.00000956
  551       -6.2692911644      -0.0000000012     0.999997    0.00000954
  552       -6.2692911656      -0.0000000012     0.999997    0.00000952
  553       -6.2692911667      -0.0000000012     0.999997    0.00000950
  554       -6.2692911679      -0.0000000012     0.999997    0.00000949
  555       -6.2692911691      -0.0000000012     0.999997    0.00000947
  556       -6.2692911703      -0.0000000012     0.999997    0.00000945
  557       -6.2692911715      -0.0000000012     0.999997    0.00000943
  558       -6.2692911726      -0.0000000012     0.999997    0.00000942
  559       -6.2692911738      -0.0000000012     0.999997    0.00000940
  560       -6.2692911750      -0.0000000012     0.999997    0.00000938
  561       -6.2692911761      -0.0000000012     0.999997    0.00000936
  562       -6.2692911773      -0.0000000012     0.999997    0.00000935
  563       -6.2692911784      -0.0000000011     0.999997    0.00000933
  564       -6.2692911796      -0.0000000011     0.999997    0.00000931
  565       -6.2692911807      -0.0000000011     0.999997    0.00000930
  566       -6.2692911818      -0.0000000011     0.999997    0.00000928
  567       -6.2692911830      -0.0000000011     0.999997    0.00000926
  568       -6.2692911841      -0.0000000011     0.999997    0.00000925
  569       -6.2692911852      -0.0000000011     0.999997    0.00000923
  570       -6.2692911863      -0.0000000011     0.999997    0.00000921
  571       -6.2692911875      -0.0000000011     0.999997    0.00000920
  572       -6.2692911886      -0.0000000011     0.999997    0.00000918
  573       -6.2692911897      -0.0000000011     0.999997    0.00000917
  574       -6.2692911908      -0.0000000011     0.999997    0.00000915
  575       -6.2692911919      -0.0000000011     0.999997    0.00000913
  576       -6.2692911930      -0.0000000011     0.999997    0.00000912
  577       -6.2692911941      -0.0000000011     0.999997    0.00000910
  578       -6.2692911952      -0.0000000011     0.999997    0.00000909
  579       -6.2692911963      -0.0000000011     0.999997    0.00000907
  580       -6.2692911974      -0.0000000011     0.999997    0.00000906
  581       -6.2692911984      -0.0000000011     0.999997    0.00000904
  582       -6.2692911995      -0.0000000011     0.999997    0.00000903
  583       -6.2692912006      -0.0000000011     0.999997    0.00000901
  584       -6.2692912017      -0.0000000011     0.999997    0.00000900
  585       -6.2692912027      -0.0000000011     0.999997    0.00000898
  586       -6.2692912038      -0.0000000011     0.999997    0.00000897
  587       -6.2692912049      -0.0000000011     0.999997    0.00000895
  588       -6.2692912059      -0.0000000011     0.999997    0.00000894
  589       -6.2692912070      -0.0000000011     0.999997    0.00000892
  590       -6.2692912080      -0.0000000011     0.999997    0.00000891
  591       -6.2692912091      -0.0000000010     0.999997    0.00000890
  592       -6.2692912101      -0.0000000010     0.999997    0.00000888
  593       -6.2692912112      -0.0000000010     0.999997    0.00000887
  594       -6.2692912122      -0.0000000010     0.999997    0.00000885
  595       -6.2692912132      -0.0000000010     0.999997    0.00000884
  596       -6.2692912143      -0.0000000010     0.999997    0.00000882
  597       -6.2692912153      -0.0000000010     0.999997    0.00000881
  598       -6.2692912163      -0.0000000010     0.999997    0.00000880
  599       -6.2692912173      -0.0000000010     0.999997    0.00000878
  600       -6.2692912184      -0.0000000010     0.999997    0.00000877
  601       -6.2692912194      -0.0000000010     0.999997    0.00000876
  602       -6.2692912204      -0.0000000010     0.999997    0.00000874
  603       -6.2692912214      -0.0000000010     0.999997    0.00000873
  604       -6.2692912224      -0.0000000010     0.999997    0.00000872
  605       -6.2692912234      -0.0000000010     0.999997    0.00000870
  606       -6.2692912244      -0.0000000010     0.999997    0.00000869
  607       -6.2692912254      -0.0000000010     0.999997    0.00000868
  608       -6.2692912264      -0.0000000010     0.999997    0.00000867
  609       -6.2692912274      -0.0000000010     0.999997    0.00000865
  610       -6.2692912284      -0.0000000010     0.999997    0.00000864
  611       -6.2692912294      -0.0000000010     0.999997    0.00000863
  612       -6.2692912304      -0.0000000010     0.999997    0.00000861
  613       -6.2692912314      -0.0000000010     0.999997    0.00000860
  614       -6.2692912323      -0.0000000010     0.999997    0.00000859
  615       -6.2692912333      -0.0000000010     0.999997    0.00000858
  616       -6.2692912343      -0.0000000010     0.999997    0.00000856
  617       -6.2692912353      -0.0000000010     0.999997    0.00000855
  618       -6.2692912362      -0.0000000010     0.999997    0.00000854
  619       -6.2692912372      -0.0000000010     0.999997    0.00000853
  620       -6.2692912382      -0.0000000010     0.999997    0.00000852
  621       -6.2692912391      -0.0000000010     0.999997    0.00000850
  622       -6.2692912401      -0.0000000010     0.999997    0.00000849
  623       -6.2692912411      -0.0000000010     0.999997    0.00000848
  624       -6.2692912420      -0.0000000010     0.999997    0.00000847
  625       -6.2692912430      -0.0000000010     0.999997    0.00000846
  626       -6.2692912439      -0.0000000010     0.999997    0.00000845
  627       -6.2692912449      -0.0000000009     0.999997    0.00000844
  628       -6.2692912458      -0.0000000009     0.999997    0.00000842
  629       -6.2692912468      -0.0000000009     0.999997    0.00000841
  630       -6.2692912477      -0.0000000009     0.999997    0.00000840
  631       -6.2692912486      -0.0000000009     0.999997    0.00000839
  632       -6.2692912496      -0.0000000009     0.999997    0.00000838
  633       -6.2692912505      -0.0000000009     0.999997    0.00000837
  634       -6.2692912514      -0.0000000009     0.999997    0.00000836
  635       -6.2692912524      -0.0000000009     0.999997    0.00000835
  636       -6.2692912533      -0.0000000009     0.999997    0.00000834
  637       -6.2692912542      -0.0000000009     0.999997    0.00000833
  638       -6.2692912551      -0.0000000009     0.999997    0.00000831
  639       -6.2692912561      -0.0000000009     0.999997    0.00000830
  640       -6.2692912570      -0.0000000009     0.999997    0.00000829
  641       -6.2692912579      -0.0000000009     0.999997    0.00000828
  642       -6.2692912588      -0.0000000009     0.999997    0.00000827
  643       -6.2692912597      -0.0000000009     0.999997    0.00000826
  644       -6.2692912606      -0.0000000009     0.999997    0.00000825
  645       -6.2692912615      -0.0000000009     0.999997    0.00000824
  646       -6.2692912625      -0.0000000009     0.999997    0.00000823
  647       -6.2692912634      -0.0000000009     0.999997    0.00000822
  648       -6.2692912643      -0.0000000009     0.999997    0.00000821
  649       -6.2692912652      -0.0000000009     0.999997    0.00000820
  650       -6.2692912661      -0.0000000009     0.999997    0.00000819
  651       -6.2692912670      -0.0000000009     0.999997    0.00000818
  652       -6.2692912678      -0.0000000009     0.999997    0.00000817
  653       -6.2692912687      -0.0000000009     0.999997    0.00000816
  654       -6.2692912696      -0.0000000009     0.999997    0.00000815
  655       -6.2692912705      -0.0000000009     0.999997    0.00000814
  656       -6.2692912714      -0.0000000009     0.999997    0.00000813
  657       -6.2692912723      -0.0000000009     0.999997    0.00000813
  658       -6.2692912732      -0.0000000009     0.999997    0.00000812
  659       -6.2692912740      -0.0000000009     0.999997    0.00000811
  660       -6.2692912749      -0.0000000009     0.999997    0.00000810
  661       -6.2692912758      -0.0000000009     0.999997    0.00000809
  662       -6.2692912767      -0.0000000009     0.999997    0.00000808
  663       -6.2692912776      -0.0000000009     0.999997    0.00000807
  664       -6.2692912784      -0.0000000009     0.999997    0.00000806
  665       -6.2692912793      -0.0000000009     0.999997    0.00000805
  666       -6.2692912802      -0.0000000009     0.999997    0.00000804
  667       -6.2692912810      -0.0000000009     0.999997    0.00000804
  668       -6.2692912819      -0.0000000009     0.999997    0.00000803
  669       -6.2692912828      -0.0000000009     0.999997    0.00000802
  670       -6.2692912836      -0.0000000009     0.999997    0.00000801
  671       -6.2692912845      -0.0000000009     0.999997    0.00000800
  672       -6.2692912853      -0.0000000009     0.999997    0.00000799
  673       -6.2692912862      -0.0000000009     0.999997    0.00000798
  674       -6.2692912870      -0.0000000009     0.999997    0.00000798
  675       -6.2692912879      -0.0000000009     0.999997    0.00000797
  676       -6.2692912887      -0.0000000009     0.999997    0.00000796
  677       -6.2692912896      -0.0000000008     0.999997    0.00000795
  678       -6.2692912904      -0.0000000008     0.999997    0.00000794
  679       -6.2692912913      -0.0000000008     0.999997    0.00000794
  680       -6.2692912921      -0.0000000008     0.999997    0.00000793
  681       -6.2692912930      -0.0000000008     0.999997    0.00000792
  682       -6.2692912938      -0.0000000008     0.999997    0.00000791
  683       -6.2692912947      -0.0000000008     0.999997    0.00000790
  684       -6.2692912955      -0.0000000008     0.999997    0.00000790
  685       -6.2692912963      -0.0000000008     0.999997    0.00000789
  686       -6.2692912972      -0.0000000008     0.999997    0.00000788
  687       -6.2692912980      -0.0000000008     0.999997    0.00000787
  688       -6.2692912988      -0.0000000008     0.999997    0.00000787
  689       -6.2692912997      -0.0000000008     0.999997    0.00000786
  690       -6.2692913005      -0.0000000008     0.999997    0.00000785
  691       -6.2692913013      -0.0000000008     0.999997    0.00000785
  692       -6.2692913021      -0.0000000008     0.999997    0.00000784
  693       -6.2692913030      -0.0000000008     0.999997    0.00000783
  694       -6.2692913038      -0.0000000008     0.999997    0.00000782
  695       -6.2692913046      -0.0000000008     0.999997    0.00000782
  696       -6.2692913054      -0.0000000008     0.999997    0.00000781
  697       -6.2692913063      -0.0000000008     0.999997    0.00000780
  698       -6.2692913071      -0.0000000008     0.999997    0.00000780
  699       -6.2692913079      -0.0000000008     0.999997    0.00000779
  700       -6.2692913087      -0.0000000008     0.999997    0.00000778
  701       -6.2692913095      -0.0000000008     0.999997    0.00000778
  702       -6.2692913103      -0.0000000008     0.999997    0.00000777
  703       -6.2692913112      -0.0000000008     0.999997    0.00000776
  704       -6.2692913120      -0.0000000008     0.999997    0.00000776
  705       -6.2692913128      -0.0000000008     0.999997    0.00000775
  706       -6.2692913136      -0.0000000008     0.999997    0.00000774
  707       -6.2692913144      -0.0000000008     0.999997    0.00000774
  708       -6.2692913152      -0.0000000008     0.999997    0.00000773
  709       -6.2692913160      -0.0000000008     0.999997    0.00000772
  710       -6.2692913168      -0.0000000008     0.999997    0.00000772
  711       -6.2692913176      -0.0000000008     0.999997    0.00000771
  712       -6.2692913184      -0.0000000008     0.999997    0.00000771
  713       -6.2692913192      -0.0000000008     0.999997    0.00000770
  714       -6.2692913200      -0.0000000008     0.999997    0.00000769
  715       -6.2692913208      -0.0000000008     0.999997    0.00000769
  716       -6.2692913216      -0.0000000008     0.999997    0.00000768
  717       -6.2692913224      -0.0000000008     0.999997    0.00000768
  718       -6.2692913232      -0.0000000008     0.999997    0.00000767
  719       -6.2692913240      -0.0000000008     0.999997    0.00000767
  720       -6.2692913248      -0.0000000008     0.999997    0.00000766
  721       -6.2692913256      -0.0000000008     0.999997    0.00000765
  722       -6.2692913264      -0.0000000008     0.999997    0.00000765
  723       -6.2692913272      -0.0000000008     0.999997    0.00000764
  724       -6.2692913280      -0.0000000008     0.999997    0.00000764
  725       -6.2692913287      -0.0000000008     0.999997    0.00000763
  726       -6.2692913295      -0.0000000008     0.999997    0.00000763
  727       -6.2692913303      -0.0000000008     0.999997    0.00000762
  728       -6.2692913311      -0.0000000008     0.999997    0.00000762
  729       -6.2692913319      -0.0000000008     0.999997    0.00000761
  730       -6.2692913327      -0.0000000008     0.999997    0.00000761
  731       -6.2692913334      -0.0000000008     0.999997    0.00000760
  732       -6.2692913342      -0.0000000008     0.999997    0.00000760
  733       -6.2692913350      -0.0000000008     0.999997    0.00000759
  734       -6.2692913358      -0.0000000008     0.999997    0.00000759
  735       -6.2692913366      -0.0000000008     0.999997    0.00000758
  736       -6.2692913373      -0.0000000008     0.999997    0.00000758
  737       -6.2692913381      -0.0000000008     0.999997    0.00000757
  738       -6.2692913389      -0.0000000008     0.999997    0.00000757
  739       -6.2692913397      -0.0000000008     0.999997    0.00000756
  740       -6.2692913404      -0.0000000008     0.999997    0.00000756
  741       -6.2692913412      -0.0000000008     0.999997    0.00000755
  742       -6.2692913420      -0.0000000008     0.999997    0.00000755
  743       -6.2692913428      -0.0000000008     0.999997    0.00000754
  744       -6.2692913435      -0.0000000008     0.999997    0.00000754
  745       -6.2692913443      -0.0000000008     0.999997    0.00000754
  746       -6.2692913451      -0.0000000008     0.999997    0.00000753
  747       -6.2692913458      -0.0000000008     0.999997    0.00000753
  748       -6.2692913466      -0.0000000008     0.999997    0.00000752
  749       -6.2692913474      -0.0000000008     0.999997    0.00000752
  750       -6.2692913481      -0.0000000008     0.999997    0.00000751
  751       -6.2692913489      -0.0000000008     0.999997    0.00000751
  752       -6.2692913497      -0.0000000008     0.999997    0.00000751
  753       -6.2692913504      -0.0000000008     0.999997    0.00000750
  754       -6.2692913512      -0.0000000008     0.999997    0.00000750
  755       -6.2692913520      -0.0000000008     0.999997    0.00000749
  756       -6.2692913527      -0.0000000008     0.999997    0.00000749
  757       -6.2692913535      -0.0000000008     0.999997    0.00000749
  758       -6.2692913543      -0.0000000008     0.999997    0.00000748
  759       -6.2692913550      -0.0000000008     0.999997    0.00000748
  760       -6.2692913558      -0.0000000008     0.999997    0.00000748
  761       -6.2692913565      -0.0000000008     0.999997    0.00000747
  762       -6.2692913573      -0.0000000008     0.999997    0.00000747
  763       -6.2692913581      -0.0000000008     0.999997    0.00000747
  764       -6.2692913588      -0.0000000008     0.999997    0.00000746
  765       -6.2692913596      -0.0000000008     0.999997    0.00000746
  766       -6.2692913603      -0.0000000008     0.999997    0.00000746
  767       -6.2692913611      -0.0000000008     0.999997    0.00000745
  768       -6.2692913618      -0.0000000008     0.999997    0.00000745
  769       -6.2692913626      -0.0000000008     0.999997    0.00000745
  770       -6.2692913633      -0.0000000008     0.999997    0.00000744
  771       -6.2692913641      -0.0000000008     0.999997    0.00000744
  772       -6.2692913649      -0.0000000008     0.999997    0.00000744
  773       -6.2692913656      -0.0000000008     0.999997    0.00000743
  774       -6.2692913664      -0.0000000008     0.999997    0.00000743
  775       -6.2692913671      -0.0000000008     0.999997    0.00000743
  776       -6.2692913679      -0.0000000008     0.999997    0.00000743
  777       -6.2692913686      -0.0000000008     0.999997    0.00000742
  778       -6.2692913694      -0.0000000008     0.999997    0.00000742
  779       -6.2692913701      -0.0000000008     0.999997    0.00000742
  780       -6.2692913709      -0.0000000007     0.999997    0.00000741
  781       -6.2692913716      -0.0000000007     0.999997    0.00000741
  782       -6.2692913724      -0.0000000007     0.999997    0.00000741
  783       -6.2692913731      -0.0000000007     0.999997    0.00000741
  784       -6.2692913739      -0.0000000007     0.999997    0.00000740
  785       -6.2692913746      -0.0000000007     0.999997    0.00000740
  786       -6.2692913754      -0.0000000007     0.999997    0.00000740
  787       -6.2692913761      -0.0000000007     0.999997    0.00000740
  788       -6.2692913768      -0.0000000007     0.999997    0.00000740
  789       -6.2692913776      -0.0000000007     0.999997    0.00000739
  790       -6.2692913783      -0.0000000007     0.999997    0.00000739
  791       -6.2692913791      -0.0000000007     0.999997    0.00000739
  792       -6.2692913798      -0.0000000007     0.999997    0.00000739
  793       -6.2692913806      -0.0000000007     0.999997    0.00000738
  794       -6.2692913813      -0.0000000007     0.999997    0.00000738
  795       -6.2692913821      -0.0000000007     0.999997    0.00000738
  796       -6.2692913828      -0.0000000007     0.999997    0.00000738
  797       -6.2692913836      -0.0000000007     0.999997    0.00000738
  798       -6.2692913843      -0.0000000007     0.999997    0.00000738
  799       -6.2692913850      -0.0000000007     0.999997    0.00000737
  800       -6.2692913858      -0.0000000007     0.999997    0.00000737
  801       -6.2692913865      -0.0000000007     0.999997    0.00000737
  802       -6.2692913873      -0.0000000007     0.999997    0.00000737
  803       -6.2692913880      -0.0000000007     0.999997    0.00000737
  804       -6.2692913888      -0.0000000007     0.999997    0.00000737
  805       -6.2692913895      -0.0000000007     0.999997    0.00000736
  806       -6.2692913902      -0.0000000007     0.999997    0.00000736
  807       -6.2692913910      -0.0000000007     0.999997    0.00000736
  808       -6.2692913917      -0.0000000007     0.999997    0.00000736
  809       -6.2692913925      -0.0000000007     0.999997    0.00000736
  810       -6.2692913932      -0.0000000007     0.999997    0.00000736
  811       -6.2692913939      -0.0000000007     0.999997    0.00000736
  812       -6.2692913947      -0.0000000007     0.999997    0.00000736
  813       -6.2692913954      -0.0000000007     0.999997    0.00000735
  814       -6.2692913962      -0.0000000007     0.999997    0.00000735
  815       -6.2692913969      -0.0000000007     0.999997    0.00000735
  816       -6.2692913977      -0.0000000007     0.999997    0.00000735
  817       -6.2692913984      -0.0000000007     0.999997    0.00000735
  818       -6.2692913991      -0.0000000007     0.999997    0.00000735
  819       -6.2692913999      -0.0000000007     0.999997    0.00000735
  820       -6.2692914006      -0.0000000007     0.999997    0.00000735
  821       -6.2692914014      -0.0000000007     0.999997    0.00000735
  822       -6.2692914021      -0.0000000007     0.999997    0.00000735
  823       -6.2692914028      -0.0000000007     0.999997    0.00000735
  824       -6.2692914036      -0.0000000007     0.999997    0.00000735
  825       -6.2692914043      -0.0000000007     0.999997    0.00000735
  826       -6.2692914051      -0.0000000007     0.999997    0.00000734
  827       -6.2692914058      -0.0000000007     0.999997    0.00000734
  828       -6.2692914065      -0.0000000007     0.999997    0.00000734
  829       -6.2692914073      -0.0000000007     0.999997    0.00000734
  830       -6.2692914080      -0.0000000007     0.999997    0.00000734
  831       -6.2692914088      -0.0000000007     0.999997    0.00000734
  832       -6.2692914095      -0.0000000007     0.999997    0.00000734
  833       -6.2692914102      -0.0000000007     0.999997    0.00000734
  834       -6.2692914110      -0.0000000007     0.999997    0.00000734
  835       -6.2692914117      -0.0000000007     0.999997    0.00000734
  836       -6.2692914125      -0.0000000007     0.999997    0.00000734
  837       -6.2692914132      -0.0000000007     0.999997    0.00000734
  838       -6.2692914139      -0.0000000007     0.999997    0.00000734
  839       -6.2692914147      -0.0000000007     0.999997    0.00000734
  840       -6.2692914154      -0.0000000007     0.999997    0.00000734
  841       -6.2692914162      -0.0000000007     0.999997    0.00000734
  842       -6.2692914169      -0.0000000007     0.999997    0.00000734
  843       -6.2692914177      -0.0000000007     0.999997    0.00000734
  844       -6.2692914184      -0.0000000007     0.999997    0.00000734
  845       -6.2692914191      -0.0000000007     0.999997    0.00000734
  846       -6.2692914199      -0.0000000007     0.999997    0.00000735
  847       -6.2692914206      -0.0000000007     0.999997    0.00000735
  848       -6.2692914214      -0.0000000007     0.999997    0.00000735
  849       -6.2692914221      -0.0000000007     0.999997    0.00000735
  850       -6.2692914229      -0.0000000007     0.999997    0.00000735
  851       -6.2692914236      -0.0000000007     0.999997    0.00000735
  852       -6.2692914243      -0.0000000007     0.999997    0.00000735
  853       -6.2692914251      -0.0000000007     0.999997    0.00000735
  854       -6.2692914258      -0.0000000007     0.999997    0.00000735
  855       -6.2692914266      -0.0000000007     0.999997    0.00000735
  856       -6.2692914273      -0.0000000007     0.999997    0.00000735
  857       -6.2692914281      -0.0000000007     0.999997    0.00000735
  858       -6.2692914288      -0.0000000007     0.999997    0.00000735
  859       -6.2692914296      -0.0000000007     0.999997    0.00000736
  860       -6.2692914303      -0.0000000007     0.999997    0.00000736
  861       -6.2692914311      -0.0000000007     0.999997    0.00000736
  862       -6.2692914318      -0.0000000007     0.999997    0.00000736
  863       -6.2692914326      -0.0000000007     0.999997    0.00000736
  864       -6.2692914333      -0.0000000007     0.999997    0.00000736
  865       -6.2692914341      -0.0000000007     0.999997    0.00000736
  866       -6.2692914348      -0.0000000007     0.999997    0.00000736
  867       -6.2692914355      -0.0000000007     0.999997    0.00000737
  868       -6.2692914363      -0.0000000007     0.999997    0.00000737
  869       -6.2692914370      -0.0000000008     0.999997    0.00000737
  870       -6.2692914378      -0.0000000008     0.999997    0.00000737
  871       -6.2692914386      -0.0000000008     0.999997    0.00000737
  872       -6.2692914393      -0.0000000008     0.999997    0.00000737
  873       -6.2692914401      -0.0000000008     0.999997    0.00000738
  874       -6.2692914408      -0.0000000008     0.999997    0.00000738
  875       -6.2692914416      -0.0000000008     0.999997    0.00000738
  876       -6.2692914423      -0.0000000008     0.999997    0.00000738
  877       -6.2692914431      -0.0000000008     0.999997    0.00000738
  878       -6.2692914438      -0.0000000008     0.999997    0.00000738
  879       -6.2692914446      -0.0000000008     0.999997    0.00000739
  880       -6.2692914453      -0.0000000008     0.999997    0.00000739
  881       -6.2692914461      -0.0000000008     0.999997    0.00000739
  882       -6.2692914468      -0.0000000008     0.999997    0.00000739
  883       -6.2692914476      -0.0000000008     0.999997    0.00000740
  884       -6.2692914484      -0.0000000008     0.999997    0.00000740
  885       -6.2692914491      -0.0000000008     0.999997    0.00000740
  886       -6.2692914499      -0.0000000008     0.999997    0.00000740
  887       -6.2692914506      -0.0000000008     0.999997    0.00000740
  888       -6.2692914514      -0.0000000008     0.999997    0.00000741
  889       -6.2692914522      -0.0000000008     0.999997    0.00000741
  890       -6.2692914529      -0.0000000008     0.999997    0.00000741
  891       -6.2692914537      -0.0000000008     0.999997    0.00000741
  892       -6.2692914544      -0.0000000008     0.999997    0.00000742
  893       -6.2692914552      -0.0000000008     0.999997    0.00000742
  894       -6.2692914560      -0.0000000008     0.999997    0.00000742
  895       -6.2692914567      -0.0000000008     0.999997    0.00000743
  896       -6.2692914575      -0.0000000008     0.999997    0.00000743
  897       -6.2692914583      -0.0000000008     0.999997    0.00000743
  898       -6.2692914590      -0.0000000008     0.999997    0.00000743
  899       -6.2692914598      -0.0000000008     0.999997    0.00000744
  900       -6.2692914606      -0.0000000008     0.999997    0.00000744
  901       -6.2692914613      -0.0000000008     0.999997    0.00000744
  902       -6.2692914621      -0.0000000008     0.999997    0.00000745
  903       -6.2692914629      -0.0000000008     0.999997    0.00000745
  904       -6.2692914636      -0.0000000008     0.999997    0.00000745
  905       -6.2692914644      -0.0000000008     0.999997    0.00000746
  906       -6.2692914652      -0.0000000008     0.999997    0.00000746
  907       -6.2692914660      -0.0000000008     0.999997    0.00000746
  908       -6.2692914667      -0.0000000008     0.999997    0.00000747
  909       -6.2692914675      -0.0000000008     0.999997    0.00000747
  910       -6.2692914683      -0.0000000008     0.999997    0.00000747
  911       -6.2692914691      -0.0000000008     0.999997    0.00000748
  912       -6.2692914699      -0.0000000008     0.999997    0.00000748
  913       -6.2692914706      -0.0000000008     0.999997    0.00000748
  914       -6.2692914714      -0.0000000008     0.999997    0.00000749
  915       -6.2692914722      -0.0000000008     0.999997    0.00000749
  916       -6.2692914730      -0.0000000008     0.999997    0.00000750
  917       -6.2692914738      -0.0000000008     0.999997    0.00000750
  918       -6.2692914745      -0.0000000008     0.999997    0.00000750
  919       -6.2692914753      -0.0000000008     0.999997    0.00000751
  920       -6.2692914761      -0.0000000008     0.999997    0.00000751
  921       -6.2692914769      -0.0000000008     0.999997    0.00000752
  922       -6.2692914777      -0.0000000008     0.999997    0.00000752
  923       -6.2692914785      -0.0000000008     0.999997    0.00000752
  924       -6.2692914793      -0.0000000008     0.999997    0.00000753
  925       -6.2692914801      -0.0000000008     0.999997    0.00000753
  926       -6.2692914808      -0.0000000008     0.999997    0.00000754
  927       -6.2692914816      -0.0000000008     0.999997    0.00000754
  928       -6.2692914824      -0.0000000008     0.999997    0.00000755
  929       -6.2692914832      -0.0000000008     0.999997    0.00000755
  930       -6.2692914840      -0.0000000008     0.999997    0.00000756
  931       -6.2692914848      -0.0000000008     0.999997    0.00000756
  932       -6.2692914856      -0.0000000008     0.999997    0.00000756
  933       -6.2692914864      -0.0000000008     0.999997    0.00000757
  934       -6.2692914872      -0.0000000008     0.999997    0.00000757
  935       -6.2692914880      -0.0000000008     0.999997    0.00000758
  936       -6.2692914888      -0.0000000008     0.999997    0.00000758
  937       -6.2692914896      -0.0000000008     0.999997    0.00000759
  938       -6.2692914904      -0.0000000008     0.999997    0.00000759
  939       -6.2692914912      -0.0000000008     0.999997    0.00000760
  940       -6.2692914920      -0.0000000008     0.999997    0.00000760
  941       -6.2692914929      -0.0000000008     0.999997    0.00000761
  942       -6.2692914937      -0.0000000008     0.999997    0.00000761
  943       -6.2692914945      -0.0000000008     0.999997    0.00000762
  944       -6.2692914953      -0.0000000008     0.999997    0.00000763
  945       -6.2692914961      -0.0000000008     0.999997    0.00000763
  946       -6.2692914969      -0.0000000008     0.999997    0.00000764
  947       -6.2692914977      -0.0000000008     0.999997    0.00000764
  948       -6.2692914985      -0.0000000008     0.999997    0.00000765
  949       -6.2692914994      -0.0000000008     0.999997    0.00000765
  950       -6.2692915002      -0.0000000008     0.999997    0.00000766
  951       -6.2692915010      -0.0000000008     0.999997    0.00000766
  952       -6.2692915018      -0.0000000008     0.999997    0.00000767
  953       -6.2692915027      -0.0000000008     0.999997    0.00000768
  954       -6.2692915035      -0.0000000008     0.999997    0.00000768
  955       -6.2692915043      -0.0000000008     0.999997    0.00000769
  956       -6.2692915051      -0.0000000008     0.999997    0.00000769
  957       -6.2692915060      -0.0000000008     0.999997    0.00000770
  958       -6.2692915068      -0.0000000008     0.999997    0.00000771
  959       -6.2692915076      -0.0000000008     0.999997    0.00000771
  960       -6.2692915085      -0.0000000008     0.999997    0.00000772
  961       -6.2692915093      -0.0000000008     0.999997    0.00000772
  962       -6.2692915101      -0.0000000008     0.999997    0.00000773
  963       -6.2692915110      -0.0000000008     0.999997    0.00000774
  964       -6.2692915118      -0.0000000008     0.999997    0.00000774
  965       -6.2692915127      -0.0000000008     0.999997    0.00000775
  966       -6.2692915135      -0.0000000008     0.999997    0.00000776
  967       -6.2692915144      -0.0000000008     0.999997    0.00000776
  968       -6.2692915152      -0.0000000008     0.999997    0.00000777
  969       -6.2692915160      -0.0000000008     0.999997    0.00000778
  970       -6.2692915169      -0.0000000009     0.999997    0.00000778
  971       -6.2692915178      -0.0000000009     0.999997    0.00000779
  972       -6.2692915186      -0.0000000009     0.999997    0.00000780
  973       -6.2692915195      -0.0000000009     0.999997    0.00000780
  974       -6.2692915203      -0.0000000009     0.999997    0.00000781
  975       -6.2692915212      -0.0000000009     0.999997    0.00000782
  976       -6.2692915220      -0.0000000009     0.999997    0.00000783
  977       -6.2692915229      -0.0000000009     0.999997    0.00000783
  978       -6.2692915238      -0.0000000009     0.999997    0.00000784
  979       -6.2692915246      -0.0000000009     0.999997    0.00000785
  980       -6.2692915255      -0.0000000009     0.999997    0.00000786
  981       -6.2692915264      -0.0000000009     0.999997    0.00000786
  982       -6.2692915272      -0.0000000009     0.999997    0.00000787
  983       -6.2692915281      -0.0000000009     0.999997    0.00000788
  984       -6.2692915290      -0.0000000009     0.999997    0.00000789
  985       -6.2692915299      -0.0000000009     0.999997    0.00000789
  986       -6.2692915307      -0.0000000009     0.999997    0.00000790
  987       -6.2692915316      -0.0000000009     0.999997    0.00000791
  988       -6.2692915325      -0.0000000009     0.999997    0.00000792
  989       -6.2692915334      -0.0000000009     0.999997    0.00000793
  990       -6.2692915343      -0.0000000009     0.999997    0.00000793
  991       -6.2692915352      -0.0000000009     0.999997    0.00000794
  992       -6.2692915361      -0.0000000009     0.999997    0.00000795
  993       -6.2692915369      -0.0000000009     0.999997    0.00000796
  994       -6.2692915378      -0.0000000009     0.999997    0.00000797
  995       -6.2692915387      -0.0000000009     0.999997    0.00000798
  996       -6.2692915396      -0.0000000009     0.999997    0.00000798
  997       -6.2692915405      -0.0000000009     0.999997    0.00000799
  998       -6.2692915414      -0.0000000009     0.999997    0.00000800
  999       -6.2692915423      -0.0000000009     0.999997    0.00000801
 1000       -6.2692915432      -0.0000000009     0.999997    0.00000802

Total Energy:                       -6.2692915432 H         -170.5961 eV
Extrapolated to 0:                  -6.2422424008 H         -169.8601 eV

----------------------------------------------------------------------------------
 Solving CP-REKS equation for  1 state vector...
----------------------------------------------------------------------------------
  CG solver: Constructing Y initial guess
  CG solver: Iteration    1    eps =    0.053529242835
  CG solver: Iteration    2    eps =    0.017758552774
  CG solver: Iteration    3    eps =    0.105818954985
  CG solver: Iteration    4    eps = 1440.119296291678
  CG solver: Iteration    5    eps =    0.488735167146
  CG solver: Iteration    6    eps =    0.074312303319
  CG solver: Iteration    7    eps =    0.009222783609
  CG solver: Iteration    8    eps =    0.001656862199
  CG solver: Iteration    9    eps =    0.000103510551
  CG solver: Iteration   10    eps =    0.000006997345
  CG solver: Iteration   11    eps =    0.000001027679
  CG solver: Iteration   12    eps =    0.000000046478
  CG solver: Iteration   13    eps =    0.000000000824
  Convergence reached in CG solver after   13 iterations
  CG solver: Calculating converged R, Z, Q2 matrix
----------------------------------------------------------------------------------

----------------------------------------------------------------------------------
 Solving CP-REKS equation for SI between  1 and  2 state vectors...
----------------------------------------------------------------------------------
  CG solver: Constructing Y initial guess
  CG solver: Iteration    1    eps =    0.004845638761
  CG solver: Iteration    2    eps =    0.006662320222
  CG solver: Iteration    3    eps =    0.062118208030
  CG solver: Iteration    4    eps =    0.050344309111
  CG solver: Iteration    5    eps =    0.011844985592
  CG solver: Iteration    6    eps =    0.001830248293
  CG solver: Iteration    7    eps =    0.000073917079
  CG solver: Iteration    8    eps =    0.000020134799
  CG solver: Iteration    9    eps =    0.000000745472
  CG solver: Iteration   10    eps =    0.000000075101
  CG solver: Iteration   11    eps =    0.000000001325
  Convergence reached in CG solver after   11 iterations
  CG solver: Calculating converged R, Z, Q2 matrix
----------------------------------------------------------------------------------

--------------------------------------------------
 Gradient Information
--------------------------------------------------
           1 st state (SSR)
     0.00000000     0.00000000     0.00000000
     0.00000000     0.00000000     0.00000000
     0.00000000     0.00000000     0.00000000
     0.00000000     0.00000000     0.00000000
     0.00000000     0.00000000     0.00000000
     0.00000000     0.00000000     0.00000000

           2 st state (SSR)
     0.00000000     0.00000000     0.00000000
     0.00000000     0.00000000     0.00000000
     0.00000000     0.00000000     0.00000000
     0.00000000     0.00000000     0.00000000
     0.00000000     0.00000000     0.00000000
     0.00000000     0.00000000     0.00000000
--------------------------------------------------
 Coupling Information
--------------------------------------------------
 between  1 and  2 states
--------------------------------------------------
 g vector - difference gradient
    -0.44138893     0.77873393    -8.66366260
     0.02111738    -0.57706014     9.55555734
    -0.33504196    -3.59475604     0.26339226
    -0.19264322     3.91976188    -0.47817058
     0.60690113    -4.22269921    -0.86136044
     0.34105561     3.69601958     0.18424402

 h vector - derivative coupling
     0.09110120    -0.17049087     3.29140307
    -0.06449767     0.15921273    -3.51915708
     0.13797405     1.25599026    -0.09580754
     0.10520886    -1.41983513     0.12816126
    -0.12881990     1.46884160     0.35410595
    -0.14096655    -1.29371859    -0.15870567

 G vector - GDV
     0.00000000     0.00000000     0.00000000
     0.00000000     0.00000000     0.00000000
     0.00000000     0.00000000     0.00000000
     0.00000000     0.00000000     0.00000000
     0.00000000     0.00000000     0.00000000
     0.00000000     0.00000000     0.00000000

 H vector - DCV - non-adiabatic coupling
     0.00000000     0.00000000     0.00000000
     0.00000000     0.00000000     0.00000000
     0.00000000     0.00000000     0.00000000
     0.00000000     0.00000000     0.00000000
     0.00000000     0.00000000     0.00000000
     0.00000000     0.00000000     0.00000000
--------------------------------------------------

WARNING!
-> SCC is NOT converged, maximal SCC iterations exceeded

--------------------------------------------------------------------------------
DFTB+ running times                          cpu [s]             wall clock [s]
--------------------------------------------------------------------------------
SCC                                    +     0.43  ( 96.7%)      0.44  ( 94.8%)
      Sparse to dense                        0.02  (  4.5%)      0.02  (  3.7%)
      Dense to sparse                        0.07  ( 15.1%)      0.07  ( 15.4%)
      Range separated Hamiltonian            0.03  (  6.2%)      0.03  (  6.7%)
  Density matrix creation                    0.05  ( 11.5%)      0.05  ( 10.9%)
  Force calculation                          0.01  (  2.9%)      0.01  (  2.8%)
--------------------------------------------------------------------------------
Missing                                +     0.01  (  3.3%)      0.02  (  5.2%)
Total                                  =     0.45  (100.0%)      0.46  (100.0%)
--------------------------------------------------------------------------------
