     6
  Step:   300            Position(A)                                  Velocity(au)
C        -0.03429340    -0.00039262     0.01530317     0.00004777     0.00001141    -0.00012081
N        -0.04284133    -0.04380378     1.30039096     0.00000486    -0.00002152     0.00007139
H         0.90186827    -0.18849356    -0.50535494     0.00017327    -0.00002819     0.00005902
H         0.80489835     0.10514374     1.85845088     0.00007388     0.00008421    -0.00005304
H        -0.93978071    -0.21610101     1.75748123    -0.00044392     0.00021598    -0.00036456
H        -0.97594439     0.24303856    -0.47158462    -0.00044001    -0.00010894     0.00080610
