     6
  Step:     0            Position(A)                                  Velocity(au)
C        -0.03937401     0.02285881     0.00276456    -0.00001837     0.00008925     0.00008975
N        -0.05137565    -0.06277214     1.30930744     0.00022504    -0.00002437    -0.00020365
H         0.96764682    -0.04678217    -0.52735960    -0.00075759    -0.00041718     0.00055597
H         0.89860532    -0.04410286     1.84158227    -0.00134737     0.00004463    -0.00002706
H        -0.92032341    -0.03410876     1.89660013    -0.00121807     0.00003833     0.00108624
H        -0.97574879     0.05513274    -0.54632126     0.00041468    -0.00039071     0.00014537
     6
  Step:     1            Position(A)                                  Velocity(au)
C        -0.03944585     0.02335503     0.00318756    -0.00000822     0.00009231     0.00006471
N        -0.05011735    -0.06291463     1.30829513     0.00023314    -0.00002778    -0.00016547
H         0.96331084    -0.04907539    -0.52437337    -0.00082150    -0.00042189     0.00053257
H         0.89069354    -0.04383211     1.84123983    -0.00153439     0.00005473    -0.00009261
H        -0.92679066    -0.03389436     1.90247525    -0.00113064     0.00003961     0.00104955
H        -0.97366351     0.05300755    -0.54581329     0.00034467    -0.00038647     0.00003878
     6
  Step:     2            Position(A)                                  Velocity(au)
C        -0.03946397     0.02386863     0.00347250     0.00000115     0.00009557     0.00003938
N        -0.04882520    -0.06307603     1.30749729     0.00023733    -0.00003127    -0.00012553
H         0.95866010    -0.05139741    -0.52153361    -0.00087181    -0.00042764     0.00050195
H         0.88182003    -0.04350414     1.84056915    -0.00169613     0.00006560    -0.00014562
H        -0.93269191    -0.03367546     1.90808160    -0.00101302     0.00004002     0.00098908
H        -0.97197833     0.05090498    -0.54589700     0.00026921    -0.00038234    -0.00007027
     6
  Step:     3            Position(A)                                  Velocity(au)
C        -0.03943323     0.02440074     0.00361844     0.00000952     0.00009904     0.00001402
N        -0.04752067    -0.06325679     1.30692166     0.00023758    -0.00003485    -0.00008456
H         0.95377202    -0.05375437    -0.51888138    -0.00090747    -0.00043460     0.00046360
H         0.87213557    -0.04311440     1.83964654    -0.00182791     0.00007736    -0.00018321
H        -0.93787444    -0.03345650     1.91329713    -0.00086989     0.00003967     0.00090789
H        -0.97071800     0.04882419    -0.54658217     0.00019026    -0.00037841    -0.00018033
     6
  Step:     4            Position(A)                                  Velocity(au)
C        -0.03935975     0.02495243     0.00362594     0.00001666     0.00010270    -0.00001110
N        -0.04622528    -0.06345736     1.30657195     0.00023390    -0.00003850    -0.00004330
H         0.94872937    -0.05615332    -0.51646032    -0.00092765    -0.00044292     0.00041712
H         0.86181670    -0.04265760     1.83856427    -0.00192518     0.00009016    -0.00020251
H        -0.94221139    -0.03324134     1.91801693    -0.00070600     0.00003867     0.00080916
H        -0.96989625     0.04676393    -0.54787042     0.00010987    -0.00037474    -0.00028988
     6
  Step:     5            Position(A)                                  Velocity(au)
C        -0.03925085     0.02552478     0.00349699     0.00002238     0.00010655    -0.00003571
N        -0.04496059    -0.06367817     1.30644777     0.00022630    -0.00004223    -0.00000249
H         0.94361879    -0.05860222    -0.51431592    -0.00093181    -0.00045279     0.00036226
H         0.85106427    -0.04212756     1.83743008    -0.00198374     0.00010418    -0.00020079
H        -0.94560167    -0.03303324     1.92215351    -0.00052597     0.00003712     0.00069606
H        -0.96951543     0.04472258    -0.54975499     0.00003011    -0.00037140    -0.00039743
     6
  Step:     6            Position(A)                                  Velocity(au)
C        -0.03911481     0.02611878     0.00323502     0.00002650     0.00011058    -0.00005958
N        -0.04374804    -0.06391963     1.30654471     0.00021481    -0.00004604     0.00003717
H         0.93852912    -0.06110986    -0.51249473    -0.00091974    -0.00046434     0.00029892
H         0.84010130    -0.04151713     1.83636626    -0.00199997     0.00011961    -0.00017563
H        -0.94796900    -0.03283494     1.92563652    -0.00033421     0.00003513     0.00057166
H        -0.96956663     0.04269829    -0.55222096    -0.00004703    -0.00036843    -0.00050153
     6
  Step:     7            Position(A)                                  Velocity(au)
C        -0.03896068     0.02673542     0.00284474     0.00002893     0.00011479    -0.00008247
N        -0.04260880    -0.06418217     1.30685467     0.00019952    -0.00004992     0.00007503
H         0.93354942    -0.06368587    -0.51104335    -0.00089159    -0.00047773     0.00022716
H         0.82916847    -0.04081806     1.83550726    -0.00197124     0.00013664    -0.00012512
H        -0.94926066    -0.03264866     1.92841209    -0.00013491     0.00003277     0.00043891
H        -0.97003031     0.04068898    -0.55524575    -0.00011970    -0.00036586    -0.00060086
     6
  Step:     8            Position(A)                                  Velocity(au)
C        -0.03879801     0.02737561     0.00233203     0.00002960     0.00011916    -0.00010420
N        -0.04156344    -0.06446623     1.30736620     0.00018059    -0.00005389     0.00011054
H         0.92876704    -0.06634058    -0.51000755    -0.00084789    -0.00049308     0.00014725
H         0.81851816    -0.04002100     1.83499635    -0.00189614     0.00015549    -0.00004808
H        -0.94944616    -0.03247613     1.93044220     0.00006800     0.00003014     0.00030064
H        -0.97087719     0.03869248    -0.55879978    -0.00018624    -0.00036370    -0.00069425
     6
  Step:     9            Position(A)                                  Velocity(au)
C        -0.03863657     0.02804021     0.00170375     0.00002850     0.00012369    -0.00012461
N        -0.04063141    -0.06477225     1.30806505     0.00015827    -0.00005795     0.00014326
H         0.92426532    -0.06908487    -0.50943103    -0.00078960    -0.00051046     0.00005966
H         0.80840649    -0.03911553     1.83498079    -0.00177491     0.00017633     0.00005565
H        -0.94851612    -0.03231865     1.93170400     0.00027078     0.00002731     0.00015955
H        -0.97206956     0.03670662    -0.56284747    -0.00024525    -0.00036195    -0.00078069
     6
  Step:    10            Position(A)                                  Velocity(au)
C        -0.03848596     0.02873000     0.00096753     0.00002568     0.00012836    -0.00014359
N        -0.03983043    -0.06510071     1.30893481     0.00013294    -0.00006209     0.00017285
H         0.92012113    -0.07192992    -0.50935427    -0.00071809    -0.00052990    -0.00003490
H         0.79908336    -0.03809023     1.83560569    -0.00160963     0.00019933     0.00018505
H        -0.94648124    -0.03217706     1.93218927     0.00046983     0.00002438     0.00001827
H        -0.97356263     0.03472926    -0.56734817    -0.00029559    -0.00036058    -0.00085938
     6
  Step:    11            Position(A)                                  Velocity(au)
C        -0.03835534     0.02944568     0.00013156     0.00002127     0.00013315    -0.00016103
N        -0.03917576    -0.06545212     1.30995762     0.00010513    -0.00006633     0.00019911
H         0.91640258    -0.07488694    -0.50981316    -0.00063516    -0.00055135    -0.00013549
H         0.79078196    -0.03693298     1.83700698    -0.00140435     0.00022458     0.00033774
H        -0.94337176    -0.03205174     1.93190408     0.00066161     0.00002142    -0.00012061
H        -0.97530615     0.03275844    -0.57225726    -0.00033641    -0.00035956    -0.00092967
     6
  Step:    12            Position(A)                                  Velocity(au)
C        -0.03825308     0.03018781    -0.00079561     0.00001542     0.00013802    -0.00017690
N        -0.03867941    -0.06582694     1.31111485     0.00007549    -0.00007065     0.00022197
H         0.91316678    -0.07796669    -0.51083779    -0.00054295    -0.00057470    -0.00024095
H         0.78370720    -0.03563131     1.83930357    -0.00116519     0.00025208     0.00050988
H        -0.93923734    -0.03194256     1.93086869     0.00084251     0.00001853    -0.00025447
H        -0.97724595     0.03079248    -0.57752708    -0.00036710    -0.00035880    -0.00099104
     6
  Step:    13            Position(A)                                  Velocity(au)
C        -0.03818650     0.03095676    -0.00180523     0.00000836     0.00014293    -0.00019115
N        -0.03834931    -0.06622564     1.31238781     0.00004484    -0.00007505     0.00024144
H         0.91045805    -0.08117909    -0.51245123    -0.00044393    -0.00059971    -0.00034987
H         0.77802482    -0.03417303     1.84258937    -0.00090014     0.00028173     0.00069623
H        -0.93414752    -0.03184885     1.92911796     0.00100879     0.00001583    -0.00038059
H        -0.97932538     0.02883008    -0.58310772    -0.00038733    -0.00035822    -0.00104312
     6
  Step:    14            Position(A)                                  Velocity(au)
C        -0.03816160     0.03175267    -0.00288845     0.00000033     0.00014783    -0.00020378
N        -0.03818854    -0.06664858     1.31375824     0.00001411    -0.00007949     0.00025763
H         0.90830639    -0.08453257    -0.51466830    -0.00034083    -0.00062602    -0.00046061
H         0.77385211    -0.03254684     1.84692614    -0.00061868     0.00031325     0.00089031
H        -0.92819271    -0.03176926     1.92670187     0.00115645     0.00001344    -0.00049607
H        -0.98148664     0.02687049    -0.58894763    -0.00039697    -0.00035769    -0.00108559
     6
  Step:    15            Position(A)                                  Velocity(au)
C        -0.03818288     0.03257534    -0.00403642    -0.00000837     0.00015263    -0.00021476
N        -0.03819481    -0.06709595     1.31520868    -0.00001565    -0.00008393     0.00027070
H         0.90672630    -0.08803346    -0.51749448    -0.00023654    -0.00065316    -0.00057131
H         0.77125082    -0.03074318     1.85233747    -0.00033137     0.00034625     0.00108471
H        -0.92148542    -0.03170172     1.92368646     0.00128123     0.00001150    -0.00059784
H        -0.98367187     0.02491367    -0.59499401    -0.00039608    -0.00035705    -0.00111819
     6
  Step:    16            Position(A)                                  Velocity(au)
C        -0.03825323     0.03342415    -0.00524027    -0.00001743     0.00015725    -0.00022408
N        -0.03835997    -0.06756774     1.31672263    -0.00004338    -0.00008834     0.00028079
H         0.90571608    -0.09168536    -0.52092479    -0.00013407    -0.00068054    -0.00067994
H         0.77022326    -0.02875509     1.85880484    -0.00004919     0.00038014     0.00127150
H        -0.91416192    -0.03164327     1.92015494     0.00137863     0.00001020    -0.00068265
H        -0.98582412     0.02296039    -0.60119295    -0.00038487    -0.00035613    -0.00114067
     6
  Step:    17            Position(A)                                  Velocity(au)
C        -0.03837382     0.03429795    -0.00649112    -0.00002654     0.00016158    -0.00023173
N        -0.03866999    -0.06806364     1.31828457    -0.00006799    -0.00009263     0.00028806
H         0.90525760    -0.09548846    -0.52494297    -0.00003644    -0.00070746    -0.00078432
H         0.77071191    -0.02657895     1.86626623     0.00021713     0.00041422     0.00144277
H        -0.90638310    -0.03158996     1.91620832     0.00144414     0.00000972    -0.00074722
H        -0.98788801     0.02101240    -0.60748955    -0.00036373    -0.00035474    -0.00115285
     6
  Step:    18            Position(A)                                  Velocity(au)
C        -0.03854413     0.03519505    -0.00778005    -0.00003539     0.00016550    -0.00023769
N        -0.03910515    -0.06858295     1.31987973    -0.00008850    -0.00009674     0.00029262
H         0.90531667    -0.09943912    -0.52952099     0.00005348    -0.00073317    -0.00088224
H         0.77260299    -0.02421517     1.87461769     0.00045785     0.00044772     0.00159121
H        -0.89833409    -0.03153673     1.91196538     0.00147348     0.00001026    -0.00078839
H        -0.98981062     0.01907248    -0.61382820    -0.00033320    -0.00035268    -0.00115463
     6
  Step:    19            Position(A)                                  Velocity(au)
C        -0.03876198     0.03611310    -0.00909804    -0.00004369     0.00016891    -0.00024196
N        -0.03964065    -0.06912464     1.32149393    -0.00010407    -0.00010060     0.00029458
H         0.90584411    -0.10352954    -0.53461896     0.00013307    -0.00075691    -0.00097156
H         0.77573338    -0.02166859     1.88371782     0.00066479     0.00047979     0.00171059
H        -0.89022271    -0.03147743     1.90756167     0.00146297     0.00001202    -0.00080338
H        -0.99154241     0.01714441    -0.62015302    -0.00029401    -0.00034978    -0.00114607
     6
  Step:    20            Position(A)                                  Velocity(au)
C        -0.03902368     0.03704920    -0.01043605    -0.00005117     0.00017171    -0.00024454
N        -0.04024756    -0.06968723     1.32311335    -0.00011408    -0.00010414     0.00029400
H         0.90677734    -0.10774775    -0.54018576     0.00020010    -0.00077797    -0.00105033
H         0.77990044    -0.01894849     1.89339482     0.00083187     0.00050966     0.00179628
H        -0.88227503    -0.03140476     1.90314671     0.00141008     0.00001519    -0.00079015
H        -0.99303802     0.01523293    -0.62640859    -0.00024707    -0.00034590    -0.00112739
     6
  Step:    21            Position(A)                                  Velocity(au)
C        -0.03932424     0.03799989    -0.01178506    -0.00005763     0.00017382    -0.00024545
N        -0.04089414    -0.07026895     1.32472443    -0.00011815    -0.00010731     0.00029094
H         0.90804289    -0.11207796    -0.54616023     0.00025289    -0.00079572    -0.00111697
H         0.78487407    -0.01606836     1.90345564     0.00095533     0.00053664     0.00184549
H        -0.87472847    -0.03131048     1.89887931     0.00131379     0.00001992    -0.00074772
H        -0.99425722     0.01334356    -0.63254096    -0.00019340    -0.00034095    -0.00109905
     6
  Step:    22            Position(A)                                  Velocity(au)
C        -0.03965763     0.03896133    -0.01313619    -0.00006291     0.00017519    -0.00024477
N        -0.04154732    -0.07086770     1.32631392    -0.00011624    -0.00011007     0.00028552
H         0.90955926    -0.11650113    -0.55247311     0.00029032    -0.00080972    -0.00117030
H         0.79040967    -0.01304516     1.91369633     0.00103383     0.00056021     0.00185737
H        -0.86782251    -0.03118565     1.89492135     0.00117504     0.00002628    -0.00067641
H        -0.99516556     0.01148231    -0.63849881    -0.00013417    -0.00033486    -0.00106174
     6
  Step:    23            Position(A)                                  Velocity(au)
C        -0.04001714     0.03992940    -0.01448088    -0.00006694     0.00017581    -0.00024257
N        -0.04217439    -0.07148122     1.32786911    -0.00010858    -0.00011240     0.00027790
H         0.91124042    -0.12099592    -0.55904956     0.00031199    -0.00081966    -0.00120968
H         0.79626036    -0.00989843     1.92391208     0.00106813     0.00058004     0.00183281
H        -0.86178697    -0.03102103     1.89142960     0.00099698     0.00003426    -0.00057811
H        -0.99573494     0.00965549    -0.64423458    -0.00007059    -0.00032766    -0.00101634
     6
  Step:    24            Position(A)                                  Velocity(au)
C        -0.04039573     0.04089993    -0.01581098    -0.00006967     0.00017569    -0.00023898
N        -0.04274462    -0.07210714     1.32937826    -0.00009569    -0.00011431     0.00026831
H         0.91299945    -0.12553937    -0.56581198     0.00031805    -0.00082549    -0.00123496
H         0.80218772    -0.00664924     1.93390627     0.00106091     0.00059601     0.00177428
H        -0.85682899    -0.03080788     1.88854671     0.00078490     0.00004376    -0.00045621
H        -0.99594394     0.00786927    -0.64970577    -0.00000389    -0.00031939    -0.00096394
     6
  Step:    25            Position(A)                                  Velocity(au)
C        -0.04078628     0.04186887    -0.01711902    -0.00007114     0.00017488    -0.00023413
N        -0.04323073    -0.07274310     1.33083101    -0.00007832    -0.00011580     0.00025705
H         0.91475143    -0.13010872    -0.57268261     0.00030919    -0.00082734    -0.00124645
H         0.80797201    -0.00331893     1.94349885     0.00101623     0.00060821     0.00168542
H        -0.85312222    -0.03053798     1.88639341     0.00054598     0.00005460    -0.00031549
H        -0.99577787     0.00612964    -0.65487571     0.00006473    -0.00031013    -0.00090569
     6
  Step:    26            Position(A)                                  Velocity(au)
C        -0.04118192     0.04283243    -0.01839827    -0.00007142     0.00017344    -0.00022818
N        -0.04361010    -0.07338684     1.33221886    -0.00005740    -0.00011691     0.00024453
H         0.91641618    -0.13468197    -0.57958599     0.00028652    -0.00082547    -0.00124483
H         0.81341764     0.00007186     1.95253120     0.00093895     0.00061688     0.00157052
H        -0.85079554    -0.03020456     1.88506040     0.00028904     0.00006647    -0.00016189
H        -0.99522863     0.00444213    -0.65971424     0.00013413    -0.00029999    -0.00084285
     6
  Step:    27            Position(A)                                  Velocity(au)
C        -0.04157619     0.04378720    -0.01964279    -0.00007059     0.00017146    -0.00022127
N        -0.04386557    -0.07403623     1.33353559    -0.00003395    -0.00011767     0.00023116
H         0.91792047    -0.13923874    -0.58645096     0.00025147    -0.00082024    -0.00123108
H         0.81835716     0.00350407     1.96086944     0.00083433     0.00062239     0.00143416
H        -0.84992537    -0.02980278     1.88460280     0.00002383     0.00007899    -0.00000210
H        -0.99429432     0.00281167    -0.66419796     0.00020326    -0.00028907    -0.00077660
     6
  Step:    28            Position(A)                                  Velocity(au)
C        -0.04196326     0.04473021    -0.02084742    -0.00006879     0.00016901    -0.00021355
N        -0.04398583    -0.07468932     1.33477746    -0.00000901    -0.00011811     0.00021740
H         0.91919955    -0.14376081    -0.59321218     0.00020566    -0.00081209    -0.00120634
H         0.82265246     0.00696082     1.96840530     0.00070766     0.00062520     0.00128095
H        -0.85053175    -0.02933025     1.88503714    -0.00023959     0.00009169     0.00015698
H        -0.99297880     0.00124259    -0.66831006     0.00027118    -0.00027748    -0.00070809
     6
  Step:    29            Position(A)                                  Velocity(au)
C        -0.04233802     0.04565900    -0.02200777    -0.00006614     0.00016619    -0.00020512
N        -0.04396537    -0.07534432     1.33594329     0.00001639    -0.00011827     0.00020369
H         0.92019808    -0.14823253    -0.59981098     0.00015080    -0.00080149    -0.00117185
H         0.82619443     0.01042803     1.97505581     0.00056401     0.00062578     0.00111523
H        -0.85257883    -0.02878735     1.88634129    -0.00049154     0.00010408     0.00030864
H        -0.99129099    -0.00026143    -0.67203998     0.00033704    -0.00026534    -0.00063838
     6
  Step:    30            Position(A)                                  Velocity(au)
C        -0.04269601     0.04657156    -0.02312005    -0.00006275     0.00016308    -0.00019609
N        -0.04380423    -0.07599965     1.33703426     0.00004133    -0.00011816     0.00019041
H         0.92087037    -0.15264089    -0.60619572     0.00008861    -0.00078890    -0.00112886
H         0.82890135     0.01389418     1.98076150     0.00040806     0.00062463     0.00094100
H        -0.85597772    -0.02817712     1.88845675    -0.00072322     0.00011569     0.00044685
H        -0.98924463    -0.00169718    -0.67538293     0.00040002    -0.00025269    -0.00056840
     6
  Step:    31            Position(A)                                  Velocity(au)
C        -0.04303347     0.04746633    -0.02418097    -0.00005875     0.00015974    -0.00018654
N        -0.04350736    -0.07665387     1.33805355     0.00006500    -0.00011783     0.00017788
H         0.92118012    -0.15697553    -0.61232168     0.00002072    -0.00077476    -0.00107856
H         0.83071677     0.01735055     1.98548448     0.00024410     0.00062223     0.00076185
H        -0.86059393    -0.02750525     1.89129352    -0.00092733     0.00012606     0.00056654
H        -0.98685779    -0.00306191    -0.67833930     0.00045940    -0.00023962    -0.00049901
     6
  Step:    32            Position(A)                                  Velocity(au)
C        -0.04334727     0.04834215    -0.02518767    -0.00005425     0.00015624    -0.00017651
N        -0.04308378    -0.07730573     1.33900597     0.00008675    -0.00011730     0.00016633
H         0.92110004    -0.16122858    -0.61815079    -0.00005131    -0.00075950    -0.00102207
H         0.83160703     0.02079118     1.98920610     0.00007599     0.00061907     0.00058101
H        -0.86625653    -0.02677978     1.89473650    -0.00109832     0.00013483     0.00066390
H        -0.98415247    -0.00435321    -0.68091408     0.00051452    -0.00022616    -0.00043095
     6
  Step:    33            Position(A)                                  Velocity(au)
C        -0.04363481     0.04919822    -0.02613754    -0.00004932     0.00015264    -0.00016604
N        -0.04254572    -0.07795412     1.33989731     0.00010609    -0.00011660     0.00015588
H         0.92061133    -0.16539454    -0.62365131    -0.00012603    -0.00074352    -0.00096049
H         0.83155914     0.02421286     1.99192492    -0.00009275     0.00061562     0.00040136
H        -0.87276870    -0.02601069     1.89865279    -0.00123254     0.00014168     0.00073641
H        -0.98115439    -0.00556893    -0.68311640     0.00056473    -0.00021236    -0.00036492
     6
  Step:    34            Position(A)                                  Velocity(au)
C        -0.04389400     0.05003405    -0.02702818    -0.00004406     0.00014898    -0.00015517
N        -0.04190777    -0.07859816     1.34073386     0.00012268    -0.00011576     0.00014657
H         0.91970306    -0.16947018    -0.62879739    -0.00020209    -0.00072720    -0.00089480
H         0.83057890     0.02761509     1.99365497    -0.00025893     0.00061238     0.00022551
H        -0.87991867    -0.02520936     1.90289934    -0.00132824     0.00014641     0.00078291
H        -0.97789264    -0.00670716    -0.68495902     0.00060946    -0.00019825    -0.00030150
     6
  Step:    35            Position(A)                                  Velocity(au)
C        -0.04412315     0.05084944    -0.02785730    -0.00003853     0.00014533    -0.00014389
N        -0.04118600    -0.07923716     1.34152183     0.00013631    -0.00011484     0.00013835
H         0.91837146    -0.17345438    -0.63356869    -0.00027829    -0.00071092    -0.00082595
H         0.82868936     0.03100010     1.99442434    -0.00041956     0.00060985     0.00005586
H        -0.88749000    -0.02438803     1.90733000    -0.00138536     0.00014891     0.00080336
H        -0.97439956    -0.00776616    -0.68645801     0.00064815    -0.00018384    -0.00024125
     6
  Step:    36            Position(A)                                  Velocity(au)
C        -0.04432092     0.05164447    -0.02862264    -0.00003277     0.00014172    -0.00013221
N        -0.04039734    -0.07987068     1.34226694     0.00014687    -0.00011386     0.00013108
H         0.91661922    -0.17734805    -0.63794999    -0.00035354    -0.00069502    -0.00075482
H         0.82592960     0.03437298     1.99427400    -0.00057188     0.00060854    -0.00010538
H        -0.89527018    -0.02355929     1.91180153    -0.00140527     0.00014915     0.00079873
H        -0.97071036    -0.00874430    -0.68763236     0.00068030    -0.00016915    -0.00018465
     6
  Step:    37            Position(A)                                  Velocity(au)
C        -0.04448622     0.05241943    -0.02932196    -0.00002684     0.00013819    -0.00012012
N        -0.03955896    -0.08049857     1.34297397     0.00015436    -0.00011290     0.00012457
H         0.91445476    -0.18115403    -0.64193081    -0.00042689    -0.00067984    -0.00068219
H         0.82235383     0.03774178     1.99325689    -0.00071325     0.00060902    -0.00025615
H        -0.90305811    -0.02273564     1.91617862    -0.00139049     0.00014720     0.00077077
H        -0.96686290    -0.00964009    -0.68850364     0.00070548    -0.00015420    -0.00013213
     6
  Step:    38            Position(A)                                  Velocity(au)
C        -0.04461819     0.05317485    -0.02995296    -0.00002077     0.00013478    -0.00010761
N        -0.03868788    -0.08112099     1.34364651     0.00015883    -0.00011200     0.00011859
H         0.91189151    -0.18487703    -0.64550501    -0.00049750    -0.00066570    -0.00060881
H         0.81803059     0.04111770     1.99143725    -0.00084114     0.00061187    -0.00039448
H        -0.91066944    -0.02192909     1.92033762    -0.00134430     0.00014315     0.00072175
H        -0.96289734    -0.01045206    -0.68909562     0.00072329    -0.00013900    -0.00008404
     6
  Step:    39            Position(A)                                  Velocity(au)
C        -0.04471612     0.05391147    -0.03051328    -0.00001457     0.00013153    -0.00009467
N        -0.03780072    -0.08173845     1.34428674     0.00016036    -0.00011123     0.00011286
H         0.90894727    -0.18852350    -0.64867044    -0.00056465    -0.00065292    -0.00053534
H         0.81304221     0.04451529     1.98888993    -0.00095311     0.00061771    -0.00051851
H        -0.91793982    -0.02115093     1.92416856    -0.00127044     0.00013714     0.00065422
H        -0.95885589    -0.01117881    -0.68943401     0.00073338    -0.00012353    -0.00004071
     6
  Step:    40            Position(A)                                  Velocity(au)
C        -0.04477940     0.05463021    -0.03100047    -0.00000827     0.00012846    -0.00008126
N        -0.03691350    -0.08235180     1.34489535     0.00015906    -0.00011066     0.00010713
H         0.90564363    -0.19210164    -0.65142852    -0.00062771    -0.00064180    -0.00046238
H         0.80748434     0.04795272     1.98569997    -0.00104682     0.00062723    -0.00062645
H        -0.92472688    -0.02041159     1.92757655    -0.00117287     0.00012934     0.00057088
H        -0.95478242    -0.01181889    -0.68954605     0.00073548    -0.00010778    -0.00000236
     6
  Step:    41            Position(A)                                  Velocity(au)
C        -0.04480753     0.05533216    -0.03141200    -0.00000187     0.00012561    -0.00006738
N        -0.03604161    -0.08296229     1.34547145     0.00015505    -0.00011036     0.00010109
H         0.90200538    -0.19562124    -0.65378398    -0.00068612    -0.00063261    -0.00039049
H         0.80146529     0.05145197     1.98196192    -0.00112004     0.00064114    -0.00071666
H        -0.93091082    -0.01972051     1.93048204    -0.00105556     0.00011992     0.00047443
H        -0.95072208    -0.01237074    -0.68946008     0.00072938    -0.00009172     0.00003085
     6
  Step:    42            Position(A)                                  Velocity(au)
C        -0.04480007     0.05601854    -0.03174523     0.00000461     0.00012300    -0.00005301
N        -0.03519979    -0.08357154     1.34601268     0.00014843    -0.00011038     0.00009450
H         0.89806014    -0.19909362    -0.65574444    -0.00073943    -0.00062562    -0.00032015
H         0.79510500     0.05503900     1.97777895    -0.00117074     0.00066016    -0.00078766
H        -0.93639364    -0.01908620     1.93282027    -0.00092230     0.00010903     0.00036743
H        -0.94672083    -0.01283261    -0.68920513     0.00071495    -0.00007530     0.00005882
     6
  Step:    43            Position(A)                                  Velocity(au)
C        -0.04475665     0.05669072    -0.03199747     0.00001115     0.00012064    -0.00003812
N        -0.03440212    -0.08418155     1.34651523     0.00013932    -0.00011081     0.00008710
H         0.89383792    -0.20253158    -0.65732020    -0.00078721    -0.00062109    -0.00025180
H         0.78853381     0.05874384     1.97326176    -0.00119714     0.00068505    -0.00083816
H        -0.94109821    -0.01851624     1.93454052    -0.00077669     0.00009683     0.00025230
H        -0.94282501    -0.01320249    -0.68881043     0.00069215    -0.00005847     0.00008155
     6
  Step:    44            Position(A)                                  Velocity(au)
C        -0.04467698     0.05735016    -0.03216597     0.00001775     0.00011855    -0.00002271
N        -0.03366200    -0.08479470     1.34697405     0.00012783    -0.00011171     0.00007867
H         0.88937081    -0.20594933    -0.65852388    -0.00082910    -0.00061928    -0.00018586
H         0.78189082     0.06260067     1.96852721    -0.00119784     0.00071654    -0.00086721
H        -0.94496682    -0.01801738     1.93560518    -0.00062206     0.00008346     0.00013128
H        -0.93908075    -0.01347796    -0.68830496     0.00066104    -0.00004113     0.00009914
     6