     6
  Step:   300            Position(A)                                  Velocity(au)
C        -0.05366339     0.02844977     0.03033926     0.00002827     0.00001327     0.00008268
N        -0.04743858    -0.05657674     1.28664344    -0.00015296    -0.00004311    -0.00007797
H         0.02080916    -0.91844042    -0.49932750    -0.00178054     0.00021771    -0.00034449
H         0.12020947     0.70753908     1.94176159    -0.00095750    -0.00027454     0.00037331
H         0.13212674    -0.96988581     1.73723178     0.00276707     0.00063630     0.00050113
H        -0.18738718     0.95821906    -0.52879173     0.00175979    -0.00013847    -0.00043163
