     6
  Step:     0            Position(A)                                  Velocity(au)
C        -0.03974911     0.00482582     0.03712761     0.00016167     0.00009166     0.00007077
N        -0.03784734    -0.03467151     1.28288428     0.00021174     0.00003034    -0.00007310
H         0.89544148     0.00295079    -0.52911318    -0.00148529    -0.00054232     0.00037179
H         0.79149327    -0.18915315     1.85060478    -0.00088565     0.00001087    -0.00072955
H        -0.94068593    -0.16821087     1.81223772    -0.00215451    -0.00057754     0.00067469
H        -0.95959402     0.10893729    -0.51151383    -0.00034337    -0.00040481    -0.00014437
     6
  Step:     1            Position(A)                                  Velocity(au)
C        -0.03885545     0.00532463     0.03728560     0.00016357     0.00009083    -0.00001280
N        -0.03671555    -0.03450224     1.28271550     0.00019954     0.00003151     0.00001167
H         0.88752951    -0.00000712    -0.52733102    -0.00139431    -0.00053953     0.00027173
H         0.78681819    -0.18916057     1.84677623    -0.00081021    -0.00001646    -0.00065945
H        -0.95227036    -0.17140969     1.81587737    -0.00205892    -0.00058875     0.00064339
H        -0.96179883     0.10680554    -0.51264416    -0.00045846    -0.00037541    -0.00026519
     6
  Step:     2            Position(A)                                  Velocity(au)
C        -0.03795948     0.00581961     0.03698754     0.00016233     0.00009018    -0.00009535
N        -0.03566412    -0.03432677     1.28301191     0.00018244     0.00003261     0.00009626
H         0.88018600    -0.00295231    -0.52614009    -0.00127677    -0.00053729     0.00015568
H         0.78262855    -0.18933319     1.84338958    -0.00070805    -0.00004942    -0.00056789
H        -0.96321298    -0.17465251     1.81927716    -0.00192120    -0.00059348     0.00058848
H        -0.96461015     0.10482982    -0.51441532    -0.00056361    -0.00034753    -0.00037770
     6
  Step:     3            Position(A)                                  Velocity(au)
C        -0.03707853     0.00631170     0.03624191     0.00015800     0.00008971    -0.00017574
N        -0.03471851    -0.03414524     1.28376916     0.00016104     0.00003373     0.00017937
H         0.87355396    -0.00588831    -0.52562699    -0.00113443    -0.00053590     0.00002447
H         0.77906781    -0.18970158     1.84056003    -0.00058105    -0.00008777    -0.00045640
H        -0.97329994    -0.17790594     1.82231894    -0.00174809    -0.00059262     0.00051419
H        -0.96796809     0.10300150    -0.51677844    -0.00065699    -0.00032138    -0.00048072
     6
  Step:     4            Position(A)                                  Velocity(au)
C        -0.03622949     0.00680185     0.03506322     0.00015068     0.00008941    -0.00025298
N        -0.03390074    -0.03395740     1.28497600     0.00013598     0.00003492     0.00025987
H         0.86776444    -0.00882018    -0.52587211    -0.00096984    -0.00053557    -0.00012046
H         0.77626626    -0.19029428     1.83839215    -0.00043210    -0.00013102    -0.00032729
H        -0.98235388    -0.18114148     1.82490735    -0.00154584    -0.00058701     0.00042447
H        -0.97180389     0.10131084    -0.51967906    -0.00073719    -0.00029710    -0.00057343
     6
  Step:     5            Position(A)                                  Velocity(au)
C        -0.03542827     0.00729096     0.03347123     0.00014060     0.00008927    -0.00032615
N        -0.03322924    -0.03376274     1.28661532     0.00010790     0.00003621     0.00033675
H         0.86293188    -0.01175410    -0.52694629    -0.00078636    -0.00053643    -0.00027708
H         0.77433531    -0.19113654     1.83697539    -0.00026511    -0.00017843    -0.00018369
H        -0.99023059    -0.18433509     1.82696787    -0.00132014    -0.00057738     0.00032292
H        -0.97604211     0.09974758    -0.52305884    -0.00080317    -0.00027471    -0.00065523
     6
  Step:     6            Position(A)                                  Velocity(au)
C        -0.03468926     0.00777979     0.03149024     0.00012807     0.00008924    -0.00039448
N        -0.03271865    -0.03356067     1.28866504     0.00007753     0.00003761     0.00040916
H         0.85914987    -0.01469670    -0.52890746    -0.00058815    -0.00053845    -0.00044267
H         0.77336198    -0.19224902     1.83637981    -0.00008500    -0.00022905    -0.00002948
H        -0.99681588    -0.18746661     1.82844491    -0.00107609    -0.00056435     0.00021282
H        -0.98060261     0.09830142    -0.52685710    -0.00085418    -0.00025416    -0.00072577
     6
  Step:     7            Position(A)                                  Velocity(au)
C        -0.03402486     0.00826886     0.02914852     0.00011349     0.00008927    -0.00045725
N        -0.03237968    -0.03335061     1.29109885     0.00004558     0.00003909     0.00047634
H         0.85648698    -0.01765438    -0.53179710    -0.00038009    -0.00054148    -0.00061387
H         0.77340386    -0.19364642     1.83665231     0.00010243    -0.00028162     0.00013078
H        -1.00202237    -0.19051925     1.82929999    -0.00081838    -0.00054846     0.00009717
H        -0.98540219     0.09696247    -0.53101178    -0.00088971    -0.00023534    -0.00078479
     6
  Step:     8            Position(A)                                  Velocity(au)
C        -0.03344512     0.00875837     0.02647779     0.00009732     0.00008928    -0.00051379
N        -0.03221896    -0.03313215     1.29388674     0.00001284     0.00004061     0.00053758
H         0.85498321    -0.02063250    -0.53563684    -0.00016777    -0.00054521    -0.00078664
H         0.77448484    -0.19533624     1.83781348     0.00029067    -0.00033470     0.00029203
H        -1.00578716    -0.19347898     1.82951015    -0.00055146    -0.00053015    -0.00002121
H        -0.99035583     0.09572161    -0.53546018    -0.00090948    -0.00021805    -0.00083216
     6
  Step:     9            Position(A)                                  Velocity(au)
C        -0.03295739     0.00924808     0.02351297     0.00008007     0.00008917    -0.00056350
N        -0.03223885    -0.03290517     1.29699528    -0.00001988     0.00004211     0.00059221
H         0.85464675    -0.02363451    -0.54042534     0.00004270    -0.00054918    -0.00095640
H         0.77659207    -0.19731762     1.83985547     0.00047274    -0.00038663     0.00044887
H        -1.00807103    -0.19633417     1.82906732    -0.00027984    -0.00050981    -0.00013956
H        -0.99537778     0.09457078    -0.54013926    -0.00091335    -0.00020209    -0.00086773
     6
  Step:    10            Position(A)                                  Velocity(au)
C        -0.03256613     0.00973725     0.02029199     0.00006229     0.00008886    -0.00060577
N        -0.03243723    -0.03266989     1.30038769    -0.00005174     0.00004352     0.00063954
H         0.85545193    -0.02666116    -0.54613568     0.00024493    -0.00055281    -0.00111818
H         0.77967436    -0.19958046     1.84274092     0.00064155    -0.00043562     0.00059581
H        -1.00885911    -0.19907541     1.82797817    -0.00000836    -0.00048786    -0.00025502
H        -1.00038218     0.09350316    -0.54498573    -0.00090140    -0.00018722    -0.00089145
     6
  Step:    11            Position(A)                                  Velocity(au)
C        -0.03227279     0.01022460     0.01685562     0.00004455     0.00008822    -0.00064008
N        -0.03280742    -0.03242692     1.30402373    -0.00008184     0.00004476     0.00067891
H         0.85733846    -0.02970982    -0.55271394     0.00043254    -0.00055541    -0.00126688
H         0.78364257    -0.20210497     1.84640335     0.00079028    -0.00047985     0.00072763
H        -1.00816286    -0.20169568     1.82626473     0.00025768    -0.00046477    -0.00036462
H        -1.00528407     0.09251326    -0.54993614    -0.00087394    -0.00017320    -0.00090329
     6
  Step:    12            Position(A)                                  Velocity(au)
C        -0.03207581     0.01070825     0.01324730     0.00002739     0.00008718    -0.00066597
N        -0.03333802    -0.03217727     1.30785977    -0.00010935     0.00004577     0.00070971
H         0.86021248    -0.03277406    -0.56007902     0.00059958    -0.00055629    -0.00139763
H         0.78837220    -0.20486171     1.85074924     0.00091291    -0.00051762     0.00083968
H        -1.00602309    -0.20419071     1.82396519     0.00051239    -0.00044113    -0.00046526
H        -1.01000079     0.09159695    -0.55492732    -0.00083163    -0.00015979    -0.00090340
     6
  Step:    13            Position(A)                                  Velocity(au)
C        -0.03197081     0.01118581     0.00951261     0.00001131     0.00008563    -0.00068316
N        -0.03401308    -0.03192223     1.31184902    -0.00013343     0.00004652     0.00073145
H         0.86394953    -0.03584353    -0.56812437     0.00074093    -0.00055478    -0.00150614
H         0.79370835    -0.20781230     1.85566169     0.00100463    -0.00054745     0.00092823
H        -1.00251320    -0.20655960     1.82113477     0.00074945    -0.00041766    -0.00055378
H        -1.01445369     0.09075137    -0.55989712    -0.00077554    -0.00014680    -0.00089217
     6
  Step:    14            Position(A)                                  Velocity(au)
C        -0.03195079     0.01165441     0.00569854    -0.00000323     0.00008352    -0.00069159
N        -0.03481242    -0.03166328     1.31594209    -0.00015339     0.00004697     0.00074385
H         0.86839961    -0.03890431    -0.57672156     0.00085270    -0.00055038    -0.00158912
H         0.79947313    -0.21091094     1.86100598     0.00106231    -0.00056825     0.00099082
H        -0.99774178    -0.20880573     1.81784601     0.00096236    -0.00039527    -0.00062714
H        -1.01857031     0.08997480    -0.56478558    -0.00070717    -0.00013407    -0.00087027
     6
  Step:    15            Position(A)                                  Velocity(au)
C        -0.03200662     0.01211091     0.00185226    -0.00001592     0.00008084    -0.00069153
N        -0.03571212    -0.03140192     1.32008817    -0.00016868     0.00004717     0.00074696
H         0.87339438    -0.04193971    -0.58572608     0.00093264    -0.00054278    -0.00164470
H         0.80547492    -0.21410651     1.86663641     0.00108476    -0.00057945     0.00102646
H        -0.99185377    -0.21093775     1.81418828     0.00114486    -0.00037505    -0.00068262
H        -1.02228663     0.08926637    -0.56953654    -0.00062849    -0.00012148    -0.00083876
     6
  Step:    16            Position(A)                                  Velocity(au)
C        -0.03212758     0.01255209    -0.00198059    -0.00002654     0.00007761    -0.00068361
N        -0.03668549    -0.03113946     1.32423670    -0.00017895     0.00004717     0.00074121
H         0.87875620    -0.04493160    -0.59498516     0.00098036    -0.00053198    -0.00167269
H         0.81151895    -0.21734552     1.87240430     0.00107286    -0.00058106     0.00103573
H        -0.98502864    -0.21297050     1.81026581     0.00129167    -0.00035822    -0.00071813
H        -1.02554943     0.08862579    -0.57409967    -0.00054183    -0.00010900    -0.00079913
     6
  Step:    17            Position(A)                                  Velocity(au)
C        -0.03230203     0.01297492    -0.00575788    -0.00003500     0.00007391    -0.00066885
N        -0.03770427    -0.03087683     1.32833958    -0.00018412     0.00004707     0.00072749
H         0.88430813    -0.04786187    -0.60434706     0.00099727    -0.00051831    -0.00167466
H         0.81741835    -0.22057512     1.87816652     0.00102942    -0.00057373     0.00102078
H        -0.97747446    -0.21492561     1.80619385     0.00139888    -0.00034612    -0.00073237
H        -1.02831850     0.08805290    -0.57843270    -0.00044977    -0.00009662    -0.00075320
     6
  Step:    18            Position(A)                                  Velocity(au)
C        -0.03251810     0.01337676    -0.00944312    -0.00004136     0.00006985    -0.00064861
N        -0.03873983    -0.03061430     1.33235354    -0.00018434     0.00004701     0.00070706
H         0.88988304    -0.05071460    -0.61366982     0.00098632    -0.00050244    -0.00165366
H         0.82300456    -0.22374685     1.88379344     0.00095879    -0.00055867     0.00098494
H        -0.96942086    -0.21683229     1.80209448     0.00146437    -0.00034013    -0.00072498
H        -1.03056760     0.08754773    -0.58250340    -0.00035484    -0.00008435    -0.00070309
     6
  Step:    19            Position(A)                                  Velocity(au)
C        -0.03276434     0.01375565    -0.01300721    -0.00004578     0.00006556    -0.00062443
N        -0.03976462    -0.03035142     1.33624229    -0.00017996     0.00004714     0.00068145
H         0.89533201    -0.05347755    -0.62282972     0.00095159    -0.00048520    -0.00161391
H         0.82813453    -0.22681922     1.88917504     0.00086609    -0.00053740     0.00093231
H        -0.96110753    -0.21872716     1.79809093     0.00148793    -0.00034155    -0.00069643
H        -1.03228446     0.08711012    -0.58629094    -0.00025934    -0.00007221    -0.00065090
     6
  Step:    20            Position(A)                                  Velocity(au)
C        -0.03303027     0.01411033    -0.01642949    -0.00004847     0.00006118    -0.00059784
N        -0.04075325    -0.03008684     1.33997790    -0.00017144     0.00004763     0.00065220
H         0.90052984    -0.05614327    -0.63172701     0.00089756    -0.00046751    -0.00156000
H         0.83269480    -0.22975954     1.89422455     0.00075660    -0.00051160     0.00086712
H        -0.95277317    -0.22065373     1.79430254     0.00147095    -0.00035157    -0.00064784
H        -1.03346926     0.08673979    -0.58978603    -0.00016508    -0.00006020    -0.00059860
     6
  Step:    21            Position(A)                                  Velocity(au)
C        -0.03330675     0.01444029    -0.01969758    -0.00004969     0.00005680    -0.00057015
N        -0.04168321    -0.02981838     1.34354102    -0.00015932     0.00004862     0.00062069
H         0.90537656    -0.05870942    -0.64028762     0.00082848    -0.00045019    -0.00149623
H         0.83660156    -0.23254453     1.89887897     0.00063506    -0.00048282     0.00079328
H        -0.94464619    -0.22266153     1.79084104     0.00141582    -0.00037114    -0.00058066
H        -1.03413191     0.08643644    -0.59298987    -0.00007328    -0.00004826    -0.00054774
     6
  Step:    22            Position(A)                                  Velocity(au)
C        -0.03358602     0.01474561    -0.02280622    -0.00004969     0.00005250    -0.00054234
N        -0.04253508    -0.02954310     1.34691984    -0.00014407     0.00005022     0.00058795
H         0.90979579    -0.06117831    -0.64846120     0.00074794    -0.00043389    -0.00142605
H         0.83979751    -0.23515951     1.90309684     0.00050541    -0.00045231     0.00071400
H        -0.93693826    -0.22480471     1.78780835     0.00132540    -0.00040102    -0.00049642
H        -1.03428885     0.08620008    -0.59591206     0.00001539    -0.00003627    -0.00049939
     6
  Step:    23            Position(A)                                  Velocity(au)
C        -0.03386174     0.01502674    -0.02575542    -0.00004867     0.00004832    -0.00051497
N        -0.04329241    -0.02925743     1.35010836    -0.00012613     0.00005252     0.00055464
H         0.91373088    -0.06355585    -0.65621642     0.00065869    -0.00041899    -0.00135191
H         0.84224689    -0.23759674     1.90685427     0.00037062    -0.00042098     0.00063170
H        -0.92984172    -0.22714085     1.78529606     0.00120279    -0.00044156    -0.00039673
H        -1.03396002     0.08603132    -0.59856793     0.00010062    -0.00002407    -0.00045415
     6
  Step:    24            Position(A)                                  Velocity(au)
C        -0.03412868     0.01528435    -0.02854819    -0.00004933     0.00004678    -0.00053328
N        -0.04394145    -0.02895745     1.35310419    -0.00010540     0.00005534     0.00055581
H         0.91714032    -0.06585018    -0.66353531     0.00054255    -0.00045517    -0.00123443
H         0.84393002    -0.23985357     1.91014038     0.00022055    -0.00034811     0.00054573
H        -0.92352691    -0.22972818     1.78338471     0.00107156    -0.00054881    -0.00030644
H        -1.03316691     0.08593165    -0.60097598     0.00021799     0.00002570    -0.00037405
     6
  Step:    25            Position(A)                                  Velocity(au)
C        -0.03441076     0.01554730    -0.03169017    -0.00005144     0.00004797    -0.00059852
N        -0.04446544    -0.02864155     1.35629391    -0.00008239     0.00005829     0.00059277
H         0.91976885    -0.06862135    -0.66995418     0.00040078    -0.00053379    -0.00107313
H         0.84470138    -0.24147083     1.91292758     0.00005563    -0.00024129     0.00045370
H        -0.91791649    -0.23324851     1.78188570     0.00093584    -0.00071059    -0.00022724
H        -1.03153403     0.08631729    -0.60273068     0.00036575     0.00010405    -0.00025868
     6
  Step:    26            Position(A)                                  Velocity(au)
C        -0.03470019     0.01581732    -0.03519763    -0.00005223     0.00004932    -0.00066444
N        -0.04485682    -0.02830989     1.35968977    -0.00005811     0.00006137     0.00062996
H         0.92159295    -0.07178047    -0.67545758     0.00025548    -0.00059969    -0.00090964
H         0.84454801    -0.24253422     1.91518085    -0.00010948    -0.00014679     0.00035785
H        -0.91312999    -0.23762265     1.78086011     0.00077888    -0.00086265    -0.00013747
H        -1.02910349     0.08708764    -0.60384988     0.00050499     0.00016855    -0.00014739
     6
  Step:    27            Position(A)                                  Velocity(au)
C        -0.03499025     0.01609453    -0.03906220    -0.00005181     0.00005061    -0.00072767
N        -0.04511014    -0.02796059     1.36328339    -0.00003304     0.00006481     0.00066464
H         0.92260342    -0.07527498    -0.68004675     0.00010908    -0.00065725    -0.00074629
H         0.84348672    -0.24309952     1.91689798    -0.00026980    -0.00006109     0.00026287
H        -0.90927466    -0.24281974     1.78036050     0.00060421    -0.00101015    -0.00003929
H        -1.02593103     0.08818737    -0.60436601     0.00063310     0.00022480    -0.00004242
     6
  Step:    28            Position(A)                                  Velocity(au)
C        -0.03527459     0.01637840    -0.04326435    -0.00005023     0.00005174    -0.00078637
N        -0.04522307    -0.02759144     1.36705779    -0.00000785     0.00006859     0.00069548
H         0.92280214    -0.07906653    -0.68373080    -0.00003618    -0.00070830    -0.00058469
H         0.84155703    -0.24321142     1.91809491    -0.00042101     0.00001708     0.00017189
H        -0.90643192    -0.24882091     1.78042458     0.00041744    -0.00115390     0.00006413
H        -1.02208508     0.08957976    -0.60432016     0.00074746     0.00027535     0.00005453
     6
  Step:    29            Position(A)                                  Velocity(au)
C        -0.03554689     0.01666792    -0.04777645    -0.00004748     0.00005264    -0.00083911
N        -0.04519716    -0.02720045     1.37099039     0.00001666     0.00007266     0.00072155
H         0.92220252    -0.08312404    -0.68652610    -0.00017790    -0.00075380    -0.00042647
H         0.83882124    -0.24291022     1.91880275    -0.00055873     0.00008807     0.00008770
H        -0.90464873    -0.25560678     1.78107120     0.00022564    -0.00129294     0.00016900
H        -1.01764798     0.09123874    -0.60376170     0.00084527     0.00032170     0.00014178
     6
  Step:    30            Position(A)                                  Velocity(au)
C        -0.03580080     0.01696174    -0.05256391    -0.00004356     0.00005324    -0.00088468
N        -0.04503841    -0.02678613     1.37505444     0.00003964     0.00007690     0.00074219
H         0.92083053    -0.08742056    -0.68845720    -0.00031351    -0.00079426    -0.00027348
H         0.83536491    -0.24223533     1.91906685    -0.00067854     0.00015172     0.00001296
H        -0.90393126    -0.26315007     1.78229750     0.00003671    -0.00142528     0.00027117
H        -1.01271731     0.09314502    -0.60274889     0.00092363     0.00036480     0.00021758
     6
  Step:    31            Position(A)                                  Velocity(au)
C        -0.03602993     0.01725821    -0.05758614    -0.00003849     0.00005349    -0.00092208
N        -0.04475763    -0.02634773     1.37922005     0.00006019     0.00008116     0.00075692
H         0.91872624    -0.09193103    -0.68955851    -0.00044026    -0.00082994    -0.00012777
H         0.83129735    -0.24122787     1.91894644    -0.00077618     0.00020758    -0.00004982
H        -0.90424167    -0.27141072     1.78407798    -0.00014116    -0.00154827     0.00036649
H        -1.00740642     0.09528382    -0.60134911     0.00097977     0.00040531     0.00028025
     6
  Step:    32            Position(A)                                  Velocity(au)
C        -0.03622794     0.01755545    -0.06279747    -0.00003229     0.00005339    -0.00095054
N        -0.04437036    -0.02588535     1.38345499     0.00007749     0.00008529     0.00076546
H         0.91594444    -0.09663148    -0.68987520    -0.00055537    -0.00086109     0.00000849
H         0.82675064    -0.23993149     1.91851390    -0.00084774     0.00025508    -0.00009837
H        -0.90549790    -0.28033328     1.78636493    -0.00030019    -0.00165908     0.00045112
H        -1.00184345     0.09764330    -0.59963854     0.00101131     0.00044368     0.00032832
     6
  Step:    33            Position(A)                                  Velocity(au)
C        -0.03638877     0.01785143    -0.06814838    -0.00002506     0.00005290    -0.00096961
N        -0.04389657    -0.02539996     1.38772575     0.00009082     0.00008915     0.00076777
H         0.91255511    -0.10149925    -0.68946422    -0.00065615    -0.00088805     0.00013307
H         0.82187741    -0.23839349     1.91785335    -0.00089003     0.00029362    -0.00013080
H        -0.90757737    -0.28984613     1.78909070    -0.00043369    -0.00175505     0.00052182
H        -0.99616888     0.10021389    -0.59770090     0.00101649     0.00048028     0.00036062
     6
  Step:    34            Position(A)                                  Velocity(au)
C        -0.03650683     0.01814411    -0.07358714    -0.00001691     0.00005205    -0.00097921
N        -0.04335974    -0.02489331     1.39199863     0.00009966     0.00009260     0.00076404
H         0.90864287    -0.10651353    -0.68839436    -0.00074025    -0.00091125     0.00024400
H         0.81684650    -0.23666413     1.91705834    -0.00090094     0.00032283    -0.00014582
H        -0.91032390    -0.29986316     1.79217171    -0.00053655    -0.00183407     0.00057631
H        -0.99053209     0.10298777    -0.59562563     0.00099440     0.00051544     0.00037648
     6
  Step:    35            Position(A)                                  Velocity(au)
C        -0.03657727     0.01843152    -0.07906185    -0.00000802     0.00005087    -0.00097965
N        -0.04278583    -0.02436786     1.39624110     0.00010373     0.00009557     0.00075470
H         0.90430482    -0.11165536    -0.68674473    -0.00080576    -0.00093130     0.00033962
H         0.81183623    -0.23479549     1.91622812    -0.00087967     0.00034261    -0.00014286
H        -0.91355739    -0.31028729     1.79551380    -0.00060571    -0.00189493     0.00061334
H        -0.98508604     0.10595855    -0.59350495     0.00094524     0.00054948     0.00037585
     6
  Step:    36            Position(A)                                  Velocity(au)
C        -0.03659634     0.01871190    -0.08452253     0.00000140     0.00004941    -0.00097164
N        -0.04220184    -0.02382653     1.40042304     0.00010300     0.00009799     0.00074044
H         0.89964849    -0.11690928    -0.68460339    -0.00085131    -0.00094907     0.00041866
H         0.80702712    -0.23283976     1.91546370    -0.00082684     0.00035321    -0.00012209
H        -0.91708517    -0.32101550     1.79901814    -0.00064016    -0.00193742     0.00063276
H        -0.97998075     0.10912143    -0.59143021     0.00087032     0.00058281     0.00035932
     6
  Step:    37            Position(A)                                  Velocity(au)
C        -0.03656160     0.01898385    -0.08992330     0.00001109     0.00004776    -0.00095619
N        -0.04163445    -0.02327248     1.40451813     0.00009768     0.00009987     0.00072210
H         0.89478844    -0.12226456    -0.68206469    -0.00087619    -0.00096562     0.00048046
H         0.80259343    -0.23084713     1.91486329    -0.00074449     0.00035529    -0.00008454
H        -0.92071345    -0.33194471     1.80258709    -0.00064084    -0.00196232     0.00063538
H        -0.97535715     0.11247348    -0.58948830     0.00077198     0.00061585     0.00032810
     6
  Step:    38            Position(A)                                  Velocity(au)
C        -0.03647217     0.01924637    -0.09522398     0.00002078     0.00004598    -0.00093451
N        -0.04110866    -0.02270887     1.40850466     0.00008818     0.00010122     0.00070062
H         0.88984243    -0.12771620    -0.67922617    -0.00088028    -0.00098211     0.00052487
H         0.79869492    -0.22886350     1.91451760    -0.00063597     0.00034984    -0.00003191
H        -0.92425731    -0.34297731     1.80612916    -0.00061018    -0.00197126     0.00062274
H        -0.97134090     0.11601386    -0.58775817     0.00065347     0.00064906     0.00028394
     6
  Step:    39            Position(A)                                  Velocity(au)
C        -0.03632884     0.01949893    -0.10039118     0.00003016     0.00004418    -0.00090788
N        -0.04064671    -0.02213870     1.41236610     0.00007507     0.00010209     0.00067693
H         0.88492804    -0.13326557    -0.67618546    -0.00086397    -0.00099975     0.00055219
H         0.79546964    -0.22692844     1.91450580    -0.00050559     0.00033816     0.00003344
H        -0.92754837    -0.35402564     1.80956263    -0.00055166    -0.00196640     0.00059682
H        -0.96803731     0.11974383    -0.58630779     0.00051869     0.00068284     0.00022896
     6
  Step:    40            Position(A)                                  Velocity(au)
C        -0.03613417     0.01974153    -0.10539863     0.00003894     0.00004244    -0.00087748
N        -0.04026737    -0.02156475     1.41609111     0.00005900     0.00010253     0.00065189
H         0.88015989    -0.13892045    -0.67303777    -0.00082800    -0.00101963     0.00056312
H         0.79302870    -0.22507371     1.91489234    -0.00035838     0.00032173     0.00010874
H        -0.93043982    -0.36501486     1.81281773    -0.00046931    -0.00195010     0.00055980
H        -0.96552790     0.12366653    -0.58519218     0.00037191     0.00071753     0.00016552
     6
  Step:    41            Position(A)                                  Velocity(au)
C        -0.03589240     0.01997464    -0.11022670     0.00004682     0.00004084    -0.00084436
N        -0.03998544    -0.02098949     1.41967304     0.00004066     0.00010257     0.00062621
H         0.87564714    -0.14469448    -0.66987356    -0.00077348    -0.00104267     0.00055865
H         0.79145266    -0.22332221     1.91572463    -0.00019980     0.00030214     0.00019089
H        -0.93280876    -0.37588402     1.81583739    -0.00036730    -0.00192471     0.00051386
H        -0.96386866     0.12778648    -0.58445247     0.00021759     0.00075328     0.00009606
     6
  Step:    42            Position(A)                                  Velocity(au)
C        -0.03560939     0.02019919    -0.11486164     0.00005355     0.00003943    -0.00080939
N        -0.03981167    -0.02041520     1.42310921     0.00002077     0.00010225     0.00060045
H         0.87149131    -0.15060596    -0.66677679    -0.00070178    -0.00106951     0.00053999
H         0.79078954    -0.22168754     1.91703167    -0.00003554     0.00028100     0.00027661
H        -0.93455622    -0.38658559     1.81857672    -0.00024969    -0.00189231     0.00046099
H        -0.96308930     0.13210877    -0.58411556     0.00006026     0.00079010     0.00002303
     6
  Step:    43            Position(A)                                  Velocity(au)
C        -0.03529245     0.02041642    -0.11929447     0.00005888     0.00003829    -0.00077323
N        -0.03975275    -0.01984401     1.42640005     0.00000001     0.00010156     0.00057504
H         0.86778497    -0.15667641    -0.66382396    -0.00061456    -0.00110053     0.00050850
H         0.79105449    -0.22017406     1.91882355     0.00012868     0.00025990     0.00036258
H        -0.93560604    -0.39708395     1.82100198    -0.00012029    -0.00185473     0.00040300
H        -0.96319351     0.13663808    -0.58419443    -0.00009561     0.00082777    -0.00005120
     6
  Step:    44            Position(A)                                  Velocity(au)
C        -0.03495011     0.02062795    -0.12351990     0.00006261     0.00003745    -0.00073639
N        -0.03981151    -0.01927798     1.42954825    -0.00002095     0.00010052     0.00055026
H         0.86460978    -0.16292913    -0.66108284    -0.00051386    -0.00113582     0.00046577
H         0.79223040    -0.21877734     1.92109167     0.00028731     0.00024029     0.00044555
H        -0.93590312    -0.40735389     1.82308929     0.00001736    -0.00181349     0.00034147
H        -0.96415984     0.14137774    -0.58468891    -0.00024572     0.00086594    -0.00012441
     6