     6
  Step:     0            Position(A)                                  Velocity(au)
C        -0.03380691     0.00311959     0.02192809    -0.00010838    -0.00002197     0.00027296
N        -0.04252964    -0.05364259     1.28940029     0.00009293     0.00006579    -0.00023145
H         0.90868874     0.05315664    -0.49928727    -0.00034361    -0.00007895     0.00025861
H         0.79700233    -0.12252836     1.82433731    -0.00056759    -0.00019023    -0.00036599
H        -0.93725091    -0.01215442     1.91880367    -0.00016127    -0.00032797    -0.00011964
H        -0.98752609     0.12001147    -0.53106869     0.00107260    -0.00005530     0.00019085
     6
  Step:     1            Position(A)                                  Velocity(au)
C        -0.03442297     0.00299017     0.02303067    -0.00011632    -0.00002548     0.00012957
N        -0.04208853    -0.05331432     1.28848700     0.00006779     0.00005430    -0.00010181
H         0.90712093     0.05290136    -0.49799040    -0.00022772    -0.00001439     0.00021409
H         0.79443723    -0.12347464     1.82259367    -0.00036347    -0.00015631    -0.00026756
H        -0.93773176    -0.01381500     1.91772301    -0.00001382    -0.00027948    -0.00027590
H        -0.98170080     0.11985394    -0.52998763     0.00104918    -0.00000085     0.00020027
     6
  Step:     2            Position(A)                                  Velocity(au)
C        -0.03507893     0.00284097     0.02334503    -0.00012302    -0.00002921    -0.00001488
N        -0.04178838    -0.05304875     1.28828696     0.00004173     0.00004293     0.00002902
H         0.90619853     0.05299923    -0.49694607    -0.00010952     0.00004991     0.00016681
H         0.79302763    -0.12423771     1.82141141    -0.00014780    -0.00012333    -0.00016198
H        -0.93740203    -0.01521062     1.91578663     0.00013380    -0.00023155    -0.00043138
H        -0.97605282     0.12000219    -0.52887871     0.00100952     0.00005643     0.00020074
     6
  Step:     3            Position(A)                                  Velocity(au)
C        -0.03576743     0.00267093     0.02286807    -0.00012830    -0.00003310    -0.00015970
N        -0.04163242    -0.05284511     1.28880411     0.00001537     0.00003171     0.00016038
H         0.90592400     0.05344687    -0.49616733     0.00000761     0.00011332     0.00011747
H         0.79282190    -0.12482246     1.82082344     0.00007431    -0.00009116    -0.00005142
H        -0.93626951    -0.01634557     1.91300851     0.00027867    -0.00018457    -0.00058288
H        -0.97066781     0.12047062    -0.52779374     0.00095472     0.00011618     0.00019130
     6
  Step:     4            Position(A)                                  Velocity(au)
C        -0.03648026     0.00247941     0.02160067    -0.00013197    -0.00003705    -0.00030399
N        -0.04162053    -0.05270238     1.29003869    -0.00001068     0.00002070     0.00029143
H         0.90628168     0.05423692    -0.49566301     0.00012058     0.00017494     0.00006686
H         0.79383930    -0.12523342     1.82084982     0.00029737    -0.00005984     0.00006160
H        -0.93435822    -0.01722658     1.90942018     0.00041752    -0.00013903    -0.00072692
H        -0.96562491     0.12127121    -0.52678921     0.00088553     0.00017782     0.00017115
     6
  Step:     5            Position(A)                                  Velocity(au)
C        -0.03720827     0.00226642     0.01954912    -0.00013383    -0.00004093    -0.00044635
N        -0.04174899    -0.05261916     1.29198591    -0.00003569     0.00000998     0.00042088
H         0.90724051     0.05535684    -0.49543732     0.00022679     0.00023368     0.00001593
H         0.79606852    -0.12547578     1.82149599     0.00051541    -0.00002955     0.00017411
H        -0.93171107    -0.01786345     1.90507205     0.00054632    -0.00009550    -0.00085964
H        -0.96099965     0.12241206    -0.52592513     0.00080216     0.00024045     0.00013975
     6
  Step:     6            Position(A)                                  Velocity(au)
C        -0.03794124     0.00203260     0.01672784    -0.00013363    -0.00004461    -0.00058474
N        -0.04201015    -0.05259348     1.29463347    -0.00005888    -0.00000033     0.00054685
H         0.90875756     0.05678799    -0.49548914     0.00032421     0.00028834    -0.00003424
H         0.79946612    -0.12555599     1.82275056     0.00072211    -0.00000053     0.00028268
H        -0.92839404    -0.01826918     1.90003544     0.00066010    -0.00005454    -0.00097665
H        -0.95686772     0.12389619    -0.52526358     0.00070423     0.00030300     0.00009691
     6
  Step:     7            Position(A)                                  Velocity(au)
C        -0.03866777     0.00177916     0.01316288    -0.00013117    -0.00004802    -0.00071643
N        -0.04239203    -0.05262281     1.29795833    -0.00007938    -0.00001012     0.00066680
H         0.91078136     0.05850600    -0.49581132     0.00041126     0.00033787    -0.00008244
H         0.80395507    -0.12548155     1.82458326     0.00091080     0.00002708     0.00038356
H        -0.92450170    -0.01845911     1.89440551     0.00075287    -0.00001646    -0.00107296
H        -0.95330835     0.12572128    -0.52486670     0.00059118     0.00036440     0.00004295
     6
  Step:     8            Position(A)                                  Velocity(au)
C        -0.03937529     0.00150758     0.00889518    -0.00012624    -0.00005111    -0.00083818
N        -0.04287796    -0.05270414     1.30192348    -0.00009627    -0.00001929     0.00077767
H         0.91325382     0.06048184    -0.49639047     0.00048662     0.00038138    -0.00012748
H         0.80942380    -0.12525989     1.82694395     0.00107478     0.00005333     0.00047295
H        -0.92016297    -0.01844914     1.88830490     0.00081789     0.00001870    -0.00114315
H        -0.95040443     0.12788018    -0.52479396     0.00046290     0.00042364    -0.00002118
     6
  Step:     9            Position(A)                                  Velocity(au)
C        -0.04005034     0.00121944     0.00398301    -0.00011875    -0.00005384    -0.00094648
N        -0.04344643    -0.05283408     1.30647548    -0.00010870    -0.00002776     0.00087614
H         0.91611090     0.06268292    -0.49720755     0.00054909     0.00041821    -0.00016838
H         0.81572616    -0.12489746     1.82976311     0.00120764     0.00007836     0.00054736
H        -0.91554407    -0.01825430     1.88188564     0.00084846     0.00005111    -0.00118190
H        -0.94823864     0.13036099    -0.52509866     0.00032042     0.00047964    -0.00009382
     6
  Step:    10            Position(A)                                  Velocity(au)
C        -0.04067914     0.00091638    -0.00149703    -0.00010875    -0.00005621    -0.00103790
N        -0.04407146    -0.05300889     1.31154337    -0.00011591    -0.00003544     0.00095893
H         0.91928272     0.06507371    -0.49823924     0.00059761     0.00044781    -0.00020443
H         0.82268354    -0.12439948     1.83295392     0.00130389     0.00010230     0.00060393
H        -0.91084699    -0.01788801     1.87532784     0.00083886     0.00008099    -0.00118475
H        -0.94688627     0.13314654    -0.52582410     0.00016632     0.00053125    -0.00017257
     6
  Step:    11            Position(A)                                  Velocity(au)
C        -0.04124836     0.00060019    -0.00745074    -0.00009647    -0.00005818    -0.00110955
N        -0.04472332    -0.05322452     1.31703925    -0.00011741    -0.00004228     0.00102325
H         0.92269425     0.06761608    -0.49945960     0.00063147     0.00046980    -0.00023531
H         0.83009003    -0.12377053     1.83641609     0.00135962     0.00012513     0.00064078
H        -0.90630299    -0.01736213     1.86883423     0.00078529     0.00010855    -0.00114890
H        -0.94640643     0.13621339    -0.52699975     0.00000479     0.00057725    -0.00025444
     6
  Step:    12            Position(A)                                  Velocity(au)
C        -0.04174618     0.00027293    -0.01376904    -0.00008235    -0.00005970    -0.00115952
N        -0.04537000    -0.05347649     1.32286086    -0.00011303    -0.00004820     0.00106725
H         0.92626703     0.07026983    -0.50084187     0.00065056     0.00048405    -0.00026104
H         0.83772137    -0.12301544     1.84004115     0.00137327     0.00014675     0.00065732
H        -0.90216139    -0.01668746     1.86262061     0.00068682     0.00013392    -0.00107405
H        -0.94683333     0.13953112    -0.52863824    -0.00015867     0.00061647    -0.00033608
     6
  Step:    13            Position(A)                                  Velocity(au)
C        -0.04216330    -0.00006306    -0.02033347    -0.00006698    -0.00006075    -0.00118749
N        -0.04597908    -0.05376006     1.32889679    -0.00010304    -0.00005320     0.00109057
H         0.92992218     0.07299400    -0.50235989     0.00065552     0.00049085    -0.00028194
H         0.84534755    -0.12214013     1.84371917     0.00134622     0.00016694     0.00065446
H        -0.89867214    -0.01587420     1.85690119     0.00054613     0.00015723    -0.00096298
H        -0.94816926     0.14306259    -0.53073366    -0.00031785     0.00064812    -0.00041419
     6
  Step:    14            Position(A)                                  Velocity(au)
C        -0.04249387    -0.00040522    -0.02702472    -0.00005108    -0.00006136    -0.00119508
N        -0.04652016    -0.05407030     1.33503464    -0.00008814    -0.00005730     0.00109469
H         0.93358448     0.07574906    -0.50398906     0.00064793     0.00049106    -0.00029851
H         0.85274887    -0.12115189     1.84734670     0.00128300     0.00018561     0.00063462
H        -0.89606508    -0.01493228     1.85187107     0.00036952     0.00017864    -0.00082165
H        -0.95038136     0.14676589    -0.53326179    -0.00046684     0.00067207    -0.00048598
     6
  Step:    15            Position(A)                                  Velocity(au)
C        -0.04273606    -0.00075103    -0.03373311    -0.00005647    -0.00009832    -0.00189285
N        -0.04696734    -0.05440250     1.34117087    -0.00011078    -0.00009677     0.00172853
H         0.93718697     0.07849996    -0.50570691     0.00100579     0.00077595    -0.00049705
H         0.85973299    -0.12005904     1.85083481     0.00190077     0.00032373     0.00096017
H        -0.89452896    -0.01387121     1.84768854     0.00026512     0.00031674    -0.00105094
H        -0.95340366     0.15059804    -0.53618268    -0.00095932     0.00109988    -0.00087704
     6
  Step:    16            Position(A)                                  Velocity(au)
C        -0.04301862    -0.00131426    -0.04396680    -0.00002598    -0.00005969    -0.00102035
N        -0.04752417    -0.05493053     1.35056418    -0.00004989    -0.00005327     0.00094108
H         0.94304259     0.08284833    -0.50883560     0.00062550     0.00045058    -0.00035673
H         0.87006418    -0.11830669     1.85612203     0.00102914     0.00017595     0.00053440
H        -0.89368781    -0.01211005     1.84236697     0.00001164     0.00018163    -0.00048710
H        -0.95932630     0.15678533    -0.54160639    -0.00066349     0.00064327    -0.00060944
     6
  Step:    17            Position(A)                                  Velocity(au)
C        -0.04312380    -0.00165112    -0.04966752    -0.00001184    -0.00005923    -0.00099078
N        -0.04773655    -0.05523984     1.35580715    -0.00002482    -0.00005581     0.00090844
H         0.94647572     0.08536679    -0.51086344     0.00058478     0.00043838    -0.00035833
H         0.87550463    -0.11726057     1.85900013     0.00088847     0.00019312     0.00048066
H        -0.89431679    -0.01102558     1.84015795    -0.00023343     0.00020097    -0.00029382
H        -0.96336612     0.16044874    -0.54517540    -0.00075368     0.00064885    -0.00064628
     6
  Step:    18            Position(A)                                  Velocity(au)
C        -0.04315280    -0.00198528    -0.05519211     0.00000084    -0.00005917    -0.00096615
N        -0.04780543    -0.05556286     1.36085661     0.00000028    -0.00005856     0.00088014
H         0.94966800     0.08781510    -0.51289546     0.00054527     0.00042926    -0.00036123
H         0.88013037    -0.11611870     1.86156787     0.00074937     0.00021134     0.00042915
H        -0.89633251    -0.00983306     1.83903808    -0.00047672     0.00022133    -0.00010642
H        -0.96786534     0.16413663    -0.54892862    -0.00083175     0.00065695    -0.00067954
     6
  Step:    19            Position(A)                                  Velocity(au)
C        -0.04311429    -0.00231882    -0.06056947     0.00001213    -0.00005948    -0.00094669
N        -0.04773343    -0.05590064     1.36573863     0.00002485    -0.00006154     0.00085654
H         0.95262850     0.09021054    -0.51493954     0.00050723     0.00042318    -0.00036578
H         0.88396049    -0.11487579     1.86384265     0.00061328     0.00023076     0.00038080
H        -0.89969605    -0.00852807     1.83895710    -0.00071231     0.00024262     0.00007229
H        -0.97275160     0.16786170    -0.55284334    -0.00089795     0.00066741    -0.00070920
     6
  Step:    20            Position(A)                                  Velocity(au)
C        -0.04301656    -0.00265360    -0.06582945     0.00002203    -0.00006001    -0.00093101
N        -0.04752624    -0.05625437     1.37048098     0.00004830    -0.00006467     0.00083651
H         0.95536742     0.09257009    -0.51700545     0.00047001     0.00041941    -0.00037169
H         0.88702141    -0.11352577     1.86584664     0.00048050     0.00025113     0.00033581
H        -0.90433625    -0.00710687     1.83985037    -0.00093324     0.00026428     0.00023961
H        -0.97795500     0.17163592    -0.55689745    -0.00095102     0.00067902    -0.00073413
     6
  Step:    21            Position(A)                                  Velocity(au)
C        -0.04286762    -0.00299078    -0.07099403     0.00003053    -0.00006061    -0.00091725
N        -0.04719257    -0.05662479     1.37510505     0.00006998    -0.00006782     0.00081853
H         0.95789125     0.09490666    -0.51910132     0.00043285     0.00041702    -0.00037842
H         0.88934068    -0.11206385     1.86760276     0.00035157     0.00027199     0.00029435
H        -0.91014551    -0.00556894     1.84164000    -0.00113163     0.00028547     0.00039236
H        -0.98340016     0.17546469    -0.56106343    -0.00098910     0.00069019    -0.00075283
     6
  Step:    22            Position(A)                                  Velocity(au)
C        -0.04267552    -0.00333063    -0.07607481     0.00003758    -0.00006114    -0.00090378
N        -0.04674455    -0.05701185     1.37962367     0.00008919    -0.00007083     0.00080128
H         0.96020214     0.09722808    -0.52123225     0.00039522     0.00041520    -0.00038545
H         0.89094836    -0.11048771     1.86913447     0.00022775     0.00029283     0.00025680
H        -0.91697612    -0.00391830     1.84423294    -0.00129973     0.00030530     0.00052726
H        -0.98900286     0.17934503    -0.56530625    -0.00101053     0.00069948    -0.00076397
     6
  Step:    23            Position(A)                                  Velocity(au)
C        -0.04244843    -0.00367270    -0.08107434     0.00004314    -0.00006148    -0.00088942
N        -0.04619776    -0.05741478     1.38404216     0.00010530    -0.00007359     0.00078383
H         0.96229936     0.09953763    -0.52340046     0.00035698     0.00041333    -0.00039239
H         0.89188091    -0.10879773     1.87046700     0.00011090     0.00031319     0.00022376
H        -0.92464199    -0.00216376     1.84752074    -0.00143095     0.00032296     0.00064139
H        -0.99467110     0.18326630    -0.56958432    -0.00101427     0.00070580    -0.00076668
     6
  Step:    24            Position(A)                                  Velocity(au)
C        -0.04219468    -0.00401595    -0.08598860     0.00004718    -0.00006157    -0.00087346
N        -0.04557083    -0.05783210     1.38836049     0.00011781    -0.00007600     0.00076561
H         0.96418120     0.10183513    -0.52560590     0.00031826     0.00041097    -0.00039895
H         0.89218451    -0.10699677     1.87162858     0.00000321     0.00033270     0.00019595
H        -0.93292597    -0.00031847     1.85138203    -0.00152072     0.00033779     0.00073273
H        -1.00030826     0.18721210    -0.57385187    -0.00100008     0.00070845    -0.00076061
     6
  Step:    25            Position(A)                                  Velocity(au)
C        -0.04192256    -0.00435897    -0.09080951     0.00004974    -0.00006137    -0.00085555
N        -0.04488471    -0.05826189     1.39257524     0.00012639    -0.00007802     0.00074633
H         0.96584652     0.10411809    -0.52784702     0.00027937     0.00040789    -0.00040503
H         0.89191667    -0.10508963     1.87265100    -0.00009313     0.00035110     0.00017410
H        -0.94159114     0.00160110     1.85568735    -0.00156676     0.00034933     0.00080035
H        -1.00581750     0.19116236    -0.57806170    -0.00096850     0.00070709    -0.00074591
     6
  Step:    26            Position(A)                                  Velocity(au)
C        -0.04164016    -0.00470014    -0.09552705     0.00005087    -0.00006085    -0.00083565
N        -0.04416171    -0.05870189     1.39668129     0.00013092    -0.00007960     0.00072595
H         0.96729588     0.10638261    -0.53012149     0.00024076     0.00040397    -0.00041057
H         0.89114616    -0.10308241     1.87356961    -0.00017616     0.00036825     0.00015884
H        -0.95039366     0.00357623     1.86030505    -0.00156923     0.00035735     0.00084448
H        -1.01110598     0.19509537    -0.58216793    -0.00092079     0.00070170    -0.00072315
     6
  Step:    27            Position(A)                                  Velocity(au)
C        -0.04135511    -0.00503779    -0.10013086     0.00005069    -0.00006004    -0.00081394
N        -0.04342440    -0.05914977     1.40067297     0.00013143    -0.00008075     0.00070456
H         0.96853213     0.10862420    -0.53242678     0.00020291     0.00039921    -0.00041565
H         0.88995168    -0.10098189     1.87442278    -0.00024431     0.00038415     0.00015064
H        -0.95909531     0.00558720     1.86510720    -0.00153030     0.00036180     0.00086634
H        -1.01608859     0.19898955    -0.58612821    -0.00085874     0.00069253    -0.00069324
     6
  Step:    28            Position(A)                                  Velocity(au)
C        -0.04107439    -0.00537031    -0.10461153     0.00004933    -0.00005897    -0.00079075
N        -0.04269477    -0.05960321     1.40454505     0.00012814    -0.00008152     0.00068238
H         0.96956057     0.11083828    -0.53476064     0.00016627     0.00039370    -0.00042040
H         0.88841939    -0.09879481     1.87525097    -0.00029656     0.00039890     0.00014979
H        -0.96747363     0.00761431     1.86997436    -0.00145378     0.00036281     0.00086793
H        -1.02069053     0.20282476    -0.58990530    -0.00078448     0.00068001    -0.00065727
     6
  Step:    29            Position(A)                                  Velocity(au)
C        -0.04080422    -0.00569627    -0.10896140     0.00004695    -0.00005766    -0.00076650
N        -0.04199337    -0.06006009     1.40829332     0.00012137    -0.00008193     0.00065967
H         0.97038894     0.11302072    -0.53712147     0.00013126     0.00038754    -0.00042497
H         0.88663993    -0.09652728     1.87609556    -0.00033246     0.00041268     0.00015634
H        -0.97533013     0.00963883     1.87479962    -0.00134455     0.00036067     0.00085180
H        -1.02484909     0.20658346    -0.59346816    -0.00070031     0.00066474    -0.00061646
     6
  Step:    30            Position(A)                                  Velocity(au)
C        -0.04054988    -0.00601446    -0.11317499     0.00004371    -0.00005617    -0.00074162
N        -0.04133876    -0.06051858     1.41191496     0.00011152    -0.00008207     0.00063671
H         0.97102702     0.11516798    -0.53950853     0.00009818     0.00038089    -0.00042957
H         0.88470509    -0.09418428     1.87699764    -0.00035214     0.00042576     0.00017012
H        -0.98249523     0.01164375     1.87949090    -0.00120805     0.00035573     0.00082078
H        -1.02851455     0.21025133    -0.59679252    -0.00060858     0.00064734    -0.00057204
     6
  Step:    31            Position(A)                                  Velocity(au)
C        -0.04031574    -0.00632393    -0.11724919     0.00003979    -0.00005454    -0.00071652
N        -0.04074708    -0.06097722     1.41540871     0.00009904    -0.00008199     0.00061378
H         0.97148619     0.11727730    -0.54192210     0.00006728     0.00037388    -0.00043439
H         0.88270466    -0.09176926     1.87799669    -0.00035625     0.00043846     0.00019075
H        -0.98883052     0.01361417     1.88397206    -0.00104989     0.00034840     0.00077773
H        -1.03165014     0.21381772    -0.59986086    -0.00051151     0.00062850    -0.00052517
     6
  Step:    32            Position(A)                                  Velocity(au)
C        -0.04010522    -0.00662400    -0.12118311     0.00003534    -0.00005282    -0.00069157
N        -0.04023186    -0.06143493     1.41877475     0.00008440    -0.00008177     0.00059110
H         0.97177896     0.11934661    -0.54436343     0.00003868     0.00036662    -0.00043959
H         0.88072352    -0.08928391     1.87912951    -0.00034589     0.00045110     0.00021766
H        -0.99422917     0.01553756     1.88818310    -0.00087553     0.00033911     0.00072548
H        -1.03423133     0.21727563    -0.60266206    -0.00041113     0.00060883    -0.00047692
     6
  Step:    33            Position(A)                                  Velocity(au)
C        -0.03992083    -0.00691421    -0.12497776     0.00003052    -0.00005105    -0.00066704
N        -0.03980392    -0.06189099     1.42201453     0.00006806    -0.00008146     0.00056887
H         0.97191846     0.12137442    -0.54683469     0.00001244     0.00035918    -0.00044532
H         0.87883921    -0.08672804     1.88042915    -0.00032255     0.00046402     0.00025012
H        -0.99861487     0.01740381     1.89207953    -0.00069010     0.00032825     0.00066663
H        -1.03624472     0.22062159    -0.60519065    -0.00030927     0.00058892    -0.00042820
     6
  Step:    34            Position(A)                                  Velocity(au)
C        -0.03976426    -0.00719436    -0.12863564     0.00002547    -0.00004927    -0.00064309
N        -0.03947140    -0.06234509     1.42513052     0.00005050    -0.00008114     0.00054718
H         0.97191800     0.12335957    -0.54933880    -0.00001144     0.00035158    -0.00045169
H         0.87711979    -0.08409959     1.88192402    -0.00028805     0.00047754     0.00028723
H        -1.00193936     0.01920502     1.89563113    -0.00049826     0.00031620     0.00060357
H        -1.03768673     0.22385540    -0.60744614    -0.00020753     0.00056931    -0.00037979
     6
  Step:    35            Position(A)                                  Velocity(au)
C        -0.03963640    -0.00746443    -0.13216000     0.00002032    -0.00004750    -0.00061980
N        -0.03923988    -0.06279720     1.42812562     0.00003216    -0.00008085     0.00052607
H         0.97179075     0.12530094    -0.55187930    -0.00003302     0.00034378    -0.00045878
H         0.87562220    -0.08139470     1.88363703    -0.00024445     0.00049197     0.00032796
H        -1.00417960     0.02093527     1.89882041    -0.00030418     0.00030325     0.00053839
H        -1.03856244     0.22697982    -0.60943226    -0.00010730     0.00055048    -0.00033235
     6
  Step:    36            Position(A)                                  Velocity(au)
C        -0.03953745    -0.00772460    -0.13555440     0.00001519    -0.00004578    -0.00059716
N        -0.03911245    -0.06324756     1.43100294     0.00001344    -0.00008062     0.00050552
H         0.97154942     0.12719711    -0.55446014    -0.00005240     0.00033567    -0.00046666
H         0.87439107    -0.07860774     1.88558498    -0.00019399     0.00050762     0.00037116
H        -1.00533490     0.02259020     1.90164110    -0.00011159     0.00028963     0.00047294
H        -1.03888448     0.23000035    -0.61115618    -0.00000983     0.00053289    -0.00028644
     6
  Step:    37            Position(A)                                  Velocity(au)
C        -0.03946692    -0.00797517    -0.13882239     0.00001021    -0.00004412    -0.00057517
N        -0.03908990    -0.06369664     1.43376554    -0.00000523    -0.00008049     0.00048553
H         0.97120614     0.12904594    -0.55708570    -0.00006969     0.00032706    -0.00047538
H         0.87345791    -0.07573136     1.88777801    -0.00013904     0.00052479     0.00041562
H        -1.00542458     0.02416656     1.90409687     0.00007613     0.00027544     0.00040889
H        -1.03867216     0.23292519    -0.61262796     0.00008372     0.00051704    -0.00024249
     6
  Step:    38            Position(A)                                  Velocity(au)
C        -0.03942364    -0.00821658    -0.14196770     0.00000549    -0.00004255    -0.00055383
N        -0.03917081    -0.06414508     1.43641677    -0.00002350    -0.00008049     0.00046614
H         0.97077231     0.13084391    -0.55976080    -0.00008503     0.00031758    -0.00048507
H         0.87284079    -0.07275622     1.89021928    -0.00008196     0.00054390     0.00046006
H        -1.00448605     0.02566146     1.90620030     0.00025586     0.00026064     0.00034776
H        -1.03795098     0.23576548    -0.61386001     0.00017228     0.00050352    -0.00020090
     6
  Step:    39            Position(A)                                  Velocity(au)
C        -0.03940576    -0.00844937    -0.14499413     0.00000118    -0.00004109    -0.00053308
N        -0.03935175    -0.06459365     1.43896009    -0.00004101    -0.00008064     0.00044731
H         0.97025860     0.13258501    -0.56249119    -0.00009852     0.00030656    -0.00049601
H         0.87254457    -0.06967024     1.89290475    -0.00002505     0.00056567     0.00050315
H        -1.00257336     0.02707106     1.90797224     0.00042469     0.00024476     0.00029103
H        -1.03675230     0.23853624    -0.61486669     0.00025474     0.00049326    -0.00016196
     6
  Step:    40            Position(A)                                  Velocity(au)
C        -0.03941054    -0.00867425    -0.14790477    -0.00000251    -0.00003980    -0.00051253
N        -0.03962754    -0.06504317     1.44139864    -0.00005751    -0.00008090     0.00042880
H         0.96967511     0.13425815    -0.56528509    -0.00011012     0.00029229    -0.00050922
H         0.87256176    -0.06645618     1.89582311     0.00002969     0.00059178     0.00054356
H        -0.99975611     0.02838741     1.90944159     0.00057988     0.00022608     0.00024023
H        -1.03511380     0.24125912    -0.61566387     0.00032968     0.00048839    -0.00012598
     6
  Step:    41            Position(A)                                  Velocity(au)
C        -0.03943373    -0.00889240    -0.15069932    -0.00000493    -0.00003908    -0.00048911
N        -0.03999191    -0.06549423     1.44373327    -0.00007314    -0.00008101     0.00040851
H         0.96903283     0.13583861    -0.56815948    -0.00011743     0.00026797    -0.00053131
H         0.87287505    -0.06308292     1.89895534     0.00008162     0.00062953     0.00057971
H        -0.99611846     0.02958767     1.91064628     0.00071876     0.00019529     0.00019791
H        -1.03308254     0.24397268    -0.61626906     0.00039221     0.00049860    -0.00009486
     6
  Step:    42            Position(A)                                  Velocity(au)
C        -0.03946544    -0.00910901    -0.15334655    -0.00000841    -0.00004595    -0.00045497
N        -0.04044125    -0.06594448     1.44594371    -0.00009113    -0.00008247     0.00038490
H         0.96836861     0.13723950    -0.57119636    -0.00007921     0.00027567    -0.00063434
H         0.87346991    -0.05945208     1.90227284     0.00013666     0.00069260     0.00065277
H        -0.99175932     0.03056020     1.91164346     0.00087901     0.00016070     0.00017732
H        -1.03075008     0.24680642    -0.61671929     0.00043020     0.00056469    -0.00012298
     6
  Step:    43            Position(A)                                  Velocity(au)
C        -0.03952963    -0.00936180    -0.15582191    -0.00001333    -0.00004479    -0.00043739
N        -0.04097226    -0.06640522     1.44803444    -0.00009953    -0.00008351     0.00036857
H         0.96792944     0.13886017    -0.57471067    -0.00008328     0.00029425    -0.00063163
H         0.87431717    -0.05566016     1.90599665     0.00016502     0.00068495     0.00068204
H        -0.98658083     0.03154624     1.91252343     0.00097367     0.00018319     0.00014527
H        -1.02819255     0.24982276    -0.61736570     0.00048647     0.00053177    -0.00010548
     6
  Step:    44            Position(A)                                  Velocity(au)
C        -0.03961361    -0.00960688    -0.15820878    -0.00001632    -0.00004347    -0.00042184
N        -0.04154763    -0.06687281     1.45004091    -0.00010643    -0.00008488     0.00035370
H         0.96744287     0.14051050    -0.57821783    -0.00009247     0.00029670    -0.00063105
H         0.87530435    -0.05183785     1.90985473     0.00018537     0.00069378     0.00070275
H        -0.98093557     0.03259668     1.91325834     0.00104589     0.00019319     0.00012474
H        -1.02534222     0.25271789    -0.61789187     0.00053473     0.00051392    -0.00008490
     6