     6
  Step:   120            Position(A)                                  Velocity(au)
C        -0.02014996    -0.07636369    -0.03612070     0.00008727    -0.00010977     0.00005093
N        -0.05413239    -0.04696274     1.34589554     0.00003931     0.00012511    -0.00015293
H         0.76638891     0.62269389    -0.49408483    -0.00088507     0.00110654     0.00076022
H         0.85083161    -0.26702801     1.84715414    -0.00094382    -0.00145488     0.00017185
H        -0.86711683     0.30394261     1.86784114     0.00042458     0.00058169     0.00030112
H        -0.97070186     0.23316221    -0.60147388    -0.00018178    -0.00066392     0.00028501
