     6
  Step:     0            Position(A)                                  Velocity(au)
C        -0.03267640     0.00984459    -0.00327033    -0.00000277    -0.00004592     0.00004553
N        -0.05267773    -0.05850732     1.31207929    -0.00005741    -0.00007386    -0.00000853
H         0.93038043     0.04233451    -0.52063626    -0.00054207     0.00032763     0.00020327
H         0.86711373    -0.10331519     1.86304726     0.00090903     0.00040018     0.00057471
H        -0.88998446     0.00305906     1.84395250     0.00044886     0.00048776    -0.00116599
H        -0.99904487     0.08387363    -0.48846844     0.00001494     0.00035794    -0.00003593
     6
  Step:     1            Position(A)                                  Velocity(au)
C        -0.03268711     0.00959280    -0.00330280    -0.00000153    -0.00004634    -0.00005699
N        -0.05292577    -0.05894187     1.31228052    -0.00003189    -0.00008527     0.00008163
H         0.92745819     0.04421818    -0.51956798    -0.00052138     0.00036234     0.00018515
H         0.87173065    -0.10102393     1.86599959     0.00077082     0.00043864     0.00050002
H        -0.88805608     0.00585605     1.83788239     0.00024441     0.00053738    -0.00104569
H        -0.99909364     0.08594049    -0.48882812    -0.00003257     0.00039873    -0.00009468
     6
  Step:     2            Position(A)                                  Velocity(au)
C        -0.03269309     0.00933783    -0.00389362    -0.00000109    -0.00004711    -0.00015839
N        -0.05302646    -0.05943990     1.31297205    -0.00000389    -0.00009708     0.00017060
H         0.92467845     0.04629721    -0.51861145    -0.00049029     0.00039922     0.00016233
H         0.87554358    -0.09851806     1.86851565     0.00061751     0.00047873     0.00041686
H        -0.88731155     0.00893598     1.83251650     0.00001895     0.00059135    -0.00091107
H        -0.99940110     0.08823428    -0.48950385    -0.00007921     0.00044105    -0.00015137
     6
  Step:     3            Position(A)                                  Velocity(au)
C        -0.03269898     0.00907783    -0.00503436    -0.00000153    -0.00004820    -0.00025797
N        -0.05296829    -0.06000317     1.31414555     0.00002585    -0.00010915     0.00025787
H         0.92209831     0.04858244    -0.51779344    -0.00044872     0.00043792     0.00013441
H         0.87848122    -0.09579044     1.87055667     0.00045285     0.00051986     0.00032777
H        -0.88784896     0.01232065     1.82792255    -0.00022116     0.00064888    -0.00076600
H        -0.99995958     0.09076201    -0.49048286    -0.00012402     0.00048444    -0.00020555
     6
  Step:     4            Position(A)                                  Velocity(au)
C        -0.03270979     0.00881104    -0.00671288    -0.00000290    -0.00004960    -0.00035498
N        -0.05274396    -0.06063272     1.31579017     0.00005651    -0.00012132     0.00034291
H         0.91977466     0.05108295    -0.51714253    -0.00039674     0.00047805     0.00010114
H         0.88049253    -0.09283683     1.87209766     0.00028057     0.00056143     0.00023526
H        -0.88972851     0.01602725     1.82414529    -0.00046844     0.00070895    -0.00061481
H        -1.00075646     0.09352846    -0.49175017    -0.00016613     0.00052843    -0.00025681
     6
  Step:     5            Position(A)                                  Velocity(au)
C        -0.03273072     0.00853583    -0.00891303    -0.00000524    -0.00005128    -0.00044852
N        -0.05235082    -0.06132872     1.31789237     0.00008719    -0.00013339     0.00042510
H         0.91776338     0.05380587    -0.51668832    -0.00033462     0.00051915     0.00006242
H         0.88154690    -0.08965597     1.87312719     0.00010457     0.00060281     0.00014184
H        -0.89296738     0.02006701     1.82120477    -0.00071446     0.00077022    -0.00046213
H        -1.00177475     0.09653593    -0.49328887    -0.00020475     0.00057246    -0.00030477
     6
  Step:     6            Position(A)                                  Velocity(au)
C        -0.03276701     0.00825071    -0.01161402    -0.00000851    -0.00005319    -0.00053756
N        -0.05179123    -0.06209033     1.32043534     0.00011690    -0.00014515     0.00050365
H         0.91611818     0.05675585    -0.51646043    -0.00026292     0.00056062     0.00001838
H         0.88163524    -0.08624978     1.87364759    -0.00007091     0.00064329     0.00005016
H        -0.89753564     0.02444365     1.81909543    -0.00095010     0.00083103    -0.00031271
H        -1.00299377     0.09978395    -0.49508046    -0.00023921     0.00061588    -0.00034910
     6
  Step:     7            Position(A)                                  Velocity(au)
C        -0.03282371     0.00795437    -0.01478956    -0.00001266    -0.00005530    -0.00062088
N        -0.05107292    -0.06291547     1.32339821     0.00014460    -0.00015632     0.00057762
H         0.91488920     0.05993441    -0.51648735    -0.00018256     0.00060172    -0.00003057
H         0.88077178    -0.08262370     1.87367554    -0.00024118     0.00068209    -0.00003698
H        -0.90335365     0.02915166     1.81778632    -0.00116592     0.00088943    -0.00017119
H        -1.00438971     0.10326865    -0.49710511    -0.00026895     0.00065793    -0.00038949
     6
  Step:     8            Position(A)                                  Velocity(au)
C        -0.03290547     0.00764574    -0.01840696    -0.00001757    -0.00005754    -0.00069711
N        -0.05020922    -0.06380064     1.32675492     0.00016923    -0.00016662     0.00064583
H         0.91412083     0.06333915    -0.51679486    -0.00009495     0.00064157    -0.00008370
H         0.87899654    -0.07878713     1.87324303    -0.00040108     0.00071839    -0.00011660
H        -0.91029178     0.03417476     1.81722250    -0.00135275     0.00094322    -0.00004187
H        -1.00593629     0.10698222    -0.49934181    -0.00029352     0.00069772    -0.00042569
     6
  Step:     9            Position(A)                                  Velocity(au)
C        -0.03301620     0.00732405    -0.02242638    -0.00002309    -0.00005985    -0.00076480
N        -0.04921905    -0.06474074     1.33047328     0.00018976    -0.00017571     0.00070701
H         0.91384906     0.06696282    -0.51740431    -0.00000203     0.00067914    -0.00013994
H         0.87637791    -0.07475379     1.87239818    -0.00054502     0.00075130    -0.00018560
H        -0.91817294     0.03948461     1.81732766    -0.00150224     0.00099006     0.00007157
H        -1.00760522     0.11091217    -0.50176850    -0.00031257     0.00073430    -0.00045742
     6
  Step:    10            Position(A)                                  Velocity(au)
C        -0.03315884     0.00698895    -0.02680037    -0.00002898    -0.00006214    -0.00082251
N        -0.04812671    -0.06572900     1.33451409     0.00020525    -0.00018330     0.00075977
H         0.91409850     0.07079249    -0.51833069     0.00009365     0.00071329    -0.00019784
H         0.87301518    -0.07054190     1.87120611    -0.00066714     0.00077999    -0.00024086
H        -0.92677836     0.04504032     1.81800798    -0.00160762     0.00102766     0.00016630
H        -1.00936669     0.11504088    -0.50436187    -0.00032585     0.00076665    -0.00048439
     6
  Step:    11            Position(A)                                  Velocity(au)
C        -0.03333503     0.00664053    -0.03147400    -0.00003500    -0.00006433    -0.00086898
N        -0.04696126    -0.06675703     1.33883067     0.00021497    -0.00018911     0.00080278
H         0.91487922     0.07480898    -0.51958055     0.00018908     0.00074288    -0.00025561
H         0.86903941    -0.06617390     1.86974869    -0.00076183     0.00080379    -0.00027951
H        -0.93585669     0.05078880     1.81915698    -0.00166431     0.00105400     0.00024055
H        -1.01118961     0.11934527    -0.50709678    -0.00033318     0.00079382    -0.00050619
     6
  Step:    12            Position(A)                                  Velocity(au)
C        -0.03354491     0.00627939    -0.03638567    -0.00007215    -0.00011715    -0.00159535
N        -0.04575553    -0.06781502     1.34336909     0.00038572    -0.00034080     0.00147466
H         0.91618418     0.07898679    -0.52115020     0.00049622     0.00135444    -0.00054985
H         0.86461182    -0.06167574     1.86812303    -0.00145583     0.00145223    -0.00052846
H        -0.94513645     0.05666647     1.82066132    -0.00295022     0.00188557     0.00051868
H        -1.01304181     0.12379707    -0.50994535    -0.00059066     0.00143944    -0.00092241
     6
  Step:    13            Position(A)                                  Velocity(au)
C        -0.03395426     0.00562151    -0.04499422    -0.00007379    -0.00011732    -0.00146723
N        -0.04362864    -0.06967756     1.35138658     0.00036750    -0.00032192     0.00137697
H         0.91939717     0.08650061    -0.52467733     0.00064158     0.00132137    -0.00069938
H         0.85649362    -0.05375259     1.86523603    -0.00140883     0.00136926    -0.00048318
H        -0.96137847     0.06701452     1.82369186    -0.00280098     0.00179462     0.00054337
H        -1.01657324     0.13173340    -0.51539531    -0.00065939     0.00138618    -0.00101199
     6
  Step:    14            Position(A)                                  Velocity(au)
C        -0.03437449     0.00496044    -0.05288061    -0.00007460    -0.00011615    -0.00131651
N        -0.04162407    -0.07143410     1.35884930     0.00033674    -0.00029798     0.00125603
H         0.92339695     0.09384192    -0.52901278     0.00076068     0.00127058    -0.00082199
H         0.84877351    -0.04628223     1.86269097    -0.00129261     0.00126954    -0.00040088
H        -0.97662566     0.07684190     1.82676997    -0.00255658     0.00167138     0.00052943
H        -1.02045486     0.13938077    -0.52132230    -0.00070210     0.00131342    -0.00107313
     6
  Step:    15            Position(A)                                  Velocity(au)
C        -0.03480042     0.00430406    -0.05992647    -0.00007502    -0.00011454    -0.00116116
N        -0.03980920    -0.07305739     1.36563285     0.00029850    -0.00027257     0.00112788
H         0.92802496     0.10091190    -0.53400053     0.00085403     0.00121438    -0.00092062
H         0.84183248    -0.03935308     1.86068918    -0.00112663     0.00116824    -0.00029103
H        -0.99037589     0.08597178     1.82969685    -0.00225840     0.00153528     0.00048889
H        -1.02453661     0.14663054    -0.52756705    -0.00072317     0.00123456    -0.00111408
     6
  Step:    16            Position(A)                                  Velocity(au)
C        -0.03522933     0.00365538    -0.06611112    -0.00007560    -0.00011344    -0.00101525
N        -0.03822288    -0.07453979     1.37170054     0.00025731    -0.00024874     0.00100571
H         0.93312787     0.10767882    -0.53950245     0.00092722     0.00116446    -0.00100302
H         0.83593647    -0.03297107     1.85937494    -0.00093013     0.00107818    -0.00016224
H        -1.00235826     0.09433518     1.83234043    -0.00194250     0.00140364     0.00043319
H        -1.02869473     0.15344755    -0.53401630    -0.00072946     0.00116188    -0.00114585
     6
  Step:    17            Position(A)                                  Velocity(au)
C        -0.03566149     0.00301206    -0.07148992    -0.00007669    -0.00011346    -0.00088530
N        -0.03687850    -0.07589042     1.37708768     0.00021583    -0.00022810     0.00089614
H         0.93858573     0.11417483    -0.54542469     0.00098606     0.00112760    -0.00107677
H         0.83123858    -0.02707292     1.85884136    -0.00071596     0.00100601    -0.00001997
H        -1.01250050     0.10195886     1.83463080    -0.00162922     0.00128593     0.00037004
H        -1.03284499     0.15986399    -0.54061795    -0.00072641     0.00110218    -0.00117704
     6
  Step:    18            Position(A)                                  Velocity(au)
C        -0.03609922     0.00236834    -0.07615311    -0.00007832    -0.00011473    -0.00077115
N        -0.03577466    -0.07712713     1.38186549     0.00017492    -0.00021079     0.00079950
H         0.94431286     0.12046931    -0.55171629     0.00103300     0.00110464    -0.00114554
H         0.82781527    -0.02155986     1.85914847    -0.00049073     0.00095211     0.00013253
H        -1.02083858     0.10892157     1.83653784    -0.00132380     0.00118337     0.00030302
H        -1.03693445     0.16594968    -0.54736754    -0.00071598     0.00105612    -0.00121099
     6
  Step:    19            Position(A)                                  Velocity(au)
C        -0.03654507     0.00171782    -0.08018940    -0.00008029    -0.00011695    -0.00066956
N        -0.03490519    -0.07826838     1.38610695     0.00013460    -0.00019615     0.00071306
H         0.95023908     0.12663641    -0.55834767     0.00106705     0.00109264    -0.00120912
H         0.82570257    -0.01633206     1.86033639    -0.00025886     0.00091328     0.00029201
H        -1.02743446     0.11530864     1.83804917    -0.00102444     0.00109271     0.00023345
H        -1.04092207     0.17177817    -0.55427931    -0.00069748     0.00102065    -0.00124673
     6
  Step:    20            Position(A)                                  Velocity(au)
C        -0.03700054     0.00105551    -0.08366912    -0.00008231    -0.00011977    -0.00057710
N        -0.03426372    -0.07932891     1.38986981     0.00009492    -0.00018336     0.00063380
H         0.95629074     0.13273446    -0.56528897     0.00108582     0.00108767    -0.00126542
H         0.82490945    -0.01130810     1.86242641    -0.00002587     0.00088545     0.00045414
H        -1.03233815     0.12118754     1.83915840    -0.00072882     0.00100999     0.00016214
H        -1.04476381     0.17740669    -0.56136243    -0.00066935     0.00099195    -0.00128151
     6
  Step:    21            Position(A)                                  Velocity(au)
C        -0.03746558     0.00037842    -0.08664351    -0.00008410    -0.00012282    -0.00049132
N        -0.03384369    -0.08031896     1.39319513     0.00005620    -0.00017178     0.00055957
H         0.96238247     0.13880046    -0.57249960     0.00108718     0.00108634    -0.00131225
H         0.82541322    -0.00642955     1.86541533     0.00020096     0.00086502     0.00061355
H        -1.03558534     0.12660399     1.83986246    -0.00043656     0.00093228     0.00009003
H        -1.04840782     0.18287181    -0.56861129    -0.00063042     0.00096693    -0.00131266
     6
  Step:    22            Position(A)                                  Velocity(au)
C        -0.03793876    -0.00031457    -0.08915001    -0.00008549    -0.00012585    -0.00041068
N        -0.03363678    -0.08124522     1.39611207     0.00001904    -0.00016098     0.00048914
H         0.96841877     0.14485314    -0.57992780     0.00106996     0.00108619    -0.00134809
H         0.82715122    -0.00165832     1.86927083     0.00041337     0.00084910     0.00076453
H        -1.03720814     0.13158758     1.84016271    -0.00014905     0.00085787     0.00001832
H        -1.05179643     0.18819327    -0.57600586    -0.00058022     0.00094343    -0.00133821
     6
  Step:    23            Position(A)                                  Velocity(au)
C        -0.03841769    -0.00102323    -0.09121751    -0.00008633    -0.00012868    -0.00033433
N        -0.03363164    -0.08211187     1.39864291    -0.00001588    -0.00015066     0.00042190
H         0.97429913     0.15089797    -0.58751405     0.00103397     0.00108554    -0.00137214
H         0.83001715     0.00302736     1.87393033     0.00060325     0.00083536     0.00090168
H        -1.03724539     0.13615855     1.84006650     0.00013110     0.00078598    -0.00005164
H        -1.05487004     0.19337928    -0.58351562    -0.00051896     0.00092010    -0.00135689
     6
  Step:    24            Position(A)                                  Velocity(au)
C        -0.03889933    -0.00174638    -0.09286991    -0.00008656    -0.00013120    -0.00026175
N        -0.03381345    -0.08292153     1.40080639    -0.00004787    -0.00014064     0.00035761
H         0.97992321     0.15693139    -0.59519500     0.00097983     0.00108325    -0.00138420
H         0.83386325     0.00763633     1.87930335     0.00076347     0.00082190     0.00102028
H        -1.03574943     0.14033283     1.83958818     0.00040066     0.00071644    -0.00011841
H        -1.05757063     0.19843079    -0.59110339    -0.00044728     0.00089612    -0.00136801
     6
  Step:    25            Position(A)                                  Velocity(au)
C        -0.03938031    -0.00248222    -0.09412823    -0.00008615    -0.00013332    -0.00019267
N        -0.03416396    -0.08367580     1.40261957    -0.00007632    -0.00013080     0.00029615
H         0.98519509     0.16294398    -0.60290663     0.00090872     0.00107861    -0.00138445
H         0.83850714     0.01216708     1.88527608     0.00088857     0.00080719     0.00111666
H        -1.03278993     0.14412549     1.83874972     0.00065606     0.00064945    -0.00018055
H        -1.05984395     0.20334436    -0.59872822    -0.00036616     0.00087102    -0.00137123
     6
  Step:    26            Position(A)                                  Velocity(au)
C        -0.03985711    -0.00322855    -0.09501181    -0.00008509    -0.00013500    -0.00012691
N        -0.03466195    -0.08437565     1.40409875    -0.00010075    -0.00012108     0.00023751
H         0.99002553     0.16892246    -0.61058610     0.00082213     0.00107116    -0.00137338
H         0.84374158     0.01661000     1.89171743     0.00097500     0.00079004     0.00118832
H        -1.02845587     0.14755291     1.83758095     0.00089361     0.00058552    -0.00023659
H        -1.06164127     0.20811406    -0.60634757    -0.00027677     0.00084457    -0.00136653
     6
  Step:    27            Position(A)                                  Velocity(au)
C        -0.04032619    -0.00398295    -0.09553901    -0.00008339    -0.00013622    -0.00006439
N        -0.03528391    -0.08502180     1.40525977    -0.00012080    -0.00011147     0.00018164
H         0.99433410     0.17485126    -0.61817339     0.00072189     0.00106067    -0.00135167
H         0.84934544     0.02094937     1.89848568     0.00102126     0.00076958     0.00123395
H        -1.02285638     0.15063426     1.83611968     0.00110958     0.00052530    -0.00028510
H        -1.06292061     0.21273283    -0.61391886    -0.00018046     0.00081671    -0.00135409
     6
  Step:    28            Position(A)                                  Velocity(au)
C        -0.04078414    -0.00474291    -0.09572757    -0.00008109    -0.00013698    -0.00000501
N        -0.03600481    -0.08561488     1.40611804    -0.00013624    -0.00010198     0.00012849
H         0.99805062     0.18071372    -0.62561240     0.00060997     0.00104707    -0.00132020
H         0.85509476     0.02516529     1.90543500     0.00102772     0.00074526     0.00125337
H        -1.01612084     0.15339255     1.83441159     0.00130041     0.00046959    -0.00032466
H        -1.06364741     0.21719326    -0.62140073    -0.00007862     0.00078748    -0.00133428
     6
  Step:    29            Position(A)                                  Velocity(au)
C        -0.04122774    -0.00550592    -0.09559476    -0.00007823    -0.00013729     0.00005126
N        -0.03679870    -0.08615568     1.40668838    -0.00014700    -0.00009266     0.00007796
H         1.00111593     0.18649296    -0.63285179     0.00048844     0.00103044    -0.00127991
H         0.86077204     0.02923541     1.91242113     0.00099631     0.00071681     0.00124738
H        -1.00839800     0.15585527     1.83251000     0.00146278     0.00041924    -0.00035398
H        -1.06379475     0.22148832    -0.62875387     0.00002733     0.00075703    -0.00130760
     6
  Step:    30            Position(A)                                  Velocity(au)
C        -0.04165405    -0.00626959    -0.09515749    -0.00007487    -0.00013718     0.00010451
N        -0.03763948    -0.08664530     1.40698493    -0.00015309    -0.00008357     0.00002990
H         1.00348231     0.19217266    -0.63984548     0.00035937     0.00101097    -0.00123182
H         0.86617418     0.03313652     1.91930632     0.00093021     0.00068424     0.00121752
H        -0.99985410     0.15805465     1.83047515     0.00159385     0.00037513    -0.00037191
H        -1.06334343     0.22561171    -0.63594176     0.00013603     0.00072554    -0.00127464
     6
  Step:    31            Position(A)                                  Velocity(au)
C        -0.04206046    -0.00703168    -0.09443232    -0.00007107    -0.00013669     0.00015480
N        -0.03850143    -0.08708519     1.40702097    -0.00015462    -0.00007479    -0.00001584
H         1.00511309     0.19773757    -0.64655285     0.00022472     0.00098891    -0.00117697
H         0.87111840     0.03684588     1.92596315     0.00083345     0.00064772     0.00116596
H        -0.99067022     0.16002765     1.82837339     0.00169118     0.00033811    -0.00037742
H        -1.06228174     0.22955826    -0.64293121     0.00024616     0.00069327    -0.00123608
     6
  Step:    32            Position(A)                                  Velocity(au)
C        -0.04244468    -0.00779018    -0.09343537    -0.00006689    -0.00013586     0.00020222
N        -0.03935959    -0.08747730     1.40680874    -0.00015178    -0.00006641    -0.00005946
H         1.00598223     0.20317396    -0.65293886     0.00008634     0.00096458    -0.00111636
H         0.87544603     0.04034222     1.93227718     0.00071063     0.00060763     0.00109521
H        -0.98104029     0.16181600     1.82627653     0.00175277     0.00030901    -0.00036960
H        -1.06060497     0.23332406    -0.64969274     0.00035652     0.00066044    -0.00119261
     6
  Step:    33            Position(A)                                  Velocity(au)
C        -0.04280474    -0.00854330    -0.09218230    -0.00006240    -0.00013475     0.00024687
N        -0.04019018    -0.08782405     1.40635938    -0.00014481    -0.00005851    -0.00010118
H         1.00607369     0.20846990    -0.65897394    -0.00005408     0.00093833    -0.00105098
H         0.87902511     0.04360657     1.93814888     0.00056667     0.00056442     0.00100809
H        -0.97116822     0.16346585     1.82426103     0.00177733     0.00028855    -0.00034783
H        -1.05831492     0.23690660    -0.65620069     0.00046603     0.00062733    -0.00114495
     6
  Step:    34            Position(A)                                  Velocity(au)
C        -0.04313905    -0.00928957    -0.09068825    -0.00005765    -0.00013339     0.00028886
N        -0.04097102    -0.08812833     1.40568283    -0.00013405    -0.00005116    -0.00014121
H         1.00538041     0.21361538    -0.66463371    -0.00019503     0.00091051    -0.00098170
H         0.88175175     0.04662285     1.94349477     0.00040658     0.00051864     0.00090748
H        -0.96126287     0.16502681     1.82240605     0.00176455     0.00027718    -0.00031183
H        -1.05541918     0.24030475    -0.66243333     0.00057371     0.00059417    -0.00109379
     6
  Step:    35            Position(A)                                  Velocity(au)
C        -0.04344630    -0.01002776    -0.08896773    -0.00005270    -0.00013185     0.00032831
N        -0.04168197    -0.08839341     1.40478799    -0.00011989    -0.00004443    -0.00017972
H         1.00390333     0.21860233    -0.66989858    -0.00033516     0.00088145    -0.00090935
H         0.88354967     0.04937812     1.94824758     0.00023517     0.00047084     0.00079623
H        -0.95153177     0.16655035     1.82079093     0.00171522     0.00027509    -0.00026179
H        -1.05193050     0.24351866    -0.66837266     0.00067871     0.00056117    -0.00103976
     6
  Step:    36            Position(A)                                  Velocity(au)
C        -0.04372547    -0.01075689    -0.08703470    -0.00004759    -0.00013016     0.00036531
N        -0.04230521    -0.08862278     1.40368285    -0.00010276    -0.00003834    -0.00021686
H         1.00165063     0.22342458    -0.67475335    -0.00047324     0.00085148    -0.00083466
H         0.88436881     0.05186261     1.95235559     0.00005692     0.00042158     0.00067703
H        -0.94217512     0.16808817     1.81949272     0.00163114     0.00028217    -0.00019835
H        -1.04786620     0.24654969    -0.67400421     0.00078025     0.00052853    -0.00098346
     6
  Step:    37            Position(A)                                  Velocity(au)
C        -0.04397584    -0.01147624    -0.08490249    -0.00004237    -0.00012837     0.00039997
N        -0.04282555    -0.08882004     1.40237472    -0.00008317    -0.00003289    -0.00025273
H         0.99863700     0.22807775    -0.67918681    -0.00060818     0.00082088    -0.00075828
H         0.88418310     0.05406958     1.95578164    -0.00012400     0.00037138     0.00055237
H        -0.93338018     0.16969042     1.81858364     0.00151518     0.00029794    -0.00012264
H        -1.04324772     0.24940021    -0.67931672     0.00087763     0.00049640    -0.00092540
     6
  Step:    38            Position(A)                                  Velocity(au)
C        -0.04419692    -0.01218530    -0.08258400    -0.00003708    -0.00012649     0.00043234
N        -0.04323073    -0.08898874     1.40087054    -0.00006167    -0.00002805    -0.00028736
H         0.99488305     0.23255903    -0.68319125    -0.00073891     0.00078989    -0.00068079
H         0.88298893     0.05599520     1.95850224    -0.00030371     0.00032073     0.00042466
H        -0.92531471     0.17140354     1.81812798     0.00137134     0.00032152    -0.00003636
H        -1.03810027     0.25207347    -0.68430181     0.00097015     0.00046491    -0.00086606
     6
  Step:    39            Position(A)                                  Velocity(au)
C        -0.04438842    -0.01288373    -0.08009172    -0.00003176    -0.00012456     0.00046248
N        -0.04351181    -0.08913218     1.39917722    -0.00003889    -0.00002378    -0.00032071
H         0.99041497     0.23686698    -0.68676212    -0.00086445     0.00075872    -0.00060271
H         0.88080368     0.05763844     1.96050687    -0.00047851     0.00027013     0.00029614
H        -0.91812105     0.17326804     1.81817907     0.00120463     0.00035166     0.00005826
H        -1.03245268     0.25457338    -0.68895356     0.00105715     0.00043416    -0.00080583
     6
  Step:    40            Position(A)                                  Velocity(au)
C        -0.04455029    -0.01357129    -0.07743801    -0.00002644    -0.00012259     0.00049036
N        -0.04366344    -0.08925332     1.39730198    -0.00001548    -0.00001999    -0.00035268
H         0.98526427     0.24100134    -0.68989766    -0.00098380     0.00072755    -0.00052452
H         0.87766452     0.05900094     1.96179735    -0.00064492     0.00022005     0.00016900
H        -0.91191073     0.17531643     1.81877627     0.00102100     0.00038671     0.00015845
H        -1.02633738     0.25690440    -0.69326824     0.00113792     0.00040423    -0.00074505
     6
  Step:    41            Position(A)                                  Velocity(au)
C        -0.04468262    -0.01424789    -0.07463530    -0.00002116    -0.00012060     0.00051593
N        -0.04368411    -0.08935457     1.39525279     0.00000783    -0.00001657    -0.00038308
H         0.97946780     0.24496280    -0.69259873    -0.00109593     0.00069654    -0.00044668
H         0.87362737     0.06008699     1.96238739    -0.00079959     0.00017095     0.00004537
H        -0.90675992     0.17757118     1.81994226     0.00082707     0.00042474     0.00026100
H        -1.01979050     0.25907138    -0.69724402     0.00121175     0.00037517    -0.00068404
     6
  Step:    42            Position(A)                                  Velocity(au)
C        -0.04478572    -0.01491345    -0.07169632    -0.00001594    -0.00011859     0.00053911
N        -0.04357633    -0.08943777     1.39303872     0.00003032    -0.00001343    -0.00041168
H         0.97306787     0.24875295    -0.69486872    -0.00119981     0.00066581    -0.00036966
H         0.86876604     0.06090345     1.96230222    -0.00093933     0.00012333    -0.00007267
H        -0.90270647     0.18004322     1.82168087     0.00062985     0.00046355     0.00036237
H        -1.01285208     0.26107953    -0.70088082     0.00127787     0.00034704    -0.00062313
     6
  Step:    43            Position(A)                                  Velocity(au)
C        -0.04486003    -0.01556794    -0.06863433    -0.00001082    -0.00011656     0.00055976
N        -0.04334663    -0.08950407     1.39067021     0.00005127    -0.00001044    -0.00043820
H         0.96611238     0.25237411    -0.69671354    -0.00129438     0.00063551    -0.00029394
H         0.86317138     0.06145979     1.96157844    -0.00106113     0.00007765    -0.00018307
H        -0.89974887     0.18273111     1.82397591     0.00043639     0.00050091     0.00045892
H        -1.00556617     0.26293434    -0.70418024     0.00133552     0.00031990    -0.00056261
     6
  Step:    44            Position(A)                                  Velocity(au)
C        -0.04490619    -0.01621136    -0.06546330    -0.00000583    -0.00011452     0.00057776
N        -0.04300541    -0.08955399     1.38815928     0.00007002    -0.00000749    -0.00046235
H         0.95865487     0.25582943    -0.69814181    -0.00137860     0.00060580    -0.00022005
H         0.85695024     0.06176811     1.96026373    -0.00116220     0.00003441    -0.00028383
H        -0.89784727     0.18562087     1.82679096     0.00025333     0.00053460     0.00054708
H        -0.99798089     0.26464162    -0.70714559     0.00138398     0.00029381    -0.00050284
     6