 Fermi distribution function

Calculation with static geometry


********************************************************************************
 iSCC Total electronic   Diff electronic      SCC error    
   13   -0.52665417E+01   -0.16648270E-07    0.45504583E-06
********************************************************************************

 Total charge:     1.00000000

 Atomic gross charges (e)
 Atom           Charge
    1       0.31168298
    2      -0.19928896
    3       0.18426472
    4       0.27080654
    5       0.25816284
    6       0.17437187

Nr. of electrons (up):     12.00000000
Atom populations (up)
 Atom       Population
    1       3.68831702
    2       5.19928896
    3       0.81573528
    4       0.72919346
    5       0.74183716
    6       0.82562813

l-shell populations (up)
 Atom Sh.   l       Population
    1   1   0       1.40780815
    1   2   1       2.28050887
    2   1   0       1.52048820
    2   2   1       3.67880076
    3   1   0       0.81573528
    4   1   0       0.72919346
    5   1   0       0.74183716
    6   1   0       0.82562813

Orbital populations (up)
 Atom Sh.   l   m       Population  Label
    1   1   0   0       1.40780815  s
    1   2   1  -1       0.42413800  p_y
    1   2   1   0       0.87075221  p_z
    1   2   1   1       0.98561866  p_x
    2   1   0   0       1.52048820  s
    2   2   1  -1       1.34493901  p_y
    2   2   1   0       1.10227829  p_z
    2   2   1   1       1.23158346  p_x
    3   1   0   0       0.81573528  s
    4   1   0   0       0.72919346  s
    5   1   0   0       0.74183716  s
    6   1   0   0       0.82562813  s

Fermi level:                        -0.5154831513 H          -14.0270 eV
Band energy:                        -8.6568832757 H         -235.5658 eV
TS:                                  0.0000000000 H            0.0000 eV
Band free energy (E-TS):            -8.6568832757 H         -235.5658 eV
Extrapolated E(0K):                 -8.6568832757 H         -235.5658 eV
Input / Output electrons (q):     12.0000000000     12.0000000000

Energy H0:                          -5.4027337771 H         -147.0159 eV
Energy SCC:                          0.1361920649 H            3.7060 eV
Total Electronic energy:            -5.2665417122 H         -143.3099 eV
Repulsive energy:                    0.1361241760 H            3.7041 eV
Total energy:                       -5.1304175362 H         -139.6058 eV
Extrapolated to 0:                  -5.1304175362 H         -139.6058 eV
Total Mermin free energy:           -5.1304175362 H         -139.6058 eV
Force related energy:               -5.1304175362 H         -139.6058 eV

SCC converged

Excitation Energy:                   0.0904941604 H            2.4625 eV

Total Forces
    1     -0.007856794669     -0.012114116707      0.042397029074
    2     -0.002525800489     -0.000564628085     -0.048355421058
    3      0.002196053813      0.013427922815     -0.000930657838
    4     -0.005299604642     -0.009711027372      0.000489834996
    5      0.005733541805      0.011882666695      0.002207299718
    6      0.007752604183     -0.002920817345      0.004191915108

Maximal derivative component:        0.483554E-01 au


