 Fermi distribution function

Calculation with static geometry


********************************************************************************
 iSCC Total electronic   Diff electronic      SCC error    
   10   -0.53800408E+01   -0.11075585E-11    0.67215779E-06
********************************************************************************

 Total charge:     1.00000000

 Atomic gross charges (e)
 Atom           Charge
    1       0.29431789
    2      -0.18226025
    3       0.15853879
    4       0.30937250
    5       0.26723900
    6       0.15279206

Nr. of electrons (up):     12.00000000
Atom populations (up)
 Atom       Population
    1       3.70568211
    2       5.18226025
    3       0.84146121
    4       0.69062750
    5       0.73276100
    6       0.84720794

l-shell populations (up)
 Atom Sh.   l       Population
    1   1   0       1.30261586
    1   2   1       2.40306625
    2   1   0       1.42803250
    2   2   1       3.75422775
    3   1   0       0.84146121
    4   1   0       0.69062750
    5   1   0       0.73276100
    6   1   0       0.84720794

Orbital populations (up)
 Atom Sh.   l   m       Population  Label
    1   1   0   0       1.30261586  s
    1   2   1  -1       0.54993956  p_y
    1   2   1   0       0.90083566  p_z
    1   2   1   1       0.95229103  p_x
    2   1   0   0       1.42803250  s
    2   2   1  -1       1.34371129  p_y
    2   2   1   0       1.11063857  p_z
    2   2   1   1       1.29987789  p_x
    3   1   0   0       0.84146121  s
    4   1   0   0       0.69062750  s
    5   1   0   0       0.73276100  s
    6   1   0   0       0.84720794  s

Fermi level:                        -0.4915180015 H          -13.3749 eV
Band energy:                        -8.8784479428 H         -241.5949 eV
TS:                                  0.0000000000 H            0.0000 eV
Band free energy (E-TS):            -8.8784479428 H         -241.5949 eV
Extrapolated E(0K):                 -8.8784479428 H         -241.5949 eV
Input / Output electrons (q):     12.0000000000     12.0000000000

Energy H0:                          -5.5156726296 H         -150.0891 eV
Energy SCC:                          0.1356317990 H            3.6907 eV
Total Electronic energy:            -5.3800408305 H         -146.3984 eV
Repulsive energy:                    0.1946084551 H            5.2956 eV
Total energy:                       -5.1854323754 H         -141.1028 eV
Extrapolated to 0:                  -5.1854323754 H         -141.1028 eV
Total Mermin free energy:           -5.1854323754 H         -141.1028 eV
Force related energy:               -5.1854323754 H         -141.1028 eV

SCC converged

Excitation Energy:                   0.0928173843 H            2.5257 eV

Total Forces
    1     -0.017788995123      0.011155292093      0.003749499562
    2      0.011694328663      0.012692801344     -0.006629996074
    3     -0.000256745728     -0.016904261431      0.002242996974
    4     -0.008352439951      0.004980207290      0.006023264264
    5      0.006014019373     -0.017522358779     -0.002218051934
    6      0.008689832765      0.005598319484     -0.003167712792

Maximal derivative component:        0.177890E-01 au


