|===============================================================================
|
|  DFTB+ release 20.1
|
|  Copyright (C) 2006 - 2020  DFTB+ developers group
|
|===============================================================================
|
|  When publishing results obtained with DFTB+, please cite the following
|  reference:
|
|  * DFTB+, a software package for efficient approximate density functional
|    theory based atomistic simulations, J. Chem. Phys. 152, 124101 (2020).
|    [doi: 10.1063/1.5143190]
|
|  You should also cite additional publications crediting the parametrization
|  data you use. Please consult the documentation of the SK-files for the
|  references.
|
|===============================================================================

Reading input file 'dftb_in.hsd'
Parser version: 8

--------------------------------------------------------------------------------
Reading SK-files:
Done.


Processed input in HSD format written to 'dftb_pin.hsd'

Starting initialization...
--------------------------------------------------------------------------------
OpenMP threads:              1
Chosen random seed:          451676611
Mode:                        Static calculation
Self consistent charges:     Yes
SCC-tolerance:                 0.100000E-05
Max. scc iterations:                   1000
Shell resolved Hubbard:      No
Spin polarisation:           No
Nr. of up electrons:             6.000000
Nr. of down electrons:           6.000000
Periodic boundaries:         No
Electronic solver:           Relatively robust
Maximal SCC-cycles:                    1000
Initial charges:             Set automatically (system chrg:   0.100E+01)
Included shells:             C:  s, p
                             N:  s, p
                             H:  s
Spin coupling constants:     C   1(s)-1(s):  -0.455900E-01
                             C   1(s)-2(p):  -0.293000E-01
                             C   2(p)-1(s):  -0.293000E-01
                             C   2(p)-2(p):  -0.275500E-01
                             N   1(s)-1(s):  -0.468700E-01
                             N   1(s)-2(p):  -0.317000E-01
                             N   2(p)-1(s):  -0.317000E-01
                             N   2(p)-2(p):  -0.307200E-01
                             H   1(s)-1(s):  -0.792500E-01
Range separated hybrid:      Yes
  Screening parameter omega:   0.300000E+00
  Range separated algorithm:   MatrixBased
Extra options:
                             Mulliken analysis
                             Force calculation
Force type                   original
                             Eigenvector printing


REKS Calcuation:             Yes
SSR(2,2) Calcuation:         Yes
Energy Functional:           (PPS+OSS)/2
Number of Core Orbitals:                  5
Number of Active Orbitals:                2
Number of Basis:                         12
Number of States:                         2
State-Averaging Weight:          0.500000
                                 0.500000
State of Interest:                        1
Initial Guess:               Diagonalize H0 matrix
Newton-Raphson for FON opt:  Yes
NR max. Iterations:                      50
Level Shifting:              Yes
Shift Value:                     0.300000
W Scale Factor:              C  =    3.200000
                             N  =    3.200000
                             H  =    3.200000
Transition Dipole:           No
Gradient of Microstate:      No
CP-REKS Solver:              Preconditioned Conjugate-Gradient
CG max. Iterations:                     100
CG Tolerance:                  0.100000E-07
Memory for A and Hxc:        Direct Updating Without Saving
Non-Adiabatic Coupling:      Yes

--------------------------------------------------------------------------------

***  Geometry step: 0

  iSCC       reks energy        Diff energy         x_a       SCC error   
    1       -6.1409699812       0.0000000000     0.985616    0.77660573
    2       -6.1589896358      -0.0180196546     0.999636    0.10774722
    3       -6.1663984505      -0.0074088147     0.999989    0.06633031
    4       -6.1686932955      -0.0022948450     0.999999    0.03905420
    5       -6.1693692824      -0.0006759869     1.000000    0.01689086
    6       -6.1696102228      -0.0002409403     1.000000    0.00790733
    7       -6.1697124310      -0.0001022083     1.000000    0.00460110
    8       -6.1697622347      -0.0000498037     1.000000    0.00302845
    9       -6.1697891679      -0.0000269333     1.000000    0.00212663
   10       -6.1698048297      -0.0000156617     1.000000    0.00155537
   11       -6.1698143879      -0.0000095582     1.000000    0.00116970
   12       -6.1698204084      -0.0000060205     1.000000    0.00089735
   13       -6.1698242802      -0.0000038718     1.000000    0.00069861
   14       -6.1698268051      -0.0000025249     1.000000    0.00055001
   15       -6.1698284677      -0.0000016626     1.000000    0.00043679
   16       -6.1698295702      -0.0000011026     1.000000    0.00034928
   17       -6.1698303054      -0.0000007352     1.000000    0.00028086
   18       -6.1698307978      -0.0000004924     1.000000    0.00022686
   19       -6.1698311288      -0.0000003310     1.000000    0.00018392
   20       -6.1698313520      -0.0000002233     1.000000    0.00014978
   21       -6.1698315031      -0.0000001510     1.000000    0.00012570
   22       -6.1698316056      -0.0000001025     1.000000    0.00010537
   23       -6.1698316753      -0.0000000697     1.000000    0.00008825
   24       -6.1698317228      -0.0000000476     1.000000    0.00007386
   25       -6.1698317553      -0.0000000325     1.000000    0.00006178
   26       -6.1698317776      -0.0000000223     1.000000    0.00005166
   27       -6.1698317929      -0.0000000153     1.000000    0.00004318
   28       -6.1698318035      -0.0000000105     1.000000    0.00003609
   29       -6.1698318107      -0.0000000073     1.000000    0.00003016
   30       -6.1698318158      -0.0000000050     1.000000    0.00002521
   31       -6.1698318192      -0.0000000035     1.000000    0.00002107
   32       -6.1698318216      -0.0000000024     1.000000    0.00001761
   33       -6.1698318233      -0.0000000017     1.000000    0.00001472
   34       -6.1698318245      -0.0000000012     1.000000    0.00001230
   35       -6.1698318253      -0.0000000008     1.000000    0.00001029
   36       -6.1698318259      -0.0000000006     1.000000    0.00000860
   37       -6.1698318263      -0.0000000004     1.000000    0.00000720
   38       -6.1698318265      -0.0000000003     1.000000    0.00000602
   39       -6.1698318267      -0.0000000002     1.000000    0.00000504
   40       -6.1698318269      -0.0000000001     1.000000    0.00000422
   41       -6.1698318270      -0.0000000001     1.000000    0.00000353
   42       -6.1698318270      -0.0000000001     1.000000    0.00000295
   43       -6.1698318271      -0.0000000000     1.000000    0.00000247
   44       -6.1698318271      -0.0000000000     1.000000    0.00000207
   45       -6.1698318271      -0.0000000000     1.000000    0.00000174
   46       -6.1698318272      -0.0000000000     1.000000    0.00000146
   47       -6.1698318272      -0.0000000000     1.000000    0.00000122
   48       -6.1698318272      -0.0000000000     1.000000    0.00000102
   49       -6.1698318272      -0.0000000000     1.000000    0.00000086
  
--------------------------------------------------
 Final SA-REKS(2,2) energy:      -6.16983183
  
 State     Energy      FON(1)    FON(2)   Spin
  PPS   -6.18042260   2.000000  0.000000  0.00
  OSS   -6.15924106   1.000000  1.000000  0.00
 Trip   -6.18286113   1.000000  1.000000  1.00
--------------------------------------------------

 Lagrangian Wab:   0.04284487  0.04284489

--------------------------------------------------
 SSR: 2SI-2SA-REKS(2,2) Hamiltonian matrix
               PPS           OSS
   PPS    -6.18042260    0.06057777
   OSS     0.06057777   -6.15924106
--------------------------------------------------

----------------------------------------------------------------
 SSR: 2SI-2SA-REKS(2,2) states
                    E_n       C_{PPS}    C_{OSS}
 SSR state  1   -6.23132842  -0.765577   0.643344
 SSR state  2   -6.10833524  -0.643344  -0.765577
----------------------------------------------------------------

 unrelaxed SSR FONs for S0:  1.586109  0.413891

Total Energy:                       -6.2313284170 H         -169.5631 eV
Extrapolated to 0:                  -6.2313284170 H         -169.5631 eV

----------------------------------------------------------------------------------
 Solving CP-REKS equation for  1 state vector...
----------------------------------------------------------------------------------
  CG solver: Constructing Y initial guess
  CG solver: Iteration    1    eps =    0.002624560015
  CG solver: Iteration    2    eps =    0.000074353262
  CG solver: Iteration    3    eps =    0.000014982341
  CG solver: Iteration    4    eps =    0.000002138422
  CG solver: Iteration    5    eps =    0.000000176340
  CG solver: Iteration    6    eps =    0.000000026490
  CG solver: Iteration    7    eps =    0.000000002339
  Convergence reached in CG solver after    7 iterations
  CG solver: Calculating converged R, Z, Q2 matrix
----------------------------------------------------------------------------------

----------------------------------------------------------------------------------
 Solving CP-REKS equation for SI between  1 and  2 state vectors...
----------------------------------------------------------------------------------
  CG solver: Constructing Y initial guess
  CG solver: Iteration    1    eps =    0.002266553626
  CG solver: Iteration    2    eps =    0.000200578715
  CG solver: Iteration    3    eps =    0.000018205249
  CG solver: Iteration    4    eps =    0.000002775940
  CG solver: Iteration    5    eps =    0.000000355086
  CG solver: Iteration    6    eps =    0.000000045029
  CG solver: Iteration    7    eps =    0.000000003766
  Convergence reached in CG solver after    7 iterations
  CG solver: Calculating converged R, Z, Q2 matrix
----------------------------------------------------------------------------------

--------------------------------------------------
 Gradient Information
--------------------------------------------------
           1 st state (SSR)
     0.07749392     0.01375910    -0.09878800
     0.02168101     0.03825728     0.14666386
    -0.05554704     0.06004858    -0.03802059
    -0.02028886    -0.05949771    -0.02350971
    -0.00676279     0.03306480     0.00387447
    -0.01657623    -0.08563205     0.00977997

           2 st state (SSR)
     0.05423422     0.02410441     0.02583095
    -0.00782689     0.02621039     0.01694996
    -0.03534825     0.06291817    -0.03856683
     0.00893933    -0.06413160    -0.01919192
    -0.00083659     0.03512828     0.00240711
    -0.01916182    -0.08422965     0.01257073
--------------------------------------------------
 Coupling Information
--------------------------------------------------
 between  1 and  2 states
--------------------------------------------------
 g vector - difference gradient
     0.01624534    -0.00429729    -0.08145547
    -0.01899848     0.00223347     0.06842451
    -0.00378438    -0.00321490     0.00469032
     0.00450144    -0.00062351     0.00408175
     0.00582852     0.00330662     0.00314510
    -0.00379244     0.00259561     0.00111378

 h vector - derivative coupling
    -0.00896609     0.00449982     0.04901376
    -0.01829922    -0.00572433    -0.05387807
     0.00959096     0.00089450     0.00054274
     0.01562274    -0.00246109     0.00290525
     0.00402704     0.00162548    -0.00019495
    -0.00197543     0.00116562     0.00161127

 G vector - GDV
     0.01162985    -0.00517266    -0.06230948
     0.01475395     0.00602345     0.06485695
    -0.01009940    -0.00143480     0.00027312
    -0.01461409     0.00231694    -0.00215889
    -0.00296310    -0.00103174     0.00073368
     0.00129279    -0.00070120    -0.00139538

 H vector - DCV - non-adiabatic coupling
     0.11755537    -0.02811654    -0.58375130
    -0.17778277     0.00987271     0.47257457
    -0.01687991    -0.02449585     0.03832501
     0.05792751    -0.00843979     0.03675895
     0.05231967     0.02875896     0.02491628
    -0.03313988     0.02242050     0.01117648
--------------------------------------------------


--------------------------------------------------------------------------------
DFTB+ running times                          cpu [s]             wall clock [s]
--------------------------------------------------------------------------------
SCC                                    +     0.02  ( 66.2%)      0.03  ( 62.5%)
Post-SCC processing                    +     0.01  ( 30.3%)      0.01  ( 27.5%)
  Force calculation                          0.01  ( 29.7%)      0.01  ( 25.0%)
--------------------------------------------------------------------------------
Missing                                +     0.00  (  3.4%)      0.00  ( 10.0%)
Total                                  =     0.03  (100.0%)      0.04  (100.0%)
--------------------------------------------------------------------------------
