    14
  Step:     0            Position(A)                                  Velocity(au)
C        -6.00159967    -0.80453016    -0.13534551    -0.00045567    -0.00010669    -0.00021037
C        -4.71243592    -0.73549554     0.20120965     0.00029611     0.00033308     0.00000390
H        -6.62473036    -0.17114916    -0.73150880    -0.00020438     0.00018957    -0.00045732
H        -6.47046812    -1.70785343     0.10947846    -0.00095500    -0.00021905     0.00007905
H        -4.29862630    -1.51630873     0.83164397    -0.00102843    -0.00041032    -0.00029955
C        -3.93726579     0.45943670    -0.09601805    -0.00006301    -0.00020041     0.00016188
C        -2.61015480     0.59264386     0.23412763     0.00031805    -0.00009060     0.00036701
H        -4.47711903     1.25451352    -0.61101791    -0.00002192    -0.00013939     0.00035371
H        -2.05966702    -0.25603946     0.71140320     0.00031759    -0.00068917    -0.00038361
C        -1.80759689     1.71392945    -0.07404256     0.00032931    -0.00006364    -0.00006913
H        -2.20768010     2.64804525    -0.52998969    -0.00008838    -0.00114745    -0.00018336
N        -0.47853397     1.74909747     0.22953456    -0.00007281     0.00028556    -0.00004751
H         0.04067221     2.60183315     0.05350005    -0.00151045    -0.00065696    -0.00012138
H         0.00205168     0.87286801     0.44230460    -0.00055912     0.00063283    -0.00134557
    14
  Step:     1            Position(A)                                  Velocity(au)
C        -6.00685349    -0.80580112    -0.13774616    -0.00050057    -0.00012568    -0.00022723
C        -4.70885257    -0.73161458     0.20132367     0.00035105     0.00037361     0.00001551
H        -6.62676456    -0.16790789    -0.73688497    -0.00016367     0.00039403    -0.00052019
H        -6.48236428    -1.71187034     0.11097740    -0.00120178    -0.00048926     0.00018844
H        -4.30943290    -1.52099586     0.82820339    -0.00093694    -0.00044503    -0.00032541
C        -3.93835475     0.45710135    -0.09430224    -0.00013403    -0.00022531     0.00015218
C        -2.60624170     0.59164391     0.23822782     0.00039727    -0.00009146     0.00038164
H        -4.47716055     1.25312863    -0.60717001     0.00001339    -0.00011122     0.00034790
H        -2.05691879    -0.26295513     0.70693652     0.00018556    -0.00057118    -0.00043093
C        -1.80404777     1.71332597    -0.07483175     0.00031756    -0.00005045    -0.00007397
H        -2.20854936     2.63457890    -0.53155166    -0.00007811    -0.00128778    -0.00011220
N        -0.47931532     1.75219128     0.22902111    -0.00007411     0.00027763    -0.00004600
H         0.02443930     2.59443115     0.05216945    -0.00140708    -0.00062262    -0.00013715
H        -0.00399735     0.88034020     0.42761643    -0.00052095     0.00069651    -0.00132800
    14
  Step:     2            Position(A)                                  Velocity(au)
C        -6.01255059    -0.80727966    -0.14031669    -0.00053734    -0.00014519    -0.00024130
C        -4.70475592    -0.72732211     0.20154897     0.00038999     0.00040810     0.00002431
H        -6.62831099    -0.16252895    -0.74288890    -0.00011356     0.00057647    -0.00056944
H        -6.49675940    -1.71855689     0.11360087    -0.00140533    -0.00069524     0.00028067
H        -4.31912373    -1.52604469     0.82452501    -0.00082561    -0.00047416    -0.00034474
C        -3.94019795     0.45450755    -0.09268885    -0.00020115    -0.00024778     0.00014315
C        -2.60146368     0.59064305     0.24247678     0.00047630    -0.00008996     0.00039397
H        -4.47682600     1.25208046    -0.60340699     0.00004612    -0.00007794     0.00033776
H        -2.05560745    -0.26853514     0.70197583     0.00005902    -0.00045001    -0.00047127
C        -1.80064956     1.71282571    -0.07566081     0.00030190    -0.00004567    -0.00007597
H        -2.20938892     2.61987259    -0.53244430    -0.00008548    -0.00136861    -0.00006391
N        -0.48015517     1.75517108     0.22852829    -0.00008337     0.00026512    -0.00004378
H         0.00988964     2.58821220     0.05049972    -0.00120631    -0.00044357    -0.00018325
H        -0.00934508     0.88810553     0.41325213    -0.00043081     0.00068475    -0.00128688
    14
  Step:     3            Position(A)                                  Velocity(au)
C        -6.01860892    -0.80897739    -0.14302497    -0.00056750    -0.00016596    -0.00025248
C        -4.70032070    -0.72268659     0.20185543     0.00041373     0.00043640     0.00003051
H        -6.62924883    -0.15529644    -0.74934261    -0.00005145     0.00072985    -0.00060045
H        -6.51310853    -1.72708013     0.11711760    -0.00155536    -0.00081886     0.00034921
H        -4.32749472    -1.53136900     0.82066154    -0.00069708    -0.00049304    -0.00036117
C        -3.94275524     0.45168062    -0.09117060    -0.00026519    -0.00026828     0.00013476
C        -2.59582168     0.58967584     0.24684677     0.00055551    -0.00008452     0.00040361
H        -4.47615153     1.25142345    -0.59978086     0.00007506    -0.00004014     0.00032248
H        -2.05562756    -0.27279993     0.69662648    -0.00005385    -0.00033579    -0.00049959
C        -1.79744308     1.71232677    -0.07649372     0.00028272    -0.00005088    -0.00007430
H        -2.21041943     2.60463788    -0.53294988    -0.00011490    -0.00138096    -0.00004336
N        -0.48113917     1.75799129     0.22806325    -0.00009961     0.00024943    -0.00004111
H        -0.00195115     2.58472723     0.04816061    -0.00092298    -0.00013873    -0.00025660
H        -0.01342208     0.89532049     0.39946345    -0.00029131     0.00059922    -0.00122427
    14
  Step:     4            Position(A)                                  Velocity(au)
C        -6.02496565    -0.81091038    -0.14584011    -0.00059301    -0.00018811    -0.00026108
C        -4.69570488    -0.71777493     0.20221643     0.00042440     0.00045886     0.00003457
H        -6.62943661    -0.14656206    -0.75602490     0.00002369     0.00084905    -0.00061012
H        -6.53078595    -1.73647094     0.12124051    -0.00164752    -0.00085332     0.00039051
H        -4.33437379    -1.53683084     0.81662380    -0.00055440    -0.00049719    -0.00037846
C        -3.94599949     0.44863835    -0.08974065    -0.00032718    -0.00028753     0.00012704
C        -2.58931087     0.58879400     0.25130656     0.00063498    -0.00007391     0.00041025
H        -4.47518392     1.25120240    -0.59635222     0.00009950     0.00000102     0.00030138
H        -2.05678554    -0.27588129     0.69104635    -0.00014526    -0.00023854    -0.00051137
C        -1.79446443     1.71171261    -0.07728631     0.00026060    -0.00006685    -0.00006841
H        -2.21190249     2.58966135    -0.53339286    -0.00016901    -0.00132094    -0.00005285
N        -0.48233440     1.76062774     0.22762903    -0.00012048     0.00023295    -0.00003847
H        -0.01030226     2.58517730     0.04488601    -0.00058595     0.00024798    -0.00034869
H        -0.01571805     0.90121462     0.38646898    -0.00011089     0.00045209    -0.00114391
    14
  Step:     5            Position(A)                                  Velocity(au)
C        -6.03158206    -0.81309257    -0.14873661    -0.00061600    -0.00021123    -0.00026769
C        -4.69103603    -0.71264816     0.20261163     0.00042484     0.00047583     0.00003717
H        -6.62873055    -0.13672195    -0.76269009     0.00011126     0.00093113    -0.00059705
H        -6.54915117    -1.74574815     0.12566084    -0.00168281    -0.00080180     0.00040391
H        -4.33962329    -1.54224600     0.81238210    -0.00040069    -0.00048292    -0.00039989
C        -3.94991292     0.44539029    -0.08839133    -0.00038686    -0.00030585     0.00012018
C        -2.58193036     0.58805882     0.25582184     0.00071303    -0.00005803     0.00041355
H        -4.47397475     1.25144568    -0.59318759     0.00011922     0.00004373     0.00027421
H        -2.05880531    -0.27801852     0.68543925    -0.00020814    -0.00016763    -0.00050280
C        -1.79174185     1.71086433    -0.07799030     0.00023647    -0.00009282    -0.00005828
H        -2.21411689     2.57573986    -0.53410599    -0.00024778    -0.00119148    -0.00009116
N        -0.48377497     1.76308742     0.22722158    -0.00014249     0.00021863    -0.00003658
H        -0.01476991     2.59015236     0.04053227    -0.00023385     0.00065412    -0.00044673
H        -0.01584793     0.90521076     0.37443828     0.00009641     0.00026581    -0.00105080
    14
  Step:     6            Position(A)                                  Velocity(au)
C        -6.03844190    -0.81553148    -0.15169643    -0.00063797    -0.00023462    -0.00027293
C        -4.68641071    -0.70736522     0.20302959     0.00041715     0.00048698     0.00003917
H        -6.62700254    -0.12619190    -0.76908655     0.00020907     0.00097538    -0.00056157
H        -6.56760060    -1.75401188     0.13007691    -0.00166636    -0.00067458     0.00039111
H        -4.34313967    -1.54739572     0.80787546    -0.00023901    -0.00044779    -0.00042772
C        -3.95446285     0.44194738    -0.08711143    -0.00044153    -0.00032235     0.00011458
C        -2.57371198     0.58752443     0.26035376     0.00078537    -0.00003832     0.00041304
H        -4.47257583     1.25215904    -0.59035343     0.00013428     0.00008582     0.00024145
H        -2.06133892    -0.27954844     0.68004668    -0.00023684    -0.00013087    -0.00047091
C        -1.78929128     1.70968190    -0.07856119     0.00021148    -0.00012614    -0.00004467
H        -2.21732312     2.56359545    -0.53538705    -0.00034757    -0.00100365    -0.00015303
N        -0.48545170     1.76541062     0.22682871    -0.00016153     0.00020916    -0.00003609
H        -0.01541809     2.59948734     0.03511299     0.00009286     0.00101243    -0.00053639
H        -0.01360896     0.90702973     0.36348079     0.00031234     0.00007034    -0.00095073
    14
  Step:     7            Position(A)                                  Velocity(au)
C        -6.04553883    -0.81822535    -0.15470748    -0.00065910    -0.00025736    -0.00027718
C        -4.68191001    -0.70199454     0.20346854     0.00040189     0.00049096     0.00004136
H        -6.62415681    -0.11538361    -0.77497560     0.00031360     0.00098315    -0.00050566
H        -6.58560601    -1.76050594     0.13421703    -0.00160600    -0.00048612     0.00035556
H        -4.34485207    -1.55204235     0.80302482    -0.00007218    -0.00039085    -0.00046293
C        -3.95957227     0.43833830    -0.08588478    -0.00048671    -0.00033489     0.00011056
C        -2.56474889     0.58722055     0.26485782     0.00084636    -0.00001720     0.00040829
H        -4.47103706     1.25332320    -0.58790544     0.00014491     0.00012502     0.00020451
H        -2.06398671    -0.28088159     0.67513709    -0.00022803    -0.00013326    -0.00041407
C        -1.78711539     1.70810485    -0.07896759     0.00018651    -0.00016285    -0.00002907
H        -2.22172059     2.55378309    -0.53745377    -0.00046087    -0.00077619    -0.00022956
N        -0.48730885     1.76766315     0.22643214    -0.00017359     0.00020622    -0.00003737
H        -0.01273833     2.61230120     0.02879761     0.00036050     0.00126689    -0.00060508
H        -0.00901488     0.90674951     0.35363930     0.00051717    -0.00010208    -0.00084963
    14
  Step:     8            Position(A)                                  Velocity(au)
C        -6.05286100    -0.82116171    -0.15776026    -0.00067847    -0.00027846    -0.00028056
C        -4.67761863    -0.69662445     0.20393436     0.00037831     0.00048590     0.00004430
H        -6.62014190    -0.10468361    -0.78014890     0.00042047     0.00095750    -0.00043271
H        -6.60273491    -1.76464665     0.13785539    -0.00151095    -0.00025271     0.00030181
H        -4.34471877    -1.55594631     0.79774807     0.00009729    -0.00031274    -0.00050518
C        -3.96511060     0.43462103    -0.08469268    -0.00051817    -0.00034078     0.00010817
C        -2.55519628     0.58714820     0.26928584     0.00089139     0.00000293     0.00039918
H        -4.46940565     1.25489399    -0.58587934     0.00015144     0.00015909     0.00016542
H        -2.06632750    -0.28246372     0.67098800    -0.00018135    -0.00017576    -0.00033256
C        -1.78521099     1.70611928    -0.07919717     0.00016174    -0.00019889    -0.00001325
H        -2.22740556     2.54661479    -0.54040913    -0.00057699    -0.00053308    -0.00030930
N        -0.48924926     1.76992218     0.22601115    -0.00017547     0.00021018    -0.00004052
H        -0.00753156     2.62720300     0.02187577     0.00054797     0.00138387    -0.00064436
H        -0.00229493     0.90479647     0.34489358     0.00069276    -0.00022291    -0.00075251
    14
  Step:     9            Position(A)                                  Velocity(au)
C        -6.06038173    -0.82431726    -0.16084523    -0.00069460    -0.00029698    -0.00028301
C        -4.67363384    -0.69136456     0.20443775     0.00034523     0.00047002     0.00004834
H        -6.61495816    -0.09443645    -0.78444189     0.00052481     0.00090287    -0.00034709
H        -6.61866090    -1.76603453     0.14081969    -0.00139111     0.00000871     0.00023491
H        -4.34272375    -1.55888415     0.79197308     0.00026716    -0.00021575    -0.00055304
C        -3.97090832     0.43088312    -0.08351843    -0.00053324    -0.00033754     0.00010704
C        -2.54524805     0.58728473     0.27359061     0.00091809     0.00002011     0.00038603
H        -4.46772410     1.25680359    -0.58428659     0.00015439     0.00018598     0.00012637
H        -2.06795403    -0.28472666     0.66786177    -0.00009982    -0.00025442    -0.00022904
C        -1.78357711     1.70375369    -0.07925739     0.00013680    -0.00023076     0.00000110
H        -2.23434344     2.54212098    -0.54422031    -0.00068377    -0.00029965    -0.00037986
N        -0.49114758     1.77226115     0.22554565    -0.00016537     0.00022017    -0.00004539
H        -0.00075037     2.64257600     0.01470091     0.00064820     0.00135495    -0.00065113
H         0.00614068     0.90187298     0.33717665     0.00082533    -0.00027214    -0.00066262
    14
  Step:    10            Position(A)                                  Velocity(au)
C        -6.06805676    -0.82765864    -0.16395166    -0.00070589    -0.00031203    -0.00028441
C        -4.67006603    -0.68634191     0.20499190     0.00030164     0.00044203     0.00005360
H        -6.60866058    -0.08493162    -0.78774226     0.00062168     0.00082472    -0.00025382
H        -6.63316800    -1.76445607     0.14299448    -0.00125664     0.00028129     0.00016012
H        -4.33887403    -1.56066623     0.78564918     0.00043546    -0.00010369    -0.00060415
C        -3.97677633     0.42723667    -0.08235102    -0.00053087    -0.00032327     0.00010658
C        -2.53511136     0.58758824     0.27773092     0.00092610     0.00003266     0.00036957
H        -4.46602803     1.25896273    -0.58311467     0.00015446     0.00020395     0.00008945
H        -2.06851119    -0.28802973     0.66597740     0.00001022    -0.00035997    -0.00010864
C        -1.78221831     1.70107105    -0.07917312     0.00011126    -0.00025569     0.00001257
H        -2.24236427     2.54005936    -0.54871920    -0.00076972    -0.00009847    -0.00042993
N        -0.49286702     1.77473891     0.22501825    -0.00014295     0.00023467    -0.00005167
H         0.00664914     2.65684507     0.00763115     0.00066575     0.00119258    -0.00062703
H         0.01576071     0.89884284     0.33039756     0.00090696    -0.00024074    -0.00058120
    14
  Step:    11            Position(A)                                  Velocity(au)
C        -6.07582453    -0.83114359    -0.16706726    -0.00071084    -0.00032287    -0.00028463
C        -4.66703490    -0.68169431     0.20561040     0.00024692     0.00040130     0.00006005
H        -6.60135770    -0.07639406    -0.78999461     0.00070637     0.00072925    -0.00015814
H        -6.64615222    -1.75988070     0.14432264    -0.00111784     0.00054846     0.00008285
H        -4.33319727    -1.56115263     0.77875615     0.00060032     0.00001831    -0.00065542
C        -3.98252211     0.42381089    -0.08118688    -0.00051128    -0.00029679     0.00010611
C        -2.52498780     0.58799914     0.28167560     0.00091648     0.00003897     0.00035082
H        -4.46434500     1.26126545    -0.58232960     0.00015240     0.00021181     0.00005637
H        -2.06773038    -0.29260164     0.66548497     0.00013980    -0.00047849     0.00002146
C        -1.78114306     1.69816000    -0.07898245     0.00008498    -0.00027177     0.00002019
H        -2.25118265     2.53996680    -0.55362589    -0.00082602     0.00005385    -0.00045116
N        -0.49427491     1.77739498     0.22441529    -0.00010915     0.00025192    -0.00005902
H         0.01381417     2.66866607     0.00098345     0.00061285     0.00092254    -0.00057713
H         0.02598209     0.89660635     0.32446173     0.00093595    -0.00013047    -0.00050793
    14
  Step:    12            Position(A)                                  Velocity(au)
C        -6.08360766    -0.83472196    -0.17017848    -0.00070809    -0.00032879    -0.00028358
C        -4.66466422    -0.67756277     0.20630550     0.00018104     0.00034796     0.00006746
H        -6.59320738    -0.06897780    -0.79120189     0.00077464     0.00062311    -0.00006537
H        -6.65762295    -1.75245753     0.14480702    -0.00098521     0.00079390     0.00000867
H        -4.32574089    -1.56026574     0.77131052     0.00075998     0.00014414    -0.00070339
C        -3.98796151     0.42074375    -0.08002960    -0.00047563    -0.00025776     0.00010507
C        -2.51506156     0.58844082     0.28540584     0.00089109     0.00003759     0.00033094
H        -4.46269408     1.26359643    -0.58188137     0.00014892     0.00020914     0.00002836
H        -2.06545288    -0.29849769     0.66644698     0.00027850    -0.00059330     0.00015309
C        -1.78035931     1.69512553    -0.07873143     0.00005818    -0.00027795     0.00002348
H        -2.26043513     2.54123752    -0.55858927    -0.00084758     0.00014823    -0.00043917
N        -0.49525490     1.78025016     0.22372700    -0.00006583     0.00027035    -0.00006710
H         0.02005639     2.67702747    -0.00499470     0.00050586     0.00057707    -0.00050839
H         0.03623635     0.89598855     0.31928562     0.00091611     0.00004796    -0.00044142
    14
  Step:    13            Position(A)                                  Velocity(au)
C        -6.09131525    -0.83833652    -0.17327106    -0.00069654    -0.00032920    -0.00028123
C        -4.66307437    -0.67408193     0.20708622     0.00010466     0.00028307     0.00007547
H        -6.58441089    -0.06276237    -0.79142471     0.00082291     0.00051313     0.00001937
H        -6.66770558    -1.74251267     0.14451229    -0.00086937     0.00100171    -0.00005671
H        -4.31657121    -1.55799937     0.76336812     0.00091278     0.00026707    -0.00074447
C        -3.99292737     0.41817181    -0.07888823    -0.00042577    -0.00020680     0.00010308
C        -2.50549353     0.58882153     0.28891560     0.00085215     0.00002730     0.00031104
H        -4.46108716     1.26584075    -0.58170922     0.00014460     0.00019647     0.00000609
H        -2.06163758    -0.30558126     0.66883406     0.00041597    -0.00068744     0.00027816
C        -1.77987035     1.69207938    -0.07846878     0.00003149    -0.00027396     0.00002242
H        -2.26972508     2.54320967    -0.56323348    -0.00083325     0.00018292    -0.00039355
N        -0.49571510     1.78330941     0.22294727    -0.00001548     0.00028865    -0.00007559
H         0.02488074     2.68129048    -0.01013859     0.00036282     0.00019043    -0.00042862
H         0.04602384     0.89765550     0.31480488     0.00085545     0.00027762    -0.00037975
    14
  Step:    14            Position(A)                                  Velocity(au)
C        -6.09884578    -0.84192388    -0.17633100    -0.00067537    -0.00032360    -0.00027765
C        -4.66237461    -0.67137017     0.20795654     0.00001914     0.00020853     0.00008354
H        -6.57520459    -0.05775220    -0.79077806     0.00084840     0.00040605     0.00009136
H        -6.67664200    -1.73054317     0.14356632    -0.00078074     0.00115698    -0.00010758
H        -4.30577212    -1.55442315     0.75502375     0.00105712     0.00038020    -0.00077528
C        -3.99727611     0.41621957    -0.07777446    -0.00036409    -0.00014548     0.00010005
C        -2.49641908     0.58903808     0.29221038     0.00080197     0.00000732     0.00029204
H        -4.45953059     1.26789458    -0.58174820     0.00013988     0.00017530    -0.00001034
H        -2.05635263    -0.31353682     0.67253223     0.00054319    -0.00074640     0.00038978
C        -1.77967044     1.68913219    -0.07824106     0.00000585    -0.00026020     0.00001736
H        -2.27866407     2.54523934    -0.56719897    -0.00078523     0.00016207    -0.00031722
N        -0.49559351     1.78656503     0.22207332     0.00003902     0.00030578    -0.00008419
H         0.02799388     2.68119345    -0.01437159     0.00020239    -0.00020309    -0.00034601
H         0.05495099     0.90206193     0.31097786     0.00076481     0.00053784    -0.00032079
    14
  Step:    15            Position(A)                                  Velocity(au)
C        -6.10609021    -0.84541590    -0.17934527    -0.00064406    -0.00031165    -0.00027296
C        -4.66265562    -0.66952002     0.20891372    -0.00007351     0.00012708     0.00009099
H        -6.56585042    -0.05387919    -0.78942601     0.00084928     0.00030822     0.00014647
H        -6.68478585    -1.71720162     0.14215877    -0.00072899     0.00124673    -0.00013855
H        -4.29344467    -1.54968170     0.74640732     0.00119145     0.00047702    -0.00079294
C        -4.00089246     0.41498907    -0.07669936    -0.00029332    -0.00007629     0.00009618
C        -2.48794889     0.58898164     0.29530455     0.00074272    -0.00002253     0.00027461
H        -4.45802702     1.26967570    -0.58193544     0.00013502     0.00014801    -0.00002136
H        -2.04975433    -0.32191016     0.67736129     0.00065335    -0.00076014     0.00048303
C        -1.77974235     1.68638701    -0.07808897    -0.00001764    -0.00023760     0.00000898
H        -2.28690346     2.54675535    -0.57017324    -0.00070817     0.00009402    -0.00021541
N        -0.49486152     1.78999884     0.22110549     0.00009450     0.00032079    -0.00009261
H         0.02930835     2.67684753    -0.01770828     0.00004360    -0.00056951    -0.00026908
H         0.06275559     0.90942180     0.30778692     0.00065690     0.00080604    -0.00026234
    14
  Step:    16            Position(A)                                  Velocity(au)
C        -6.11293583    -0.84874188    -0.18230252    -0.00060251    -0.00029330    -0.00026730
C        -4.66398279    -0.66859016     0.20994720    -0.00017076     0.00004205     0.00009711
H        -6.55662486    -0.05100922    -0.78757377     0.00082478     0.00022518     0.00018143
H        -6.69258997    -1.70326861     0.14053529    -0.00072174     0.00126176    -0.00014524
H        -4.27970698    -1.54398736     0.73767672     0.00131413     0.00055198    -0.00079536
C        -4.00369301     0.41455068    -0.07567026    -0.00021645    -0.00000240     0.00009193
C        -2.48017058     0.58854515     0.29821801     0.00067641    -0.00006175     0.00025909
H        -4.45657685     1.27113251    -0.58221548     0.00013017     0.00011770    -0.00002783
H        -2.04205933    -0.33016641     0.68309944     0.00074225    -0.00072415     0.00055527
C        -1.78005639     1.68393423    -0.07804462    -0.00003788    -0.00020749    -0.00000187
H        -2.29415669     2.54729624    -0.57191154    -0.00060829    -0.00001036    -0.00009479
N        -0.49352614     1.79358289     0.22004732     0.00014766     0.00033280    -0.00010054
H         0.02894761     2.66873427    -0.02025833    -0.00009403    -0.00087507    -0.00020674
H         0.06932196     0.91969561     0.30523877     0.00054547     0.00105899    -0.00020215
    14
  Step:    17            Position(A)                                  Velocity(au)
C        -6.11927122    -0.85183247    -0.18519299    -0.00055109    -0.00026892    -0.00026078
C        -4.66639136    -0.66860020     0.21103813    -0.00026974    -0.00004292     0.00010114
H        -6.54780687    -0.04895304    -0.78545698     0.00077524     0.00016123     0.00019407
H        -6.70057520    -1.68959827     0.13898128    -0.00076295     0.00119890    -0.00012526
H        -4.26469555    -1.53760604     0.72900724     0.00142334     0.00060115    -0.00078159
C        -4.00562777     0.41493655    -0.07468811    -0.00013655     0.00007252     0.00008796
C        -2.47315109     0.58763084     0.30097261     0.00060484    -0.00010916     0.00024551
H        -4.45517920     1.27225056    -0.58254418     0.00012546     0.00008792    -0.00003088
H        -2.03351630    -0.33775238     0.68950882     0.00080802    -0.00063922     0.00060601
C        -1.78057103     1.68184783    -0.07812979    -0.00005386    -0.00017150    -0.00001419
H        -2.30021097     2.54652870    -0.57224688    -0.00049263    -0.00013890     0.00003733
N        -0.49163107     1.79727953     0.21890597     0.00019520     0.00034095    -0.00010764
H         0.02725122     2.65770377    -0.02223115    -0.00019093    -0.00108687    -0.00016815
H         0.07468879     0.93258930     0.30336450     0.00044466     0.00127388    -0.00013802
    14
  Step:    18            Position(A)                                  Velocity(au)
C        -6.12499200    -0.85462503    -0.18800767    -0.00049078    -0.00023943    -0.00025339
C        -4.66988393    -0.66952921     0.21215982    -0.00036746    -0.00012424     0.00010244
H        -6.53966500    -0.04748198    -0.78332812     0.00070222     0.00011907     0.00018360
H        -6.70928089    -1.67704042     0.13779496    -0.00085108     0.00106320    -0.00007923
H        -4.24856872    -1.53083601     0.72057793     0.00151680     0.00062280    -0.00075199
C        -4.00668028     0.41613730    -0.07374596    -0.00005659     0.00014472     0.00008500
C        -2.46693861     0.58615704     0.30358900     0.00052963    -0.00016306     0.00023364
H        -4.45383221     1.27305588    -0.58289102     0.00012098     0.00006234    -0.00003178
H        -2.02438226    -0.34415062     0.69635710     0.00085078    -0.00051060     0.00063656
C        -1.78123474     1.68018241    -0.07835495    -0.00006479    -0.00013152    -0.00002692
H        -2.30493388     2.54425744    -0.57109492    -0.00036869    -0.00027879     0.00017330
N        -0.48925585     1.80104183     0.21769249     0.00023401     0.00034450    -0.00011356
H         0.02477070     2.64495689    -0.02393702    -0.00022904    -0.00117556    -0.00016210
H         0.07904981     0.94756419     0.30221942     0.00036820     0.00142953    -0.00006777
    14
  Step:    19            Position(A)                                  Velocity(au)
C        -6.13000803    -0.85707054    -0.19073643    -0.00042321    -0.00020639    -0.00024492
C        -4.67443024    -0.67131822     0.21327927    -0.00046100    -0.00019870     0.00010054
H        -6.53244446    -0.04634825    -0.78144030     0.00060841     0.00009935     0.00015077
H        -6.71919412    -1.66633864     0.13724799    -0.00097770     0.00086919    -0.00001162
H        -4.23151264    -1.52398114     0.71255598     0.00159158     0.00061774    -0.00070838
C        -4.00686571     0.41810260    -0.07282852     0.00002071     0.00021063     0.00008379
C        -2.46156434     0.58406368     0.30608397     0.00045229    -0.00022127     0.00022304
H        -4.45253260     1.27361429    -0.58323943     0.00011692     0.00004438    -0.00003173
H        -2.01490384    -0.34892271     0.70343474     0.00087208    -0.00034687     0.00064954
C        -1.78198854     1.67897059    -0.07871872    -0.00007014    -0.00008966    -0.00003898
H        -2.30827674     2.54042960    -0.56845559    -0.00024421    -0.00041694     0.00030544
N        -0.48651166     1.80481602     0.21642158     0.00026161     0.00034308    -0.00011804
H         0.02224048     2.63198605    -0.02577747    -0.00019490    -0.00112032    -0.00019557
H         0.08274387     0.96386292     0.30188191     0.00032822     0.00150813     0.00001056
    14
  Step:    20            Position(A)                                  Velocity(au)
C        -6.13425061    -0.85914031    -0.19336586    -0.00035062    -0.00017186    -0.00023500
C        -4.67996920    -0.67387624     0.21435939    -0.00054773    -0.00026378     0.00009519
H        -6.52635489    -0.04530843    -0.78002970     0.00049755     0.00010053     0.00009796
H        -6.73066990    -1.65802529     0.13754085    -0.00112755     0.00063983     0.00006929
H        -4.21374986    -1.51732180     0.70508079     0.00164391     0.00058936    -0.00065392
C        -4.00622731     0.42074532    -0.07191290     0.00009297     0.00026722     0.00008493
C        -2.45704397     0.58131625     0.30846850     0.00037416    -0.00028137     0.00021313
H        -4.45127447     1.27402676    -0.58358519     0.00011360     0.00003687    -0.00003170
H        -2.00530390    -0.35173911     0.71056707     0.00087448    -0.00015877     0.00064849
C        -1.78276912     1.67822098    -0.07920779    -0.00006964    -0.00004817    -0.00004930
H        -2.31027640     2.53513603    -0.56441294    -0.00012703    -0.00054028     0.00042612
N        -0.48353258     1.80854747     0.21511018     0.00027658     0.00033707    -0.00012100