     6
  Step:     0            Position(A)                                  Velocity(au)
C        -0.03883492     0.02663635     0.02278660     0.00004456     0.00003563    -0.00043498
N        -0.03138083    -0.06024789     1.29672142    -0.00015438     0.00010368     0.00031261
H         0.90531808    -0.05943713    -0.53420370    -0.00046147    -0.00005464     0.00058477
H         0.79122441    -0.14585158     1.85913434     0.00082372    -0.00091969     0.00069174
H        -0.99040243     0.00761013     1.80151633     0.00138590    -0.00051780    -0.00043155
H        -1.02024013     0.04772619    -0.52562927    -0.00013375    -0.00037324    -0.00000586
     6
  Step:     1            Position(A)                                  Velocity(au)
C        -0.03860601     0.02684776     0.02025390     0.00003881     0.00004145    -0.00048777
N        -0.03228697    -0.05968833     1.29857503    -0.00017482     0.00010083     0.00036293
H         0.90290652    -0.05975025    -0.53124643    -0.00041303    -0.00006015     0.00049100
H         0.79604689    -0.15091464     1.86323546     0.00092466    -0.00092965     0.00079621
H        -0.98230973     0.00475783     1.79902325     0.00155632    -0.00052332    -0.00047103
H        -1.02087910     0.04565943    -0.52577327    -0.00010098    -0.00038198    -0.00004727
     6
  Step:     2            Position(A)                                  Velocity(au)
C        -0.03841003     0.02709005     0.01744702     0.00003246     0.00004672    -0.00053302
N        -0.03329462    -0.05914408     1.30069436    -0.00019051     0.00009771     0.00040795
H         0.90079665    -0.06009556    -0.52882869    -0.00035037    -0.00006613     0.00038661
H         0.80134663    -0.15602837     1.86785047     0.00099364    -0.00093447     0.00087570
H        -0.97336547     0.00188136     1.79635999     0.00168807    -0.00052460    -0.00049040
H        -1.02134558     0.04354471    -0.52614669    -0.00007070    -0.00038933    -0.00008945
     6
  Step:     3            Position(A)                                  Velocity(au)
C        -0.03824999     0.02736019     0.01440826     0.00002565     0.00005135    -0.00056955
N        -0.03437631    -0.05861679     1.30304902    -0.00020068     0.00009419     0.00044643
H         0.89906398    -0.06047550    -0.52700645    -0.00027484    -0.00007239     0.00027309
H         0.80694425    -0.16116310     1.87283940     0.00102830    -0.00093269     0.00092814
H        -0.96379655    -0.00099551     1.79364500     0.00177321    -0.00052094    -0.00048620
H        -1.02165453     0.04138964    -0.52675424    -0.00004350    -0.00039484    -0.00013209
     6
  Step:     4            Position(A)                                  Velocity(au)
C        -0.03812807     0.02765457     0.01118603     0.00001856     0.00005524    -0.00059648
N        -0.03550071    -0.05810865     1.30560197    -0.00020479     0.00009023     0.00047730
H         0.89777532    -0.06089135    -0.52582659    -0.00018870    -0.00007869     0.00015274
H         0.81265072    -0.16628139     1.87805340     0.00102807    -0.00092327     0.00095276
H        -0.95387263    -0.00384532     1.79101521     0.00180512    -0.00051191    -0.00045571
H        -1.02182378     0.03920427    -0.52759876    -0.00001986    -0.00039817    -0.00017473
     6
  Step:     5            Position(A)                                  Velocity(au)
C        -0.03804536     0.02796906     0.00783305     0.00001143     0.00005831    -0.00061341
N        -0.03663371    -0.05762219     1.30831038    -0.00020255     0.00008581     0.00049976
H         0.89698393    -0.06134294    -0.52532274    -0.00009497    -0.00008477     0.00002845
H         0.81827689    -0.17134059     1.88334189     0.00099426    -0.00090581     0.00095030
H        -0.94389828    -0.00663848     1.78862163     0.00177947    -0.00049745    -0.00039736
H        -1.02187349     0.03700053    -0.52868038    -0.00000013    -0.00039914    -0.00021683
     6
  Step:     6            Position(A)                                  Velocity(au)
C        -0.03800173     0.02829920     0.00440403     0.00000447     0.00006054    -0.00062044
N        -0.03774017    -0.05715996     1.31112744    -0.00019406     0.00008098     0.00051350
H         0.89672536    -0.06182857    -0.52551205     0.00000278    -0.00009036    -0.00009655
H         0.82364348    -0.17629624     1.88856013     0.00092998    -0.00088056     0.00092290
H        -0.93419832    -0.00934531     1.78662190     0.00169521    -0.00047791    -0.00031113
H        -1.02182523     0.03479124    -0.52999604     0.00001556    -0.00039780    -0.00025782
     6
  Step:     7            Position(A)                                  Velocity(au)
C        -0.03799573     0.02864039     0.00095260    -0.00000206     0.00006195    -0.00061828
N        -0.03878582    -0.05672420     1.31400491    -0.00017977     0.00007584     0.00051873
H         0.89701471    -0.06234499    -0.52639342     0.00010076    -0.00009523    -0.00021904
H         0.82859003    -0.18110576     1.89357658     0.00083976    -0.00084848     0.00087395
H        -0.92509897    -0.01193837     1.78517133     0.00155495    -0.00045404    -0.00019863
H        -1.02170097     0.03258901    -0.53153953     0.00002729    -0.00039442    -0.00029728
     6
  Step:     8            Position(A)                                  Velocity(au)
C        -0.03802468     0.02898819    -0.00247177    -0.00000800     0.00006263    -0.00060816
N        -0.03973933    -0.05631655     1.31689616    -0.00016044     0.00007054     0.00051621
H         0.89784591    -0.06288764    -0.52794799     0.00019544    -0.00009922    -0.00033624
H         0.83298233    -0.18573202     1.89827913     0.00072907    -0.00081104     0.00080764
H        -0.91690598    -0.01439466     1.78441296     0.00136494    -0.00042693    -0.00006304
H        -1.02152175     0.03040496    -0.53330206     0.00003539    -0.00038947    -0.00033496
     6
  Step:     9            Position(A)                                  Velocity(au)
C        -0.03808486     0.02933855    -0.00582653    -0.00001318     0.00006268    -0.00059163
N        -0.04057422    -0.05593784     1.31975910    -0.00013709     0.00006525     0.00050711
H         0.89919329    -0.06345097    -0.53014154     0.00028383    -0.00010220    -0.00044606
H         0.83671697    -0.19014638     1.90257938     0.00060360    -0.00077005     0.00072856
H        -0.90988403    -0.01669740     1.78446861     0.00113428    -0.00039785     0.00009129
H        -1.02130652     0.02824762    -0.53527332     0.00004036    -0.00038357    -0.00037084
     6
  Step:    10            Position(A)                                  Velocity(au)
C        -0.03817181     0.02968807    -0.00907786    -0.00001752     0.00006223    -0.00057040
N        -0.04127003    -0.05558798     1.32255848    -0.00011085     0.00006012     0.00049286
H         0.90101512    -0.06402880    -0.53292862     0.00036371    -0.00010413    -0.00054722
H         0.83972211    -0.19433035     1.90641416     0.00046870    -0.00072741     0.00064110
H        -0.90424071    -0.01883699     1.78543226     0.00087394    -0.00036807     0.00025928
H        -1.02107112     0.02612210    -0.53744281     0.00004286    -0.00037740    -0.00040513
     6
  Step:    11            Position(A)                                  Velocity(au)
C        -0.03828070     0.03003406    -0.01220131    -0.00002101     0.00006142    -0.00054606
N        -0.04181302    -0.05526597     1.32526723    -0.00008285     0.00005528     0.00047491
H         0.90325811    -0.06461475    -0.53625727     0.00043364    -0.00010500    -0.00063923
H         0.84195510    -0.19827593     1.90974428     0.00032886    -0.00068482     0.00054910
H        -0.90011687    -0.02081096     1.78736633     0.00059553    -0.00033874     0.00043561
H        -1.02082756     0.02402981    -0.53980106     0.00004361    -0.00037161    -0.00043819
     6
  Step:    12            Position(A)                                  Velocity(au)
C        -0.03840661     0.03037458    -0.01518113    -0.00002364     0.00006036    -0.00051992
N        -0.04219601    -0.05497007     1.32786657    -0.00005415     0.00005085     0.00045460
H         0.90586191    -0.06520241    -0.54007332     0.00049281    -0.00010481    -0.00072213
H         0.84339778    -0.20198455     1.91255140     0.00018765    -0.00064363     0.00045564
H        -0.89758450    -0.02262310     1.79030100     0.00031036    -0.00031074     0.00061497
H        -1.02058374     0.02196867    -0.54234045     0.00004334    -0.00036670    -0.00047041
     6
  Step:    13            Position(A)                                  Velocity(au)
C        -0.03854476     0.03070829    -0.01800879    -0.00002546     0.00005913    -0.00049295
N        -0.04241782    -0.05469800     1.33034512    -0.00002568     0.00004687     0.00043299
H         0.90876275    -0.06578546    -0.54432336     0.00054081    -0.00010354    -0.00079617
H         0.84405118    -0.20546516     1.91483376     0.00004776    -0.00060477     0.00036306
H        -0.89665019    -0.02428193     1.79423547     0.00002894    -0.00028466     0.00079225
H        -1.02034344     0.01993380    -0.54505549     0.00004278    -0.00036303    -0.00050210
     6
  Step:    14            Position(A)                                  Velocity(au)
C        -0.03869070     0.03103432    -0.02068090    -0.00002622     0.00005837    -0.00049769
N        -0.04248248    -0.05444713     1.33269737     0.00000070     0.00004224     0.00043430
H         0.91189565    -0.06635760    -0.54895611     0.00056052    -0.00001426    -0.00083201
H         0.84393061    -0.20873188     1.91660207    -0.00010352    -0.00065763     0.00026251
H        -0.89726165    -0.02579905     1.79913998    -0.00022010    -0.00016868     0.00096896
H        -1.02010649     0.01791844    -0.54794234     0.00006587    -0.00044199    -0.00050416
     6
  Step:    15            Position(A)                                  Velocity(au)
C        -0.03883690     0.03135864    -0.02355382    -0.00002636     0.00005900    -0.00055005
N        -0.04241004    -0.05422737     1.33518389     0.00002464     0.00003635     0.00047347
H         0.91500787    -0.06594438    -0.55359329     0.00054311     0.00012220    -0.00082181
H         0.84289783    -0.21279221     1.91775860    -0.00027011    -0.00075742     0.00014520
H        -0.89910248    -0.02616134     1.80503124    -0.00042229    -0.00001202     0.00112121
H        -1.01960951     0.01500926    -0.55067270     0.00012098    -0.00056094    -0.00046962
     6
  Step:    16            Position(A)                                  Velocity(au)
C        -0.03898407     0.03169093    -0.02680267    -0.00002618     0.00006037    -0.00061724
N        -0.04220822    -0.05404257     1.33796679     0.00004659     0.00003035     0.00052680
H         0.91794018    -0.06499763    -0.55810236     0.00050573     0.00021102    -0.00079558
H         0.84092441    -0.21716155     1.91821806    -0.00043403    -0.00080661     0.00002275
H        -0.90196148    -0.02593278     1.81161841    -0.00059040     0.00008434     0.00123537
H        -1.01876004     0.01167554    -0.55316893     0.00018324    -0.00062993    -0.00042816
     6
  Step:    17            Position(A)                                  Velocity(au)
C        -0.03912813     0.03203017    -0.03041986    -0.00002522     0.00006140    -0.00068089
N        -0.04189176    -0.05388973     1.34104396     0.00006556     0.00002492     0.00057790
H         0.92063354    -0.06359699    -0.56244320     0.00045864     0.00028823    -0.00076231
H         0.83806978    -0.22176482     1.91801162    -0.00058458    -0.00084481    -0.00009224
H        -0.90566996    -0.02522310     1.81877325    -0.00072614     0.00016454     0.00132525
H        -1.01757120     0.00800207    -0.55543544     0.00024160    -0.00068598    -0.00038789
     6
  Step:    18            Position(A)                                  Velocity(au)
C        -0.03926466     0.03237410    -0.03437817    -0.00002345     0.00006194    -0.00073815
N        -0.04147882    -0.05376531     1.34439643     0.00008095     0.00002014     0.00062431
H         0.92304291    -0.06179085    -0.56658367     0.00040416     0.00035743    -0.00072324
H         0.83442045    -0.22656074     1.91719184    -0.00071681    -0.00087620    -0.00019603
H        -0.91004041    -0.02410215     1.82636287    -0.00082626     0.00023333     0.00138948
H        -1.01607208     0.00404352    -0.55748451     0.00029349    -0.00073258    -0.00035003
     6
  Step:    19            Position(A)                                  Velocity(au)
C        -0.03938921     0.03271986    -0.03863910    -0.00002088     0.00006189    -0.00078724
N        -0.04099044    -0.05366543     1.34799561     0.00009229     0.00001609     0.00066451
H         0.92513379    -0.05961704    -0.57049634     0.00034436     0.00041988    -0.00067939
H         0.83008815    -0.23152117     1.91582882    -0.00082619    -0.00090274    -0.00028548
H        -0.91487022    -0.02262496     1.83424492    -0.00088879     0.00029267     0.00142685
H        -1.01430322    -0.00015515    -0.55933297     0.00033695    -0.00077097    -0.00031546
     6
  Step:    20            Position(A)                                  Velocity(au)
C        -0.03949748     0.03306418    -0.04315585    -0.00001757     0.00006123    -0.00082703
N        -0.04044978    -0.05358587     1.35180567     0.00009932     0.00001284     0.00069748
H         0.92688245    -0.05710922    -0.57415880     0.00028137     0.00047610    -0.00063197
H         0.82520852    -0.23662620     1.91400877    -0.00090883    -0.00092590    -0.00035786
H        -0.91995031    -0.02083886     1.84227203    -0.00091365     0.00034362     0.00143730
H        -1.01231516    -0.00455272    -0.56100181     0.00037040    -0.00080181    -0.00028497
     6
  Step:    21            Position(A)                                  Velocity(au)
C        -0.03958548     0.03340370    -0.04787619    -0.00001361     0.00005996    -0.00085697
N        -0.03988118    -0.05352204     1.35578575     0.00010193     0.00001043     0.00072265
H         0.92827643    -0.05429950    -0.57755482     0.00021737     0.00052636    -0.00058235
H         0.81993740    -0.24186254     1.91183191    -0.00096188    -0.00094701    -0.00041108
H        -0.92507475    -0.01878703     1.85029814    -0.00090258     0.00038687     0.00142210
H        -1.01016621    -0.00911059    -0.56251579     0.00039278    -0.00082575    -0.00025926
     6
  Step:    22            Position(A)                                  Velocity(au)
C        -0.03964975     0.03373517    -0.05274556    -0.00000909     0.00005816    -0.00087713
N        -0.03930913    -0.05346910     1.35989237     0.00010026     0.00000892     0.00073998
H         0.92931491    -0.05121909    -0.58067549     0.00015447     0.00057098    -0.00053206
H         0.81444478    -0.24722349     1.90940869    -0.00098385    -0.00096747    -0.00044393
H        -0.93005048    -0.01650962     1.85818581    -0.00085904     0.00042307     0.00138384
H        -1.00791978    -0.01379308    -0.56390299     0.00040359    -0.00084359    -0.00023889
     6
  Step:    23            Position(A)                                  Velocity(au)
C        -0.03968742     0.03405571    -0.05771018    -0.00000415     0.00005590    -0.00088813
N        -0.03875716    -0.05342199     1.36408201     0.00009459     0.00000833     0.00074983
H         0.93000829    -0.04789798    -0.58351997     0.00009458     0.00061039    -0.00048260
H         0.80890694    -0.25270936     1.90685481    -0.00097474    -0.00098875    -0.00045616
H        -0.93470592    -0.01404378     1.86581305    -0.00078772     0.00045292     0.00132606
H        -1.00564134    -0.01856847    -0.56519407     0.00040288    -0.00085633    -0.00022422
     6
  Step:    24            Position(A)                                  Velocity(au)
C        -0.03969635     0.03436292    -0.06271990     0.00000109     0.00005329    -0.00089097
N        -0.03824682    -0.05337560     1.36831351     0.00008538     0.00000863     0.00075295
H         0.93037716    -0.04436400    -0.58609545     0.00003933     0.00064519    -0.00043539
H         0.80349784    -0.25832784     1.90428565    -0.00093590    -0.00101224    -0.00044848
H        -0.93889711    -0.01142297     1.87307842    -0.00069403     0.00047724     0.00125291
H        -1.00339516    -0.02341023    -0.56642118     0.00039120    -0.00086512    -0.00021543
     6
  Step:    25            Position(A)                                  Velocity(au)
C        -0.03967520     0.03465497    -0.06773037     0.00000649     0.00005042    -0.00088685
N        -0.03779694    -0.05332489     1.37254995     0.00007316     0.00000982     0.00075023
H         0.93045066    -0.04064185    -0.58841650    -0.00001001     0.00067611    -0.00039157
H         0.79838145    -0.26409347     1.90181100    -0.00086988    -0.00103917    -0.00042241
H        -0.94251122    -0.00867653     1.87990380    -0.00058354     0.00049689     0.00116860
H        -1.00124180    -0.02829798    -0.56761684     0.00036943    -0.00087116    -0.00021244
     6
  Step:    26            Position(A)                                  Velocity(au)
C        -0.03962332     0.03493058    -0.07270398     0.00001192     0.00004740    -0.00087699
N        -0.03742315    -0.05326504     1.37675962     0.00005853     0.00001183     0.00074267
H         0.93026452    -0.03675242    -0.59050375    -0.00005251     0.00070384    -0.00035205
H         0.79370481    -0.27002678     1.89953016    -0.00078018    -0.00107037    -0.00038015
H        -0.94546658    -0.00582896     1.88623451    -0.00046152     0.00051273     0.00107705
H        -0.99923608    -0.03321773    -0.56881278     0.00033877    -0.00087551    -0.00021498
     6
  Step:    27            Position(A)                                  Velocity(au)
C        -0.03954087     0.03518898    -0.07760998     0.00001727     0.00004430    -0.00086250
N        -0.03713756    -0.05319158     1.38091638     0.00004210     0.00001459     0.00073116
H         0.92985912    -0.03271280    -0.59238246    -0.00008756     0.00072905    -0.00031742
H         0.78959244    -0.27615167     1.89752841    -0.00067102    -0.00110623    -0.00032441
H        -0.94771045    -0.00290039     1.89203720    -0.00033273     0.00052552     0.00098166
H        -0.99742541    -0.03816097    -0.57003868     0.00030054    -0.00087904    -0.00022260
     6
  Step:    28            Position(A)                                  Velocity(au)
C        -0.03942871     0.03542982    -0.08242380     0.00002240     0.00004117    -0.00084432
N        -0.03694874    -0.05310058     1.38499924     0.00002448     0.00001800     0.00071649
H         0.92927783    -0.02853652    -0.59408086    -0.00011477     0.00075229    -0.00028804
H         0.78614288    -0.28249323     1.89587434    -0.00054712    -0.00114664    -0.00025822
H        -0.94921618     0.00009330     1.89729716    -0.00020137     0.00053594     0.00088532
H        -0.99584926    -0.04312388    -0.57132134     0.00025612    -0.00088240    -0.00023470
     6
  Step:    29            Position(A)                                  Velocity(au)
C        -0.03928836     0.03565303    -0.08712594     0.00002721     0.00003806    -0.00082317
N        -0.03686166    -0.05298868     1.38899161     0.00000629     0.00002194     0.00069932
H         0.92856563    -0.02423410    -0.59562882    -0.00013398     0.00077398    -0.00026405
H         0.78342610    -0.28907491     1.89461818    -0.00041357    -0.00119100    -0.00018487
H        -0.94998000     0.00314000     1.90201527    -0.00007114     0.00054458     0.00079041
H        -0.99453877    -0.04810607    -0.57268393     0.00020699    -0.00088601    -0.00025058
     6
  Step:    30            Position(A)                                  Velocity(au)
C        -0.03912204     0.03585874    -0.09170095     0.00003157     0.00003498    -0.00079962
N        -0.03687781    -0.05285327     1.39288061    -0.00001185     0.00002629     0.00068018
H         0.92776792    -0.01981372    -0.59705669    -0.00014518     0.00079445    -0.00024542
H         0.78148193    -0.29591592     1.89379089    -0.00027570    -0.00123832    -0.00010775
H        -0.95001792     0.00623077     1.90620513     0.00005473     0.00055191     0.00069889
H        -0.99351648    -0.05310929    -0.57414540     0.00015464    -0.00089012    -0.00026944
     6
  Step:    31            Position(A)                                  Velocity(au)
C        -0.03893256     0.03604719    -0.09613660     0.00003539     0.00003194    -0.00077414
N        -0.03699524    -0.05269248     1.39665635    -0.00002938     0.00003088     0.00065953
H         0.92692961    -0.01528179    -0.59839435    -0.00014856     0.00081392    -0.00023200
H         0.78031939    -0.30302905     1.89340394    -0.00013886    -0.00128724    -0.00003025
H        -0.94936323     0.00935928     1.90989080     0.00017339     0.00055834     0.00061241
H        -0.99279622    -0.05813649    -0.57572012     0.00010059    -0.00089479    -0.00029044
     6
  Step:    32            Position(A)                                  Velocity(au)
C        -0.03872333     0.03621862    -0.10042307     0.00003855     0.00002895    -0.00074710
N        -0.03720878    -0.05250532     1.40031136    -0.00004572     0.00003558     0.00063772
H         0.92609414    -0.01064344    -0.59967056    -0.00014443     0.00083258    -0.00022352
H         0.77991742    -0.31041903     1.89345001    -0.00000825    -0.00133625     0.00004442
H        -0.94806442     0.01252144     1.91310508     0.00028232     0.00056421     0.00053237
H        -0.99238314    -0.06319074    -0.57741774     0.00004638    -0.00090002    -0.00031274
     6
  Step:    33            Position(A)                                  Velocity(au)
C        -0.03849827     0.03637333    -0.10455262     0.00004099     0.00002601    -0.00071882
N        -0.03751031    -0.05229164     1.40384018    -0.00006040     0.00004023     0.00061508
H         0.92530261    -0.00590283    -0.60091231    -0.00013329     0.00085057    -0.00021964
H         0.78022646    -0.31808182     1.89390431     0.00011136    -0.00138375     0.00011336
H        -0.94618295     0.01571513     1.91588793     0.00037937     0.00056987     0.00045993
H        -0.99227373    -0.06827518    -0.57924308    -0.00000649    -0.00090575    -0.00033549
     6
  Step:    34            Position(A)                                  Velocity(au)
C        -0.03826170     0.03651161    -0.10851929     0.00004263     0.00002312    -0.00068961
N        -0.03788907    -0.05205218     1.40723909    -0.00007298     0.00004468     0.00059189
H         0.92459291    -0.00106331    -0.60214440    -0.00011577     0.00086800    -0.00021992
H         0.78117166    -0.32600446     1.89472685     0.00021584    -0.00142819     0.00017413
H        -0.94379152     0.01894002     1.91828539     0.00046273     0.00057558     0.00039607
H        -0.99245627    -0.07339242    -0.58119639    -0.00005661    -0.00091189    -0.00035790
     6
  Step:    35            Position(A)                                  Velocity(au)
C        -0.03801823     0.03663373    -0.11231874     0.00004343     0.00002027    -0.00065976
N        -0.03833214    -0.05178842     1.41050576    -0.00008312     0.00004881     0.00056839
H         0.92399889     0.00387216    -0.60338901    -0.00009265     0.00088501    -0.00022389
H         0.78265719    -0.33416547     1.89586531     0.00030192    -0.00146821     0.00022481
H        -0.94097194     0.02219709     1.92034829     0.00053093     0.00058165     0.00034157
H        -0.99291128    -0.07854445    -0.58327357    -0.00010269    -0.00091831    -0.00037927
     6
  Step:    36            Position(A)                                  Velocity(au)
C        -0.03777266     0.03673989    -0.11594812     0.00004339     0.00001745    -0.00062953
N        -0.03882495    -0.05150258     1.41363907    -0.00009058     0.00005250     0.00054478
H         0.92354965     0.00890181    -0.60466537    -0.00006485     0.00090180    -0.00023100
H         0.78457125    -0.34253643     1.89725815     0.00036725    -0.00150273     0.00026406
H        -0.93781329     0.02548938     1.92213146     0.00058292     0.00058841     0.00029704
H        -0.99361261    -0.08373255    -0.58546689    -0.00014363    -0.00092492    -0.00039899
     6
  Step:    37            Position(A)                                  Velocity(au)
C        -0.03752976     0.03683018    -0.11940609     0.00004251     0.00001464    -0.00059920
N        -0.03935187    -0.05119741     1.41663893    -0.00009522     0.00005566     0.00052124
H         0.92326885     0.01402471    -0.60598958    -0.00003336     0.00091853    -0.00024067
H         0.78679171    -0.35108343     1.89883808     0.00041048    -0.00153097     0.00029116
H        -0.93440935     0.02882146     1.92369235     0.00061809     0.00059613     0.00026282
H        -0.99452832    -0.08895737    -0.58776545    -0.00017851    -0.00093165    -0.00041658
     6
  Step:    38            Position(A)                                  Velocity(au)
C        -0.03729419     0.03690469    -0.12269271     0.00004083     0.00001184    -0.00056901
N        -0.03989675    -0.05087607     1.41950616    -0.00009701     0.00005824     0.00049792
H         0.92317420     0.01924081    -0.60737437     0.00000074     0.00093540    -0.00025232
H         0.78919160    -0.35976899     1.90053548     0.00043123    -0.00155249     0.00030598
H        -0.93085609     0.03219939     1.92508973     0.00063628     0.00060508     0.00023904
H        -0.99562195    -0.09421919    -0.59015587    -0.00020664    -0.00093845    -0.00043165
     6
  Step:    39            Position(A)                                  Velocity(au)
C        -0.03707031     0.03696342    -0.12580934     0.00003841     0.00000904    -0.00053919
N        -0.04044357    -0.05054198     1.42224221    -0.00009601     0.00006021     0.00047494
H         0.92327714     0.02455107    -0.60882905     0.00003632     0.00095260    -0.00026535
H         0.79164442    -0.36855403     1.90228137     0.00042995    -0.00156719     0.00030885
H        -0.92724908     0.03563059     1.92638236     0.00063780     0.00061550     0.00022559
H        -0.99685371    -0.09951804    -0.59262298    -0.00022755    -0.00094532    -0.00044397
     6
  Step:    40            Position(A)                                  Velocity(au)
C        -0.03686209     0.03700633    -0.12875854     0.00003533     0.00000622    -0.00050993
N        -0.04097685    -0.05019867     1.42484915    -0.00009236     0.00006157     0.00045237
H         0.92358274     0.02995742    -0.61035955     0.00007226     0.00097031    -0.00027917
H         0.79402847    -0.37739972     1.90400997     0.00040781    -0.00157528     0.00030050
H        -0.92368090     0.03912373     1.92762760     0.00062341     0.00062760     0.00022210
H        -0.99818183    -0.10485394    -0.59515047    -0.00024098    -0.00095228    -0.00045338
     6
  Step:    41            Position(A)                                  Velocity(au)
C        -0.03667302     0.03703335    -0.13154386     0.00003168     0.00000338    -0.00048140
N        -0.04148220    -0.04984963     1.42732944    -0.00008627     0.00006232     0.00043029
H         0.92408980     0.03546279    -0.61196849     0.00010750     0.00098870    -0.00029321
H         0.79623047    -0.38626910     1.90566067     0.00036651    -0.00157720     0.00028197
H        -0.92023846     0.04268840     1.92887997     0.00059431     0.00064153     0.00022793
H        -0.99956374    -0.11022707    -0.59772156    -0.00024690    -0.00095937    -0.00045985
     6
  Step:    42            Position(A)                                  Velocity(au)
C        -0.03650602     0.03704437    -0.13416973     0.00002756     0.00000052    -0.00045371
N        -0.04194660    -0.04949816     1.42968590    -0.00007802     0.00006251     0.00040874
H         0.92479107     0.04107100    -0.61365536     0.00014098     0.00100793    -0.00030693
H         0.79814825    -0.39512837     1.90717947     0.00030816    -0.00157358     0.00025450
H        -0.91700056     0.04633492     1.93018971     0.00055210     0.00065738     0.00024224
H        -1.00095714    -0.11563787    -0.60031951    -0.00024542    -0.00096665    -0.00046343
     6
  Step:    43            Position(A)                                  Velocity(au)
C        -0.03636340     0.03703924    -0.13664117     0.00002308    -0.00000236    -0.00042695
N        -0.04235875    -0.04914733     1.43192156    -0.00006792     0.00006219     0.00038774
H         0.92567371     0.04678663    -0.61541679     0.00017178     0.00102810    -0.00031985
H         0.79969256    -0.40394791     1.90851986     0.00023510    -0.00156520     0.00021943
H        -0.91403569     0.05007391     1.93160151     0.00049877     0.00067517     0.00026394
H        -1.00232096    -0.12108715    -0.60292805    -0.00023681    -0.00097417    -0.00046420
     6
  Step:    44            Position(A)                                  Velocity(au)
C        -0.03624688     0.03701782    -0.13896360     0.00001834    -0.00000528    -0.00040116
N        -0.04270923    -0.04879984     1.43403957    -0.00005631     0.00006143     0.00036730
H         0.92671983     0.05261479    -0.61724675     0.00019903     0.00104929    -0.00033153
H         0.80078796    -0.41270283     1.90964324     0.00014977    -0.00155290     0.00017815
H        -0.91140020     0.05391590     1.93315331     0.00043658     0.00069485     0.00029176
H        -1.00361609    -0.12657607    -0.60553169    -0.00022145    -0.00098198    -0.00046233
     6