 Fermi distribution function

Calculation with static geometry


********************************************************************************
 iSCC Total electronic   Diff electronic      SCC error    
   12   -0.53608402E+01   -0.18538238E-09    0.30631289E-06
********************************************************************************

 Total charge:     1.00000000

 Atomic gross charges (e)
 Atom           Charge
    1       0.32719194
    2      -0.21945059
    3       0.15922265
    4       0.30118710
    5       0.27289954
    6       0.15894937

Nr. of electrons (up):     12.00000000
Atom populations (up)
 Atom       Population
    1       3.67280806
    2       5.21945059
    3       0.84077735
    4       0.69881290
    5       0.72710046
    6       0.84105063

l-shell populations (up)
 Atom Sh.   l       Population
    1   1   0       1.32911321
    1   2   1       2.34369485
    2   1   0       1.43964606
    2   2   1       3.77980454
    3   1   0       0.84077735
    4   1   0       0.69881290
    5   1   0       0.72710046
    6   1   0       0.84105063

Orbital populations (up)
 Atom Sh.   l   m       Population  Label
    1   1   0   0       1.32911321  s
    1   2   1  -1       0.50364035  p_y
    1   2   1   0       0.88748782  p_z
    1   2   1   1       0.95256668  p_x
    2   1   0   0       1.43964606  s
    2   2   1  -1       1.33080405  p_y
    2   2   1   0       1.08839806  p_z
    2   2   1   1       1.36060243  p_x
    3   1   0   0       0.84077735  s
    4   1   0   0       0.69881290  s
    5   1   0   0       0.72710046  s
    6   1   0   0       0.84105063  s

Fermi level:                        -0.4923680794 H          -13.3980 eV
Band energy:                        -8.7905712242 H         -239.2036 eV
TS:                                  0.0000000000 H            0.0000 eV
Band free energy (E-TS):            -8.7905712242 H         -239.2036 eV
Extrapolated E(0K):                 -8.7905712242 H         -239.2036 eV
Input / Output electrons (q):     12.0000000000     12.0000000000

Energy H0:                          -5.4944688454 H         -149.5121 eV
Energy SCC:                          0.1336286499 H            3.6362 eV
Total Electronic energy:            -5.3608401955 H         -145.8759 eV
Repulsive energy:                    0.1716200823 H            4.6700 eV
Total energy:                       -5.1892201133 H         -141.2059 eV
Extrapolated to 0:                  -5.1892201133 H         -141.2059 eV
Total Mermin free energy:           -5.1892201133 H         -141.2059 eV
Force related energy:               -5.1892201133 H         -141.2059 eV

SCC converged

Excitation Energy:                   0.0948995423 H            2.5823 eV

Total Forces
    1     -0.003373707559     -0.001273223824      0.058864960021
    2      0.019410284270     -0.013932306902     -0.067802802633
    3     -0.007644969242      0.015100516681      0.005769493702
    4     -0.018314254539     -0.003194158744     -0.002514834932
    5      0.001627069560      0.017111384655      0.004104271491
    6      0.008295577509     -0.013812211866      0.001578912352

Maximal derivative component:        0.678028E-01 au


