 Fermi distribution function

Calculation with static geometry


********************************************************************************
 iSCC Total electronic   Diff electronic      SCC error    
   14   -0.52394932E+01   -0.15178969E-10    0.21110758E-06
********************************************************************************

 Total charge:     1.00000000

 Atomic gross charges (e)
 Atom           Charge
    1       0.30923884
    2      -0.19058820
    3       0.18729073
    4       0.25517186
    5       0.25450155
    6       0.18438523

Nr. of electrons (up):     12.00000000
Atom populations (up)
 Atom       Population
    1       3.69076116
    2       5.19058820
    3       0.81270927
    4       0.74482814
    5       0.74549845
    6       0.81561477

l-shell populations (up)
 Atom Sh.   l       Population
    1   1   0       1.43220106
    1   2   1       2.25856010
    2   1   0       1.55094565
    2   2   1       3.63964255
    3   1   0       0.81270927
    4   1   0       0.74482814
    5   1   0       0.74549845
    6   1   0       0.81561477

Orbital populations (up)
 Atom Sh.   l   m       Population  Label
    1   1   0   0       1.43220106  s
    1   2   1  -1       0.37430118  p_y
    1   2   1   0       0.86799459  p_z
    1   2   1   1       1.01626433  p_x
    2   1   0   0       1.55094565  s
    2   2   1  -1       1.40920813  p_y
    2   2   1   0       1.06290097  p_z
    2   2   1   1       1.16753345  p_x
    3   1   0   0       0.81270927  s
    4   1   0   0       0.74482814  s
    5   1   0   0       0.74549845  s
    6   1   0   0       0.81561477  s

Fermi level:                        -0.5238310287 H          -14.2542 eV
Band energy:                        -8.6151110002 H         -234.4291 eV
TS:                                  0.0000000000 H            0.0000 eV
Band free energy (E-TS):            -8.6151110002 H         -234.4291 eV
Extrapolated E(0K):                 -8.6151110002 H         -234.4291 eV
Input / Output electrons (q):     12.0000000000     12.0000000000

Energy H0:                          -5.3768210371 H         -146.3107 eV
Energy SCC:                          0.1373278134 H            3.7369 eV
Total Electronic energy:            -5.2394932237 H         -142.5739 eV
Repulsive energy:                    0.1275174442 H            3.4699 eV
Total energy:                       -5.1119757796 H         -139.1039 eV
Extrapolated to 0:                  -5.1119757796 H         -139.1039 eV
Total Mermin free energy:           -5.1119757796 H         -139.1039 eV
Force related energy:               -5.1119757796 H         -139.1039 eV

SCC converged

Excitation Energy:                   0.0926653971 H            2.5216 eV

Total Forces
    1      0.004753251955      0.002681143455      0.006951498517
    2     -0.016259823419      0.019218157245     -0.011584262885
    3     -0.003137152998     -0.004288747750      0.001205334537
    4      0.010785276031     -0.001887732534      0.005655197984
    5      0.005954683147     -0.014044887180     -0.000482077676
    6     -0.002096234716     -0.001677933236     -0.001745690478

Maximal derivative component:        0.192182E-01 au


