|===============================================================================
|
|  DFTB+ release 20.1
|
|  Copyright (C) 2006 - 2020  DFTB+ developers group
|
|===============================================================================
|
|  When publishing results obtained with DFTB+, please cite the following
|  reference:
|
|  * DFTB+, a software package for efficient approximate density functional
|    theory based atomistic simulations, J. Chem. Phys. 152, 124101 (2020).
|    [doi: 10.1063/1.5143190]
|
|  You should also cite additional publications crediting the parametrization
|  data you use. Please consult the documentation of the SK-files for the
|  references.
|
|===============================================================================

Reading input file 'dftb_in.hsd'
Parser version: 8

--------------------------------------------------------------------------------
Reading SK-files:
Done.


Processed input in HSD format written to 'dftb_pin.hsd'

Starting initialization...
--------------------------------------------------------------------------------
OpenMP threads:              1
Chosen random seed:          511532951
Mode:                        Static calculation
Self consistent charges:     Yes
SCC-tolerance:                 0.100000E-05
Max. scc iterations:                   1000
Shell resolved Hubbard:      No
Spin polarisation:           No
Nr. of up electrons:             6.000000
Nr. of down electrons:           6.000000
Periodic boundaries:         No
Electronic solver:           Relatively robust
Maximal SCC-cycles:                    1000
Initial charges:             Set automatically (system chrg:   0.100E+01)
Included shells:             C:  s, p
                             N:  s, p
                             H:  s
Spin coupling constants:     C   1(s)-1(s):  -0.455900E-01
                             C   1(s)-2(p):  -0.293000E-01
                             C   2(p)-1(s):  -0.293000E-01
                             C   2(p)-2(p):  -0.275500E-01
                             N   1(s)-1(s):  -0.468700E-01
                             N   1(s)-2(p):  -0.317000E-01
                             N   2(p)-1(s):  -0.317000E-01
                             N   2(p)-2(p):  -0.307200E-01
                             H   1(s)-1(s):  -0.792500E-01
Range separated hybrid:      Yes
  Screening parameter omega:   0.300000E+00
  Range separated algorithm:   MatrixBased
Extra options:
                             Mulliken analysis
                             Force calculation
Force type                   original
                             Eigenvector printing


REKS Calcuation:             Yes
SSR(2,2) Calcuation:         Yes
Energy Functional:           (PPS+OSS)/2
Number of Core Orbitals:                  5
Number of Active Orbitals:                2
Number of Basis:                         12
Number of States:                         2
State-Averaging Weight:          0.500000
                                 0.500000
State of Interest:                        2
Initial Guess:               Diagonalize H0 matrix
Newton-Raphson for FON opt:  Yes
NR max. Iterations:                      50
Level Shifting:              Yes
Shift Value:                     0.300000
W Scale Factor:              C  =    3.000000
                             N  =    3.000000
                             H  =    3.000000
Transition Dipole:           No
Gradient of Microstate:      No
CP-REKS Solver:              Preconditioned Conjugate-Gradient
CG max. Iterations:                     100
CG Tolerance:                  0.100000E-07
Memory for A and Hxc:        Direct Updating Without Saving
Non-Adiabatic Coupling:      Yes

--------------------------------------------------------------------------------

***  Geometry step: 0

  iSCC       reks energy        Diff energy         x_a       SCC error   
    1       -6.2329441622       0.0000000000     0.997032    1.11270515
    2       -6.2524496559      -0.0195054937     0.999616    0.10832842
    3       -6.2597214867      -0.0072718308     0.999946    0.07143183
    4       -6.2622833460      -0.0025618592     0.999989    0.04094623
    5       -6.2629463760      -0.0006630300     0.999996    0.02152285
    6       -6.2630862400      -0.0001398640     0.999997    0.00942734
    7       -6.2631164553      -0.0000302154     0.999998    0.00371914
    8       -6.2631247659      -0.0000083106     0.999998    0.00143906
    9       -6.2631280166      -0.0000032507     0.999998    0.00056399
   10       -6.2631297092      -0.0000016926     0.999998    0.00040652
   11       -6.2631307439      -0.0000010347     0.999998    0.00031573
   12       -6.2631314335      -0.0000006896     0.999998    0.00024703
   13       -6.2631319211      -0.0000004876     0.999998    0.00021078
   14       -6.2631322844      -0.0000003633     0.999998    0.00018776
   15       -6.2631325694      -0.0000002850     0.999998    0.00017073
   16       -6.2631328041      -0.0000002347     0.999998    0.00015798
   17       -6.2631330061      -0.0000002021     0.999998    0.00014831
   18       -6.2631331867      -0.0000001805     0.999998    0.00014088
   19       -6.2631333527      -0.0000001660     0.999998    0.00013509
   20       -6.2631335088      -0.0000001561     0.999998    0.00013051
   21       -6.2631336578      -0.0000001490     0.999998    0.00012683
   22       -6.2631338015      -0.0000001437     0.999998    0.00012382
   23       -6.2631339412      -0.0000001397     0.999998    0.00012132
   24       -6.2631340776      -0.0000001364     0.999998    0.00011921
   25       -6.2631342113      -0.0000001337     0.999998    0.00011739
   26       -6.2631343425      -0.0000001312     0.999998    0.00011580
   27       -6.2631344715      -0.0000001290     0.999998    0.00011439
   28       -6.2631345985      -0.0000001270     0.999998    0.00011311
   29       -6.2631347235      -0.0000001250     0.999998    0.00011194
   30       -6.2631348467      -0.0000001232     0.999998    0.00011086
   31       -6.2631349681      -0.0000001214     0.999998    0.00010984
   32       -6.2631350878      -0.0000001197     0.999998    0.00010887
   33       -6.2631352057      -0.0000001180     0.999998    0.00010795
   34       -6.2631353220      -0.0000001163     0.999998    0.00010706
   35       -6.2631354367      -0.0000001147     0.999998    0.00010621
   36       -6.2631355497      -0.0000001131     0.999998    0.00010538
   37       -6.2631356612      -0.0000001115     0.999998    0.00010456
   38       -6.2631357712      -0.0000001099     0.999998    0.00010377
   39       -6.2631358796      -0.0000001084     0.999998    0.00010299
   40       -6.2631359866      -0.0000001069     0.999998    0.00010223
   41       -6.2631360920      -0.0000001055     0.999998    0.00010148
   42       -6.2631361961      -0.0000001040     0.999998    0.00010073
   43       -6.2631362987      -0.0000001026     0.999998    0.00010000
   44       -6.2631363999      -0.0000001012     0.999998    0.00009928
   45       -6.2631364998      -0.0000000999     0.999998    0.00009857
   46       -6.2631365983      -0.0000000985     0.999998    0.00009787
   47       -6.2631366955      -0.0000000972     0.999998    0.00009717
   48       -6.2631367913      -0.0000000959     0.999998    0.00009648
   49       -6.2631368859      -0.0000000946     0.999998    0.00009580
   50       -6.2631369793      -0.0000000933     0.999998    0.00009513
   51       -6.2631370714      -0.0000000921     0.999998    0.00009446
   52       -6.2631371623      -0.0000000909     0.999998    0.00009380
   53       -6.2631372520      -0.0000000897     0.999998    0.00009315
   54       -6.2631373405      -0.0000000885     0.999998    0.00009250
   55       -6.2631374278      -0.0000000873     0.999998    0.00009186
   56       -6.2631375140      -0.0000000862     0.999998    0.00009123
   57       -6.2631375991      -0.0000000851     0.999998    0.00009060
   58       -6.2631376830      -0.0000000840     0.999998    0.00008998
   59       -6.2631377659      -0.0000000829     0.999998    0.00008937
   60       -6.2631378477      -0.0000000818     0.999998    0.00008876
   61       -6.2631379285      -0.0000000808     0.999998    0.00008816
   62       -6.2631380082      -0.0000000797     0.999998    0.00008757
   63       -6.2631380869      -0.0000000787     0.999998    0.00008698
   64       -6.2631381646      -0.0000000777     0.999998    0.00008639
   65       -6.2631382413      -0.0000000767     0.999998    0.00008581
   66       -6.2631383171      -0.0000000757     0.999998    0.00008524
   67       -6.2631383919      -0.0000000748     0.999998    0.00008467
   68       -6.2631384657      -0.0000000738     0.999998    0.00008411
   69       -6.2631385386      -0.0000000729     0.999998    0.00008356
   70       -6.2631386106      -0.0000000720     0.999998    0.00008301
   71       -6.2631386817      -0.0000000711     0.999998    0.00008246
   72       -6.2631387520      -0.0000000702     0.999998    0.00008192
   73       -6.2631388213      -0.0000000694     0.999998    0.00008139
   74       -6.2631388898      -0.0000000685     0.999998    0.00008086
   75       -6.2631389575      -0.0000000677     0.999998    0.00008034
   76       -6.2631390243      -0.0000000668     0.999998    0.00007982
   77       -6.2631390903      -0.0000000660     0.999998    0.00007930
   78       -6.2631391555      -0.0000000652     0.999998    0.00007880
   79       -6.2631392200      -0.0000000644     0.999998    0.00007829
   80       -6.2631392836      -0.0000000636     0.999998    0.00007779
   81       -6.2631393465      -0.0000000629     0.999998    0.00007730
   82       -6.2631394086      -0.0000000621     0.999998    0.00007681
   83       -6.2631394700      -0.0000000614     0.999998    0.00007632
   84       -6.2631395306      -0.0000000606     0.999998    0.00007585
   85       -6.2631395905      -0.0000000599     0.999998    0.00007537
   86       -6.2631396498      -0.0000000592     0.999998    0.00007490
   87       -6.2631397083      -0.0000000585     0.999998    0.00007443
   88       -6.2631397661      -0.0000000578     0.999998    0.00007397
   89       -6.2631398232      -0.0000000571     0.999998    0.00007351
   90       -6.2631398797      -0.0000000565     0.999998    0.00007306
   91       -6.2631399356      -0.0000000558     0.999998    0.00007261
   92       -6.2631399907      -0.0000000552     0.999998    0.00007217
   93       -6.2631400453      -0.0000000545     0.999998    0.00007173
   94       -6.2631400992      -0.0000000539     0.999998    0.00007129
   95       -6.2631401525      -0.0000000533     0.999998    0.00007086
   96       -6.2631402052      -0.0000000527     0.999998    0.00007043
   97       -6.2631402572      -0.0000000521     0.999998    0.00007001
   98       -6.2631403087      -0.0000000515     0.999998    0.00006959
   99       -6.2631403596      -0.0000000509     0.999998    0.00006918
  100       -6.2631404100      -0.0000000503     0.999998    0.00006876
  101       -6.2631404597      -0.0000000498     0.999998    0.00006836
  102       -6.2631405090      -0.0000000492     0.999998    0.00006795
  103       -6.2631405576      -0.0000000487     0.999998    0.00006755
  104       -6.2631406057      -0.0000000481     0.999998    0.00006716
  105       -6.2631406533      -0.0000000476     0.999998    0.00006676
  106       -6.2631407004      -0.0000000471     0.999998    0.00006637
  107       -6.2631407469      -0.0000000465     0.999998    0.00006599
  108       -6.2631407930      -0.0000000460     0.999998    0.00006561
  109       -6.2631408385      -0.0000000455     0.999998    0.00006523
  110       -6.2631408835      -0.0000000450     0.999998    0.00006485
  111       -6.2631409281      -0.0000000445     0.999998    0.00006448
  112       -6.2631409721      -0.0000000441     0.999998    0.00006412
  113       -6.2631410157      -0.0000000436     0.999998    0.00006375
  114       -6.2631410589      -0.0000000431     0.999998    0.00006339
  115       -6.2631411015      -0.0000000427     0.999998    0.00006303
  116       -6.2631411437      -0.0000000422     0.999998    0.00006268
  117       -6.2631411855      -0.0000000418     0.999998    0.00006233
  118       -6.2631412268      -0.0000000413     0.999998    0.00006198
  119       -6.2631412677      -0.0000000409     0.999998    0.00006163
  120       -6.2631413082      -0.0000000405     0.999998    0.00006129
  121       -6.2631413482      -0.0000000400     0.999998    0.00006096
  122       -6.2631413878      -0.0000000396     0.999998    0.00006062
  123       -6.2631414270      -0.0000000392     0.999998    0.00006029
  124       -6.2631414658      -0.0000000388     0.999998    0.00005996
  125       -6.2631415042      -0.0000000384     0.999998    0.00005963
  126       -6.2631415422      -0.0000000380     0.999998    0.00005931
  127       -6.2631415799      -0.0000000376     0.999998    0.00005899
  128       -6.2631416171      -0.0000000372     0.999998    0.00005867
  129       -6.2631416540      -0.0000000369     0.999998    0.00005836
  130       -6.2631416904      -0.0000000365     0.999998    0.00005805
  131       -6.2631417266      -0.0000000361     0.999998    0.00005774
  132       -6.2631417623      -0.0000000358     0.999998    0.00005743
  133       -6.2631417977      -0.0000000354     0.999998    0.00005713
  134       -6.2631418328      -0.0000000350     0.999998    0.00005683
  135       -6.2631418675      -0.0000000347     0.999998    0.00005653
  136       -6.2631419018      -0.0000000344     0.999998    0.00005623
  137       -6.2631419358      -0.0000000340     0.999998    0.00005594
  138       -6.2631419695      -0.0000000337     0.999998    0.00005565
  139       -6.2631420029      -0.0000000334     0.999998    0.00005536
  140       -6.2631420359      -0.0000000330     0.999998    0.00005508
  141       -6.2631420686      -0.0000000327     0.999998    0.00005480
  142       -6.2631421010      -0.0000000324     0.999998    0.00005452
  143       -6.2631421331      -0.0000000321     0.999998    0.00005424
  144       -6.2631421649      -0.0000000318     0.999998    0.00005397
  145       -6.2631421964      -0.0000000315     0.999998    0.00005369
  146       -6.2631422275      -0.0000000312     0.999998    0.00005342
  147       -6.2631422584      -0.0000000309     0.999998    0.00005316
  148       -6.2631422890      -0.0000000306     0.999998    0.00005289
  149       -6.2631423193      -0.0000000303     0.999998    0.00005263
  150       -6.2631423493      -0.0000000300     0.999998    0.00005237
  151       -6.2631423791      -0.0000000297     0.999998    0.00005211
  152       -6.2631424085      -0.0000000295     0.999998    0.00005185
  153       -6.2631424377      -0.0000000292     0.999998    0.00005160
  154       -6.2631424666      -0.0000000289     0.999998    0.00005135
  155       -6.2631424953      -0.0000000287     0.999998    0.00005110
  156       -6.2631425237      -0.0000000284     0.999998    0.00005085
  157       -6.2631425518      -0.0000000281     0.999998    0.00005061
  158       -6.2631425797      -0.0000000279     0.999998    0.00005036
  159       -6.2631426073      -0.0000000276     0.999998    0.00005012
  160       -6.2631426347      -0.0000000274     0.999998    0.00004988
  161       -6.2631426618      -0.0000000271     0.999998    0.00004965
  162       -6.2631426887      -0.0000000269     0.999998    0.00004941
  163       -6.2631427154      -0.0000000267     0.999998    0.00004918
  164       -6.2631427418      -0.0000000264     0.999998    0.00004895
  165       -6.2631427680      -0.0000000262     0.999998    0.00004872
  166       -6.2631427939      -0.0000000260     0.999998    0.00004850
  167       -6.2631428197      -0.0000000257     0.999998    0.00004827
  168       -6.2631428452      -0.0000000255     0.999998    0.00004805
  169       -6.2631428704      -0.0000000253     0.999998    0.00004783
  170       -6.2631428955      -0.0000000251     0.999998    0.00004761
  171       -6.2631429204      -0.0000000248     0.999998    0.00004739
  172       -6.2631429450      -0.0000000246     0.999998    0.00004718
  173       -6.2631429694      -0.0000000244     0.999998    0.00004696
  174       -6.2631429936      -0.0000000242     0.999998    0.00004675
  175       -6.2631430177      -0.0000000240     0.999998    0.00004654
  176       -6.2631430415      -0.0000000238     0.999998    0.00004633
  177       -6.2631430651      -0.0000000236     0.999998    0.00004613
  178       -6.2631430885      -0.0000000234     0.999998    0.00004592
  179       -6.2631431117      -0.0000000232     0.999998    0.00004572
  180       -6.2631431347      -0.0000000230     0.999998    0.00004552
  181       -6.2631431576      -0.0000000228     0.999998    0.00004532
  182       -6.2631431802      -0.0000000226     0.999998    0.00004512
  183       -6.2631432027      -0.0000000225     0.999998    0.00004493
  184       -6.2631432250      -0.0000000223     0.999998    0.00004473
  185       -6.2631432471      -0.0000000221     0.999998    0.00004454
  186       -6.2631432690      -0.0000000219     0.999998    0.00004435
  187       -6.2631432907      -0.0000000217     0.999998    0.00004416
  188       -6.2631433123      -0.0000000216     0.999998    0.00004397
  189       -6.2631433337      -0.0000000214     0.999998    0.00004379
  190       -6.2631433549      -0.0000000212     0.999998    0.00004360
  191       -6.2631433760      -0.0000000211     0.999998    0.00004342
  192       -6.2631433969      -0.0000000209     0.999998    0.00004324
  193       -6.2631434176      -0.0000000207     0.999998    0.00004306
  194       -6.2631434382      -0.0000000206     0.999998    0.00004288
  195       -6.2631434586      -0.0000000204     0.999998    0.00004270
  196       -6.2631434789      -0.0000000203     0.999998    0.00004253
  197       -6.2631434990      -0.0000000201     0.999998    0.00004235
  198       -6.2631435189      -0.0000000199     0.999998    0.00004218
  199       -6.2631435387      -0.0000000198     0.999998    0.00004201
  200       -6.2631435583      -0.0000000196     0.999998    0.00004184
  201       -6.2631435778      -0.0000000195     0.999998    0.00004167
  202       -6.2631435972      -0.0000000193     0.999998    0.00004150
  203       -6.2631436164      -0.0000000192     0.999998    0.00004134
  204       -6.2631436354      -0.0000000191     0.999998    0.00004117
  205       -6.2631436543      -0.0000000189     0.999998    0.00004101
  206       -6.2631436731      -0.0000000188     0.999998    0.00004085
  207       -6.2631436918      -0.0000000186     0.999998    0.00004069
  208       -6.2631437103      -0.0000000185     0.999998    0.00004053
  209       -6.2631437286      -0.0000000184     0.999998    0.00004037
  210       -6.2631437468      -0.0000000182     0.999998    0.00004022
  211       -6.2631437649      -0.0000000181     0.999998    0.00004006
  212       -6.2631437829      -0.0000000180     0.999998    0.00003991
  213       -6.2631438008      -0.0000000178     0.999998    0.00003976
  214       -6.2631438185      -0.0000000177     0.999998    0.00003961
  215       -6.2631438361      -0.0000000176     0.999998    0.00003946
  216       -6.2631438535      -0.0000000175     0.999998    0.00003931
  217       -6.2631438709      -0.0000000173     0.999998    0.00003916
  218       -6.2631438881      -0.0000000172     0.999998    0.00003901
  219       -6.2631439052      -0.0000000171     0.999998    0.00003887
  220       -6.2631439222      -0.0000000170     0.999998    0.00003872
  221       -6.2631439390      -0.0000000169     0.999998    0.00003858
  222       -6.2631439558      -0.0000000167     0.999998    0.00003844
  223       -6.2631439724      -0.0000000166     0.999998    0.00003830
  224       -6.2631439889      -0.0000000165     0.999998    0.00003816
  225       -6.2631440053      -0.0000000164     0.999998    0.00003802
  226       -6.2631440216      -0.0000000163     0.999998    0.00003789
  227       -6.2631440378      -0.0000000162     0.999998    0.00003775
  228       -6.2631440539      -0.0000000161     0.999998    0.00003762
  229       -6.2631440698      -0.0000000160     0.999998    0.00003748
  230       -6.2631440857      -0.0000000159     0.999998    0.00003735
  231       -6.2631441015      -0.0000000158     0.999998    0.00003722
  232       -6.2631441171      -0.0000000157     0.999998    0.00003709
  233       -6.2631441327      -0.0000000156     0.999998    0.00003696
  234       -6.2631441481      -0.0000000155     0.999998    0.00003683
  235       -6.2631441635      -0.0000000154     0.999998    0.00003670
  236       -6.2631441787      -0.0000000153     0.999998    0.00003658
  237       -6.2631441939      -0.0000000152     0.999998    0.00003645
  238       -6.2631442090      -0.0000000151     0.999998    0.00003633
  239       -6.2631442239      -0.0000000150     0.999998    0.00003620
  240       -6.2631442388      -0.0000000149     0.999998    0.00003608
  241       -6.2631442536      -0.0000000148     0.999998    0.00003596
  242       -6.2631442683      -0.0000000147     0.999998    0.00003584
  243       -6.2631442829      -0.0000000146     0.999998    0.00003572
  244       -6.2631442974      -0.0000000145     0.999998    0.00003560
  245       -6.2631443118      -0.0000000144     0.999998    0.00003549
  246       -6.2631443261      -0.0000000143     0.999998    0.00003537
  247       -6.2631443403      -0.0000000142     0.999998    0.00003525
  248       -6.2631443545      -0.0000000142     0.999998    0.00003514
  249       -6.2631443686      -0.0000000141     0.999998    0.00003503
  250       -6.2631443825      -0.0000000140     0.999998    0.00003491
  251       -6.2631443964      -0.0000000139     0.999998    0.00003480
  252       -6.2631444103      -0.0000000138     0.999998    0.00003469
  253       -6.2631444240      -0.0000000137     0.999998    0.00003458
  254       -6.2631444377      -0.0000000137     0.999998    0.00003447
  255       -6.2631444512      -0.0000000136     0.999998    0.00003437
  256       -6.2631444647      -0.0000000135     0.999998    0.00003426
  257       -6.2631444782      -0.0000000134     0.999998    0.00003415
  258       -6.2631444915      -0.0000000133     0.999998    0.00003405
  259       -6.2631445048      -0.0000000133     0.999998    0.00003394
  260       -6.2631445180      -0.0000000132     0.999998    0.00003384
  261       -6.2631445311      -0.0000000131     0.999998    0.00003374
  262       -6.2631445441      -0.0000000130     0.999998    0.00003363
  263       -6.2631445571      -0.0000000130     0.999998    0.00003353
  264       -6.2631445700      -0.0000000129     0.999998    0.00003343
  265       -6.2631445828      -0.0000000128     0.999998    0.00003333
  266       -6.2631445956      -0.0000000128     0.999998    0.00003323
  267       -6.2631446083      -0.0000000127     0.999998    0.00003314
  268       -6.2631446209      -0.0000000126     0.999998    0.00003304
  269       -6.2631446334      -0.0000000125     0.999998    0.00003294
  270       -6.2631446459      -0.0000000125     0.999998    0.00003285
  271       -6.2631446583      -0.0000000124     0.999998    0.00003275
  272       -6.2631446707      -0.0000000123     0.999998    0.00003266
  273       -6.2631446829      -0.0000000123     0.999998    0.00003257
  274       -6.2631446952      -0.0000000122     0.999998    0.00003247
  275       -6.2631447073      -0.0000000122     0.999998    0.00003238
  276       -6.2631447194      -0.0000000121     0.999998    0.00003229
  277       -6.2631447314      -0.0000000120     0.999998    0.00003220
  278       -6.2631447434      -0.0000000120     0.999998    0.00003211
  279       -6.2631447553      -0.0000000119     0.999998    0.00003202
  280       -6.2631447672      -0.0000000118     0.999998    0.00003194
  281       -6.2631447789      -0.0000000118     0.999998    0.00003185
  282       -6.2631447907      -0.0000000117     0.999998    0.00003176
  283       -6.2631448023      -0.0000000117     0.999998    0.00003168
  284       -6.2631448140      -0.0000000116     0.999998    0.00003159
  285       -6.2631448255      -0.0000000116     0.999998    0.00003151
  286       -6.2631448370      -0.0000000115     0.999998    0.00003142
  287       -6.2631448484      -0.0000000114     0.999998    0.00003134
  288       -6.2631448598      -0.0000000114     0.999998    0.00003126
  289       -6.2631448712      -0.0000000113     0.999998    0.00003118
  290       -6.2631448824      -0.0000000113     0.999998    0.00003110
  291       -6.2631448937      -0.0000000112     0.999998    0.00003102
  292       -6.2631449048      -0.0000000112     0.999998    0.00003094
  293       -6.2631449159      -0.0000000111     0.999998    0.00003086
  294       -6.2631449270      -0.0000000111     0.999998    0.00003078
  295       -6.2631449380      -0.0000000110     0.999998    0.00003070
  296       -6.2631449490      -0.0000000110     0.999998    0.00003062
  297       -6.2631449599      -0.0000000109     0.999998    0.00003055
  298       -6.2631449708      -0.0000000109     0.999998    0.00003047
  299       -6.2631449816      -0.0000000108     0.999998    0.00003040
  300       -6.2631449924      -0.0000000108     0.999998    0.00003032
  301       -6.2631450031      -0.0000000107     0.999998    0.00003025
  302       -6.2631450137      -0.0000000107     0.999998    0.00003018
  303       -6.2631450244      -0.0000000106     0.999998    0.00003010
  304       -6.2631450349      -0.0000000106     0.999998    0.00003003
  305       -6.2631450455      -0.0000000105     0.999998    0.00002996
  306       -6.2631450560      -0.0000000105     0.999998    0.00002989
  307       -6.2631450664      -0.0000000104     0.999998    0.00002982
  308       -6.2631450768      -0.0000000104     0.999998    0.00002975
  309       -6.2631450872      -0.0000000104     0.999998    0.00002968
  310       -6.2631450975      -0.0000000103     0.999998    0.00002962
  311       -6.2631451077      -0.0000000103     0.999998    0.00002955
  312       -6.2631451180      -0.0000000102     0.999998    0.00002948
  313       -6.2631451281      -0.0000000102     0.999998    0.00002941
  314       -6.2631451383      -0.0000000101     0.999998    0.00002935
  315       -6.2631451484      -0.0000000101     0.999998    0.00002928
  316       -6.2631451584      -0.0000000101     0.999998    0.00002922
  317       -6.2631451685      -0.0000000100     0.999998    0.00002915
  318       -6.2631451784      -0.0000000100     0.999998    0.00002909
  319       -6.2631451884      -0.0000000099     0.999998    0.00002903
  320       -6.2631451983      -0.0000000099     0.999998    0.00002897
  321       -6.2631452081      -0.0000000099     0.999998    0.00002890
  322       -6.2631452180      -0.0000000098     0.999998    0.00002884
  323       -6.2631452277      -0.0000000098     0.999998    0.00002878
  324       -6.2631452375      -0.0000000098     0.999998    0.00002872
  325       -6.2631452472      -0.0000000097     0.999998    0.00002866
  326       -6.2631452569      -0.0000000097     0.999998    0.00002860
  327       -6.2631452665      -0.0000000096     0.999998    0.00002854
  328       -6.2631452761      -0.0000000096     0.999998    0.00002849
  329       -6.2631452857      -0.0000000096     0.999998    0.00002843
  330       -6.2631452952      -0.0000000095     0.999998    0.00002837
  331       -6.2631453047      -0.0000000095     0.999998    0.00002832
  332       -6.2631453142      -0.0000000095     0.999998    0.00002826
  333       -6.2631453236      -0.0000000094     0.999998    0.00002820
  334       -6.2631453330      -0.0000000094     0.999998    0.00002815
  335       -6.2631453424      -0.0000000094     0.999998    0.00002810
  336       -6.2631453518      -0.0000000093     0.999998    0.00002804
  337       -6.2631453611      -0.0000000093     0.999998    0.00002799
  338       -6.2631453703      -0.0000000093     0.999998    0.00002794
  339       -6.2631453796      -0.0000000092     0.999998    0.00002788
  340       -6.2631453888      -0.0000000092     0.999998    0.00002783
  341       -6.2631453980      -0.0000000092     0.999998    0.00002778
  342       -6.2631454071      -0.0000000092     0.999998    0.00002773
  343       -6.2631454162      -0.0000000091     0.999998    0.00002768
  344       -6.2631454253      -0.0000000091     0.999998    0.00002763
  345       -6.2631454344      -0.0000000091     0.999998    0.00002758
  346       -6.2631454434      -0.0000000090     0.999998    0.00002753
  347       -6.2631454524      -0.0000000090     0.999998    0.00002748
  348       -6.2631454614      -0.0000000090     0.999998    0.00002743
  349       -6.2631454704      -0.0000000090     0.999998    0.00002739
  350       -6.2631454793      -0.0000000089     0.999998    0.00002734
  351       -6.2631454882      -0.0000000089     0.999998    0.00002729
  352       -6.2631454970      -0.0000000089     0.999998    0.00002725
  353       -6.2631455059      -0.0000000088     0.999998    0.00002720
  354       -6.2631455147      -0.0000000088     0.999998    0.00002716
  355       -6.2631455235      -0.0000000088     0.999998    0.00002711
  356       -6.2631455323      -0.0000000088     0.999998    0.00002707
  357       -6.2631455410      -0.0000000087     0.999998    0.00002702
  358       -6.2631455497      -0.0000000087     0.999998    0.00002698
  359       -6.2631455584      -0.0000000087     0.999998    0.00002694
  360       -6.2631455671      -0.0000000087     0.999998    0.00002690
  361       -6.2631455757      -0.0000000086     0.999998    0.00002685
  362       -6.2631455843      -0.0000000086     0.999998    0.00002681
  363       -6.2631455929      -0.0000000086     0.999998    0.00002677
  364       -6.2631456015      -0.0000000086     0.999998    0.00002673
  365       -6.2631456101      -0.0000000086     0.999998    0.00002669
  366       -6.2631456186      -0.0000000085     0.999998    0.00002665
  367       -6.2631456271      -0.0000000085     0.999998    0.00002661
  368       -6.2631456356      -0.0000000085     0.999998    0.00002657
  369       -6.2631456441      -0.0000000085     0.999998    0.00002653
  370       -6.2631456525      -0.0000000084     0.999998    0.00002650
  371       -6.2631456609      -0.0000000084     0.999998    0.00002646
  372       -6.2631456693      -0.0000000084     0.999998    0.00002642
  373       -6.2631456777      -0.0000000084     0.999998    0.00002639
  374       -6.2631456861      -0.0000000084     0.999998    0.00002635
  375       -6.2631456944      -0.0000000083     0.999998    0.00002631
  376       -6.2631457028      -0.0000000083     0.999998    0.00002628
  377       -6.2631457111      -0.0000000083     0.999998    0.00002624
  378       -6.2631457193      -0.0000000083     0.999998    0.00002621
  379       -6.2631457276      -0.0000000083     0.999998    0.00002617
  380       -6.2631457359      -0.0000000083     0.999998    0.00002614
  381       -6.2631457441      -0.0000000082     0.999998    0.00002611
  382       -6.2631457523      -0.0000000082     0.999998    0.00002607
  383       -6.2631457605      -0.0000000082     0.999998    0.00002604
  384       -6.2631457687      -0.0000000082     0.999998    0.00002601
  385       -6.2631457769      -0.0000000082     0.999998    0.00002598
  386       -6.2631457850      -0.0000000081     0.999998    0.00002595
  387       -6.2631457931      -0.0000000081     0.999998    0.00002592
  388       -6.2631458012      -0.0000000081     0.999998    0.00002589
  389       -6.2631458093      -0.0000000081     0.999998    0.00002586
  390       -6.2631458174      -0.0000000081     0.999998    0.00002583
  391       -6.2631458255      -0.0000000081     0.999998    0.00002580
  392       -6.2631458335      -0.0000000081     0.999998    0.00002577
  393       -6.2631458416      -0.0000000080     0.999998    0.00002574
  394       -6.2631458496      -0.0000000080     0.999998    0.00002571
  395       -6.2631458576      -0.0000000080     0.999998    0.00002568
  396       -6.2631458656      -0.0000000080     0.999998    0.00002566
  397       -6.2631458736      -0.0000000080     0.999998    0.00002563
  398       -6.2631458816      -0.0000000080     0.999998    0.00002560
  399       -6.2631458895      -0.0000000080     0.999998    0.00002558
  400       -6.2631458975      -0.0000000079     0.999998    0.00002555
  401       -6.2631459054      -0.0000000079     0.999998    0.00002553
  402       -6.2631459133      -0.0000000079     0.999998    0.00002550
  403       -6.2631459212      -0.0000000079     0.999998    0.00002548
  404       -6.2631459291      -0.0000000079     0.999998    0.00002545
  405       -6.2631459370      -0.0000000079     0.999998    0.00002543
  406       -6.2631459448      -0.0000000079     0.999998    0.00002541
  407       -6.2631459527      -0.0000000079     0.999998    0.00002538
  408       -6.2631459606      -0.0000000078     0.999998    0.00002536
  409       -6.2631459684      -0.0000000078     0.999998    0.00002534
  410       -6.2631459762      -0.0000000078     0.999998    0.00002532
  411       -6.2631459840      -0.0000000078     0.999998    0.00002529
  412       -6.2631459918      -0.0000000078     0.999998    0.00002527
  413       -6.2631459996      -0.0000000078     0.999998    0.00002525
  414       -6.2631460074      -0.0000000078     0.999998    0.00002523
  415       -6.2631460152      -0.0000000078     0.999998    0.00002521
  416       -6.2631460230      -0.0000000078     0.999998    0.00002519
  417       -6.2631460307      -0.0000000078     0.999998    0.00002517
  418       -6.2631460385      -0.0000000077     0.999998    0.00002515
  419       -6.2631460462      -0.0000000077     0.999998    0.00002514
  420       -6.2631460539      -0.0000000077     0.999998    0.00002512
  421       -6.2631460617      -0.0000000077     0.999998    0.00002510
  422       -6.2631460694      -0.0000000077     0.999998    0.00002508
  423       -6.2631460771      -0.0000000077     0.999998    0.00002506
  424       -6.2631460848      -0.0000000077     0.999998    0.00002505
  425       -6.2631460925      -0.0000000077     0.999998    0.00002503
  426       -6.2631461002      -0.0000000077     0.999998    0.00002502
  427       -6.2631461078      -0.0000000077     0.999998    0.00002500
  428       -6.2631461155      -0.0000000077     0.999998    0.00002498
  429       -6.2631461232      -0.0000000077     0.999998    0.00002497
  430       -6.2631461308      -0.0000000077     0.999998    0.00002496
  431       -6.2631461385      -0.0000000077     0.999998    0.00002494
  432       -6.2631461462      -0.0000000077     0.999998    0.00002493
  433       -6.2631461538      -0.0000000076     0.999998    0.00002491
  434       -6.2631461614      -0.0000000076     0.999998    0.00002490
  435       -6.2631461691      -0.0000000076     0.999998    0.00002489
  436       -6.2631461767      -0.0000000076     0.999998    0.00002488
  437       -6.2631461843      -0.0000000076     0.999998    0.00002486
  438       -6.2631461919      -0.0000000076     0.999998    0.00002485
  439       -6.2631461996      -0.0000000076     0.999998    0.00002484
  440       -6.2631462072      -0.0000000076     0.999998    0.00002483
  441       -6.2631462148      -0.0000000076     0.999998    0.00002482
  442       -6.2631462224      -0.0000000076     0.999998    0.00002481
  443       -6.2631462300      -0.0000000076     0.999998    0.00002480
  444       -6.2631462376      -0.0000000076     0.999998    0.00002479
  445       -6.2631462452      -0.0000000076     0.999998    0.00002478
  446       -6.2631462528      -0.0000000076     0.999998    0.00002477
  447       -6.2631462604      -0.0000000076     0.999998    0.00002476
  448       -6.2631462680      -0.0000000076     0.999998    0.00002476
  449       -6.2631462756      -0.0000000076     0.999998    0.00002475
  450       -6.2631462832      -0.0000000076     0.999998    0.00002474
  451       -6.2631462908      -0.0000000076     0.999998    0.00002473
  452       -6.2631462983      -0.0000000076     0.999998    0.00002473
  453       -6.2631463059      -0.0000000076     0.999998    0.00002472
  454       -6.2631463135      -0.0000000076     0.999998    0.00002472
  455       -6.2631463211      -0.0000000076     0.999998    0.00002471
  456       -6.2631463287      -0.0000000076     0.999998    0.00002471
  457       -6.2631463363      -0.0000000076     0.999998    0.00002470
  458       -6.2631463438      -0.0000000076     0.999998    0.00002470
  459       -6.2631463514      -0.0000000076     0.999998    0.00002469
  460       -6.2631463590      -0.0000000076     0.999998    0.00002469
  461       -6.2631463666      -0.0000000076     0.999998    0.00002469
  462       -6.2631463742      -0.0000000076     0.999998    0.00002468
  463       -6.2631463818      -0.0000000076     0.999998    0.00002468
  464       -6.2631463894      -0.0000000076     0.999998    0.00002468
  465       -6.2631463970      -0.0000000076     0.999998    0.00002468
  466       -6.2631464046      -0.0000000076     0.999998    0.00002467
  467       -6.2631464121      -0.0000000076     0.999998    0.00002467
  468       -6.2631464197      -0.0000000076     0.999998    0.00002467
  469       -6.2631464273      -0.0000000076     0.999998    0.00002467
  470       -6.2631464350      -0.0000000076     0.999998    0.00002467
  471       -6.2631464426      -0.0000000076     0.999998    0.00002467
  472       -6.2631464502      -0.0000000076     0.999998    0.00002467
  473       -6.2631464578      -0.0000000076     0.999998    0.00002467
  474       -6.2631464654      -0.0000000076     0.999998    0.00002467
  475       -6.2631464730      -0.0000000076     0.999998    0.00002468
  476       -6.2631464806      -0.0000000076     0.999998    0.00002468
  477       -6.2631464883      -0.0000000076     0.999998    0.00002468
  478       -6.2631464959      -0.0000000076     0.999998    0.00002468
  479       -6.2631465036      -0.0000000076     0.999998    0.00002469
  480       -6.2631465112      -0.0000000076     0.999998    0.00002469
  481       -6.2631465189      -0.0000000077     0.999998    0.00002469
  482       -6.2631465265      -0.0000000077     0.999998    0.00002470
  483       -6.2631465342      -0.0000000077     0.999998    0.00002470
  484       -6.2631465418      -0.0000000077     0.999998    0.00002471
  485       -6.2631465495      -0.0000000077     0.999998    0.00002471
  486       -6.2631465572      -0.0000000077     0.999998    0.00002472
  487       -6.2631465649      -0.0000000077     0.999998    0.00002473
  488       -6.2631465726      -0.0000000077     0.999998    0.00002473
  489       -6.2631465803      -0.0000000077     0.999998    0.00002474
  490       -6.2631465880      -0.0000000077     0.999998    0.00002475
  491       -6.2631465957      -0.0000000077     0.999998    0.00002475
  492       -6.2631466034      -0.0000000077     0.999998    0.00002476
  493       -6.2631466112      -0.0000000077     0.999998    0.00002477
  494       -6.2631466189      -0.0000000077     0.999998    0.00002478
  495       -6.2631466267      -0.0000000078     0.999998    0.00002479
  496       -6.2631466344      -0.0000000078     0.999998    0.00002480
  497       -6.2631466422      -0.0000000078     0.999998    0.00002481
  498       -6.2631466500      -0.0000000078     0.999998    0.00002482
  499       -6.2631466578      -0.0000000078     0.999998    0.00002483
  500       -6.2631466656      -0.0000000078     0.999998    0.00002484
  501       -6.2631466734      -0.0000000078     0.999998    0.00002485
  502       -6.2631466812      -0.0000000078     0.999998    0.00002486
  503       -6.2631466890      -0.0000000078     0.999998    0.00002487
  504       -6.2631466969      -0.0000000078     0.999998    0.00002489
  505       -6.2631467047      -0.0000000079     0.999998    0.00002490
  506       -6.2631467126      -0.0000000079     0.999998    0.00002491
  507       -6.2631467205      -0.0000000079     0.999998    0.00002493
  508       -6.2631467284      -0.0000000079     0.999998    0.00002494
  509       -6.2631467363      -0.0000000079     0.999998    0.00002495
  510       -6.2631467442      -0.0000000079     0.999998    0.00002497
  511       -6.2631467521      -0.0000000079     0.999998    0.00002498
  512       -6.2631467601      -0.0000000079     0.999998    0.00002500
  513       -6.2631467680      -0.0000000080     0.999998    0.00002502
  514       -6.2631467760      -0.0000000080     0.999998    0.00002503
  515       -6.2631467840      -0.0000000080     0.999998    0.00002505
  516       -6.2631467920      -0.0000000080     0.999998    0.00002507
  517       -6.2631468000      -0.0000000080     0.999998    0.00002508
  518       -6.2631468080      -0.0000000080     0.999998    0.00002510
  519       -6.2631468160      -0.0000000080     0.999998    0.00002512
  520       -6.2631468241      -0.0000000081     0.999998    0.00002514
  521       -6.2631468322      -0.0000000081     0.999998    0.00002516
  522       -6.2631468403      -0.0000000081     0.999998    0.00002518
  523       -6.2631468484      -0.0000000081     0.999998    0.00002520
  524       -6.2631468565      -0.0000000081     0.999998    0.00002522
  525       -6.2631468646      -0.0000000081     0.999998    0.00002524
  526       -6.2631468728      -0.0000000082     0.999998    0.00002526
  527       -6.2631468809      -0.0000000082     0.999998    0.00002528
  528       -6.2631468891      -0.0000000082     0.999998    0.00002531
  529       -6.2631468973      -0.0000000082     0.999998    0.00002533
  530       -6.2631469056      -0.0000000082     0.999998    0.00002535
  531       -6.2631469138      -0.0000000082     0.999998    0.00002537
  532       -6.2631469221      -0.0000000083     0.999998    0.00002540
  533       -6.2631469304      -0.0000000083     0.999998    0.00002542
  534       -6.2631469387      -0.0000000083     0.999998    0.00002545
  535       -6.2631469470      -0.0000000083     0.999998    0.00002547
  536       -6.2631469553      -0.0000000083     0.999998    0.00002550
  537       -6.2631469637      -0.0000000084     0.999998    0.00002552
  538       -6.2631469721      -0.0000000084     0.999998    0.00002555
  539       -6.2631469805      -0.0000000084     0.999998    0.00002558
  540       -6.2631469889      -0.0000000084     0.999998    0.00002560
  541       -6.2631469974      -0.0000000085     0.999998    0.00002563
  542       -6.2631470059      -0.0000000085     0.999998    0.00002566
  543       -6.2631470143      -0.0000000085     0.999998    0.00002569
  544       -6.2631470229      -0.0000000085     0.999998    0.00002572
  545       -6.2631470314      -0.0000000085     0.999998    0.00002575
  546       -6.2631470400      -0.0000000086     0.999998    0.00002578
  547       -6.2631470486      -0.0000000086     0.999998    0.00002581
  548       -6.2631470572      -0.0000000086     0.999998    0.00002584
  549       -6.2631470658      -0.0000000086     0.999998    0.00002587
  550       -6.2631470745      -0.0000000087     0.999998    0.00002590
  551       -6.2631470832      -0.0000000087     0.999998    0.00002594
  552       -6.2631470919      -0.0000000087     0.999998    0.00002597
  553       -6.2631471006      -0.0000000087     0.999998    0.00002600
  554       -6.2631471094      -0.0000000088     0.999998    0.00002604
  555       -6.2631471182      -0.0000000088     0.999998    0.00002607
  556       -6.2631471270      -0.0000000088     0.999998    0.00002610
  557       -6.2631471359      -0.0000000089     0.999998    0.00002614
  558       -6.2631471448      -0.0000000089     0.999998    0.00002617
  559       -6.2631471537      -0.0000000089     0.999998    0.00002621
  560       -6.2631471626      -0.0000000089     0.999998    0.00002625
  561       -6.2631471716      -0.0000000090     0.999998    0.00002629
  562       -6.2631471806      -0.0000000090     0.999998    0.00002632
  563       -6.2631471896      -0.0000000090     0.999998    0.00002636
  564       -6.2631471986      -0.0000000091     0.999998    0.00002640
  565       -6.2631472077      -0.0000000091     0.999998    0.00002644
  566       -6.2631472169      -0.0000000091     0.999998    0.00002648
  567       -6.2631472260      -0.0000000092     0.999998    0.00002652
  568       -6.2631472352      -0.0000000092     0.999998    0.00002656
  569       -6.2631472444      -0.0000000092     0.999998    0.00002660
  570       -6.2631472537      -0.0000000093     0.999998    0.00002664
  571       -6.2631472629      -0.0000000093     0.999998    0.00002668
  572       -6.2631472723      -0.0000000093     0.999998    0.00002673
  573       -6.2631472816      -0.0000000094     0.999998    0.00002677
  574       -6.2631472910      -0.0000000094     0.999998    0.00002682
  575       -6.2631473004      -0.0000000094     0.999998    0.00002686
  576       -6.2631473099      -0.0000000095     0.999998    0.00002690
  577       -6.2631473194      -0.0000000095     0.999998    0.00002695
  578       -6.2631473289      -0.0000000095     0.999998    0.00002700
  579       -6.2631473385      -0.0000000096     0.999998    0.00002704
  580       -6.2631473481      -0.0000000096     0.999998    0.00002709
  581       -6.2631473577      -0.0000000096     0.999998    0.00002714
  582       -6.2631473674      -0.0000000097     0.999998    0.00002719
  583       -6.2631473772      -0.0000000097     0.999998    0.00002724
  584       -6.2631473869      -0.0000000098     0.999998    0.00002728
  585       -6.2631473967      -0.0000000098     0.999998    0.00002734
  586       -6.2631474066      -0.0000000098     0.999998    0.00002739
  587       -6.2631474165      -0.0000000099     0.999998    0.00002744
  588       -6.2631474264      -0.0000000099     0.999998    0.00002749
  589       -6.2631474364      -0.0000000100     0.999998    0.00002754
  590       -6.2631474464      -0.0000000100     0.999998    0.00002759
  591       -6.2631474565      -0.0000000101     0.999998    0.00002765
  592       -6.2631474666      -0.0000000101     0.999998    0.00002770
  593       -6.2631474767      -0.0000000102     0.999998    0.00002776
  594       -6.2631474869      -0.0000000102     0.999998    0.00002781
  595       -6.2631474972      -0.0000000102     0.999998    0.00002787
  596       -6.2631475075      -0.0000000103     0.999998    0.00002793
  597       -6.2631475178      -0.0000000103     0.999998    0.00002798
  598       -6.2631475282      -0.0000000104     0.999998    0.00002804
  599       -6.2631475386      -0.0000000104     0.999998    0.00002810
  600       -6.2631475491      -0.0000000105     0.999998    0.00002816
  601       -6.2631475597      -0.0000000105     0.999998    0.00002822
  602       -6.2631475703      -0.0000000106     0.999998    0.00002828
  603       -6.2631475809      -0.0000000106     0.999998    0.00002834
  604       -6.2631475916      -0.0000000107     0.999998    0.00002840
  605       -6.2631476023      -0.0000000107     0.999998    0.00002847
  606       -6.2631476131      -0.0000000108     0.999998    0.00002853
  607       -6.2631476240      -0.0000000109     0.999998    0.00002859
  608       -6.2631476349      -0.0000000109     0.999998    0.00002866
  609       -6.2631476459      -0.0000000110     0.999998    0.00002872
  610       -6.2631476569      -0.0000000110     0.999998    0.00002879
  611       -6.2631476680      -0.0000000111     0.999998    0.00002886
  612       -6.2631476791      -0.0000000111     0.999998    0.00002893
  613       -6.2631476903      -0.0000000112     0.999998    0.00002899
  614       -6.2631477015      -0.0000000113     0.999998    0.00002906
  615       -6.2631477128      -0.0000000113     0.999998    0.00002913
  616       -6.2631477242      -0.0000000114     0.999998    0.00002920
  617       -6.2631477357      -0.0000000114     0.999998    0.00002927
  618       -6.2631477472      -0.0000000115     0.999998    0.00002935
  619       -6.2631477587      -0.0000000116     0.999998    0.00002942
  620       -6.2631477703      -0.0000000116     0.999998    0.00002949
  621       -6.2631477820      -0.0000000117     0.999998    0.00002957
  622       -6.2631477938      -0.0000000118     0.999998    0.00002964
  623       -6.2631478056      -0.0000000118     0.999998    0.00002972
  624       -6.2631478175      -0.0000000119     0.999998    0.00002980
  625       -6.2631478295      -0.0000000120     0.999998    0.00002987
  626       -6.2631478415      -0.0000000120     0.999998    0.00002995
  627       -6.2631478536      -0.0000000121     0.999998    0.00003003
  628       -6.2631478658      -0.0000000122     0.999998    0.00003011
  629       -6.2631478780      -0.0000000122     0.999998    0.00003019
  630       -6.2631478904      -0.0000000123     0.999998    0.00003027
  631       -6.2631479027      -0.0000000124     0.999998    0.00003036
  632       -6.2631479152      -0.0000000125     0.999998    0.00003044
  633       -6.2631479278      -0.0000000125     0.999998    0.00003052
  634       -6.2631479404      -0.0000000126     0.999998    0.00003061
  635       -6.2631479531      -0.0000000127     0.999998    0.00003070
  636       -6.2631479659      -0.0000000128     0.999998    0.00003078
  637       -6.2631479787      -0.0000000129     0.999998    0.00003087
  638       -6.2631479917      -0.0000000129     0.999998    0.00003096
  639       -6.2631480047      -0.0000000130     0.999998    0.00003105
  640       -6.2631480178      -0.0000000131     0.999998    0.00003114
  641       -6.2631480310      -0.0000000132     0.999998    0.00003123
  642       -6.2631480443      -0.0000000133     0.999998    0.00003133
  643       -6.2631480577      -0.0000000134     0.999998    0.00003142
  644       -6.2631480711      -0.0000000135     0.999998    0.00003151
  645       -6.2631480847      -0.0000000135     0.999998    0.00003161
  646       -6.2631480983      -0.0000000136     0.999998    0.00003171
  647       -6.2631481120      -0.0000000137     0.999998    0.00003180
  648       -6.2631481259      -0.0000000138     0.999998    0.00003190
  649       -6.2631481398      -0.0000000139     0.999998    0.00003200
  650       -6.2631481538      -0.0000000140     0.999998    0.00003210
  651       -6.2631481679      -0.0000000141     0.999998    0.00003220
  652       -6.2631481821      -0.0000000142     0.999998    0.00003231
  653       -6.2631481965      -0.0000000143     0.999998    0.00003241
  654       -6.2631482109      -0.0000000144     0.999998    0.00003251
  655       -6.2631482254      -0.0000000145     0.999998    0.00003262
  656       -6.2631482400      -0.0000000146     0.999998    0.00003273
  657       -6.2631482548      -0.0000000147     0.999998    0.00003284
  658       -6.2631482696      -0.0000000148     0.999998    0.00003295
  659       -6.2631482845      -0.0000000149     0.999998    0.00003306
  660       -6.2631482996      -0.0000000151     0.999998    0.00003317
  661       -6.2631483148      -0.0000000152     0.999998    0.00003328
  662       -6.2631483301      -0.0000000153     0.999998    0.00003339
  663       -6.2631483455      -0.0000000154     0.999998    0.00003351
  664       -6.2631483610      -0.0000000155     0.999998    0.00003363
  665       -6.2631483766      -0.0000000156     0.999998    0.00003374
  666       -6.2631483924      -0.0000000158     0.999998    0.00003386
  667       -6.2631484083      -0.0000000159     0.999998    0.00003398
  668       -6.2631484243      -0.0000000160     0.999998    0.00003410
  669       -6.2631484404      -0.0000000161     0.999998    0.00003423
  670       -6.2631484567      -0.0000000163     0.999998    0.00003435
  671       -6.2631484731      -0.0000000164     0.999998    0.00003447
  672       -6.2631484896      -0.0000000165     0.999998    0.00003460
  673       -6.2631485062      -0.0000000167     0.999998    0.00003473
  674       -6.2631485230      -0.0000000168     0.999998    0.00003486
  675       -6.2631485400      -0.0000000169     0.999998    0.00003499
  676       -6.2631485570      -0.0000000171     0.999998    0.00003512
  677       -6.2631485742      -0.0000000172     0.999998    0.00003525
  678       -6.2631485916      -0.0000000174     0.999998    0.00003539
  679       -6.2631486091      -0.0000000175     0.999998    0.00003552
  680       -6.2631486268      -0.0000000177     0.999998    0.00003566
  681       -6.2631486446      -0.0000000178     0.999998    0.00003580
  682       -6.2631486625      -0.0000000180     0.999998    0.00003594
  683       -6.2631486806      -0.0000000181     0.999998    0.00003608
  684       -6.2631486989      -0.0000000183     0.999998    0.00003623
  685       -6.2631487173      -0.0000000184     0.999998    0.00003637
  686       -6.2631487359      -0.0000000186     0.999998    0.00003652
  687       -6.2631487547      -0.0000000188     0.999998    0.00003667
  688       -6.2631487736      -0.0000000189     0.999998    0.00003682
  689       -6.2631487927      -0.0000000191     0.999998    0.00003697
  690       -6.2631488119      -0.0000000193     0.999998    0.00003712
  691       -6.2631488314      -0.0000000194     0.999998    0.00003727
  692       -6.2631488510      -0.0000000196     0.999998    0.00003743
  693       -6.2631488708      -0.0000000198     0.999998    0.00003759
  694       -6.2631488908      -0.0000000200     0.999998    0.00003775
  695       -6.2631489110      -0.0000000202     0.999998    0.00003791
  696       -6.2631489313      -0.0000000204     0.999998    0.00003807
  697       -6.2631489519      -0.0000000206     0.999998    0.00003824
  698       -6.2631489726      -0.0000000208     0.999998    0.00003841
  699       -6.2631489936      -0.0000000210     0.999997    0.00003857
  700       -6.2631490148      -0.0000000212     0.999997    0.00003874
  701       -6.2631490361      -0.0000000214     0.999997    0.00003892
  702       -6.2631490577      -0.0000000216     0.999997    0.00003909
  703       -6.2631490795      -0.0000000218     0.999997    0.00003927
  704       -6.2631491015      -0.0000000220     0.999997    0.00003945
  705       -6.2631491237      -0.0000000222     0.999997    0.00003963
  706       -6.2631491461      -0.0000000224     0.999997    0.00003981
  707       -6.2631491688      -0.0000000227     0.999997    0.00003999
  708       -6.2631491917      -0.0000000229     0.999997    0.00004018
  709       -6.2631492148      -0.0000000231     0.999997    0.00004037
  710       -6.2631492382      -0.0000000234     0.999997    0.00004056
  711       -6.2631492618      -0.0000000236     0.999997    0.00004075
  712       -6.2631492857      -0.0000000239     0.999997    0.00004094
  713       -6.2631493098      -0.0000000241     0.999997    0.00004114
  714       -6.2631493342      -0.0000000244     0.999997    0.00004134
  715       -6.2631493588      -0.0000000246     0.999997    0.00004154
  716       -6.2631493837      -0.0000000249     0.999997    0.00004174
  717       -6.2631494089      -0.0000000252     0.999997    0.00004195
  718       -6.2631494343      -0.0000000254     0.999997    0.00004216
  719       -6.2631494600      -0.0000000257     0.999997    0.00004237
  720       -6.2631494860      -0.0000000260     0.999997    0.00004258
  721       -6.2631495123      -0.0000000263     0.999997    0.00004280
  722       -6.2631495389      -0.0000000266     0.999997    0.00004302
  723       -6.2631495658      -0.0000000269     0.999997    0.00004324
  724       -6.2631495929      -0.0000000272     0.999997    0.00004346
  725       -6.2631496204      -0.0000000275     0.999997    0.00004369
  726       -6.2631496483      -0.0000000278     0.999997    0.00004392
  727       -6.2631496764      -0.0000000281     0.999997    0.00004415
  728       -6.2631497048      -0.0000000285     0.999997    0.00004438
  729       -6.2631497336      -0.0000000288     0.999997    0.00004462
  730       -6.2631497627      -0.0000000291     0.999997    0.00004486
  731       -6.2631497922      -0.0000000295     0.999997    0.00004510
  732       -6.2631498220      -0.0000000298     0.999997    0.00004534
  733       -6.2631498522      -0.0000000302     0.999997    0.00004559
  734       -6.2631498828      -0.0000000305     0.999997    0.00004584
  735       -6.2631499137      -0.0000000309     0.999997    0.00004610
  736       -6.2631499450      -0.0000000313     0.999997    0.00004635
  737       -6.2631499766      -0.0000000317     0.999997    0.00004662
  738       -6.2631500087      -0.0000000321     0.999997    0.00004688
  739       -6.2631500412      -0.0000000325     0.999997    0.00004715
  740       -6.2631500741      -0.0000000329     0.999997    0.00004742
  741       -6.2631501074      -0.0000000333     0.999997    0.00004769
  742       -6.2631501411      -0.0000000337     0.999997    0.00004797
  743       -6.2631501752      -0.0000000342     0.999997    0.00004825
  744       -6.2631502098      -0.0000000346     0.999997    0.00004853
  745       -6.2631502449      -0.0000000350     0.999997    0.00004882
  746       -6.2631502804      -0.0000000355     0.999997    0.00004911
  747       -6.2631503163      -0.0000000360     0.999997    0.00004940
  748       -6.2631503528      -0.0000000364     0.999997    0.00004970
  749       -6.2631503897      -0.0000000369     0.999997    0.00005000
  750       -6.2631504271      -0.0000000374     0.999997    0.00005031
  751       -6.2631504651      -0.0000000379     0.999997    0.00005062
  752       -6.2631505035      -0.0000000384     0.999997    0.00005093
  753       -6.2631505425      -0.0000000390     0.999997    0.00005125
  754       -6.2631505820      -0.0000000395     0.999997    0.00005157
  755       -6.2631506220      -0.0000000401     0.999997    0.00005189
  756       -6.2631506627      -0.0000000406     0.999997    0.00005222
  757       -6.2631507039      -0.0000000412     0.999997    0.00005256
  758       -6.2631507456      -0.0000000418     0.999997    0.00005290
  759       -6.2631507880      -0.0000000424     0.999997    0.00005324
  760       -6.2631508310      -0.0000000430     0.999997    0.00005359
  761       -6.2631508746      -0.0000000436     0.999997    0.00005394
  762       -6.2631509188      -0.0000000442     0.999997    0.00005430
  763       -6.2631509637      -0.0000000449     0.999997    0.00005466
  764       -6.2631510092      -0.0000000455     0.999997    0.00005503
  765       -6.2631510555      -0.0000000462     0.999997    0.00005540
  766       -6.2631511024      -0.0000000469     0.999997    0.00005581
  767       -6.2631511500      -0.0000000476     0.999997    0.00005630
  768       -6.2631511984      -0.0000000483     0.999997    0.00005680
  769       -6.2631512475      -0.0000000491     0.999997    0.00005731
  770       -6.2631512973      -0.0000000498     0.999997    0.00005783
  771       -6.2631513479      -0.0000000506     0.999997    0.00005835
  772       -6.2631513993      -0.0000000514     0.999997    0.00005889
  773       -6.2631514515      -0.0000000522     0.999997    0.00005943
  774       -6.2631515046      -0.0000000530     0.999997    0.00005998
  775       -6.2631515585      -0.0000000539     0.999997    0.00006054
  776       -6.2631516132      -0.0000000548     0.999997    0.00006111
  777       -6.2631516689      -0.0000000556     0.999997    0.00006169
  778       -6.2631517254      -0.0000000565     0.999997    0.00006228
  779       -6.2631517829      -0.0000000575     0.999997    0.00006288
  780       -6.2631518413      -0.0000000584     0.999997    0.00006349
  781       -6.2631519007      -0.0000000594     0.999997    0.00006411
  782       -6.2631519611      -0.0000000604     0.999997    0.00006473
  783       -6.2631520225      -0.0000000614     0.999997    0.00006537
  784       -6.2631520849      -0.0000000625     0.999997    0.00006603
  785       -6.2631521485      -0.0000000635     0.999997    0.00006669
  786       -6.2631522131      -0.0000000646     0.999997    0.00006736
  787       -6.2631522788      -0.0000000657     0.999997    0.00006805
  788       -6.2631523457      -0.0000000669     0.999997    0.00006874
  789       -6.2631524138      -0.0000000681     0.999997    0.00006945
  790       -6.2631524831      -0.0000000693     0.999997    0.00007017
  791       -6.2631525536      -0.0000000705     0.999997    0.00007091
  792       -6.2631526254      -0.0000000718     0.999997    0.00007166
  793       -6.2631526986      -0.0000000731     0.999997    0.00007242
  794       -6.2631527730      -0.0000000744     0.999997    0.00007319
  795       -6.2631528488      -0.0000000758     0.999997    0.00007398
  796       -6.2631529261      -0.0000000772     0.999997    0.00007479
  797       -6.2631530047      -0.0000000787     0.999997    0.00007560
  798       -6.2631530849      -0.0000000802     0.999997    0.00007644
  799       -6.2631531666      -0.0000000817     0.999997    0.00007729
  800       -6.2631532499      -0.0000000833     0.999997    0.00007815
  801       -6.2631533347      -0.0000000849     0.999997    0.00007903
  802       -6.2631534212      -0.0000000865     0.999997    0.00007993
  803       -6.2631535095      -0.0000000882     0.999997    0.00008085
  804       -6.2631535994      -0.0000000900     0.999997    0.00008178
  805       -6.2631536912      -0.0000000918     0.999997    0.00008273
  806       -6.2631537848      -0.0000000936     0.999997    0.00008370
  807       -6.2631538803      -0.0000000955     0.999997    0.00008469
  808       -6.2631539777      -0.0000000974     0.999997    0.00008570
  809       -6.2631540772      -0.0000000995     0.999997    0.00008673
  810       -6.2631541787      -0.0000001015     0.999997    0.00008778
  811       -6.2631542824      -0.0000001036     0.999997    0.00008885
  812       -6.2631543882      -0.0000001058     0.999997    0.00008995
  813       -6.2631544963      -0.0000001081     0.999997    0.00009106
  814       -6.2631546067      -0.0000001104     0.999997    0.00009220
  815       -6.2631547194      -0.0000001128     0.999997    0.00009336
  816       -6.2631548347      -0.0000001152     0.999997    0.00009455
  817       -6.2631549525      -0.0000001178     0.999997    0.00009576
  818       -6.2631550728      -0.0000001204     0.999997    0.00009700
  819       -6.2631551959      -0.0000001231     0.999997    0.00009826
  820       -6.2631553218      -0.0000001258     0.999997    0.00009955
  821       -6.2631554505      -0.0000001287     0.999997    0.00010087
  822       -6.2631555821      -0.0000001317     0.999997    0.00010222
  823       -6.2631557168      -0.0000001347     0.999997    0.00010360
  824       -6.2631558547      -0.0000001378     0.999997    0.00010501
  825       -6.2631559957      -0.0000001411     0.999997    0.00010645
  826       -6.2631561402      -0.0000001444     0.999997    0.00010792
  827       -6.2631562881      -0.0000001479     0.999997    0.00010943
  828       -6.2631564395      -0.0000001515     0.999997    0.00011097
  829       -6.2631565947      -0.0000001552     0.999997    0.00011254
  830       -6.2631567536      -0.0000001590     0.999997    0.00011416
  831       -6.2631569166      -0.0000001629     0.999997    0.00011581
  832       -6.2631570835      -0.0000001670     0.999997    0.00011750
  833       -6.2631572547      -0.0000001712     0.999997    0.00011923
  834       -6.2631574303      -0.0000001756     0.999997    0.00012100
  835       -6.2631576104      -0.0000001801     0.999997    0.00012281
  836       -6.2631577952      -0.0000001848     0.999997    0.00012467
  837       -6.2631579848      -0.0000001896     0.999997    0.00012658
  838       -6.2631581794      -0.0000001946     0.999997    0.00012853
  839       -6.2631583792      -0.0000001998     0.999997    0.00013053
  840       -6.2631585845      -0.0000002052     0.999997    0.00013258
  841       -6.2631587953      -0.0000002108     0.999997    0.00013469
  842       -6.2631590119      -0.0000002166     0.999997    0.00013684
  843       -6.2631592345      -0.0000002226     0.999997    0.00013906
  844       -6.2631594633      -0.0000002289     0.999997    0.00014133
  845       -6.2631596987      -0.0000002353     0.999997    0.00014366
  846       -6.2631599407      -0.0000002421     0.999997    0.00014606
  847       -6.2631601898      -0.0000002491     0.999997    0.00014852
  848       -6.2631604461      -0.0000002563     0.999997    0.00015104
  849       -6.2631607100      -0.0000002639     0.999997    0.00015364
  850       -6.2631609817      -0.0000002717     0.999997    0.00015631
  851       -6.2631612617      -0.0000002799     0.999997    0.00015905
  852       -6.2631615501      -0.0000002884     0.999997    0.00016187
  853       -6.2631618474      -0.0000002973     0.999997    0.00016477
  854       -6.2631621539      -0.0000003065     0.999997    0.00016775
  855       -6.2631624700      -0.0000003161     0.999997    0.00017082
  856       -6.2631627962      -0.0000003262     0.999997    0.00017398
  857       -6.2631631328      -0.0000003366     0.999997    0.00017723
  858       -6.2631634804      -0.0000003476     0.999997    0.00018058
  859       -6.2631638394      -0.0000003589     0.999997    0.00018403
  860       -6.2631642102      -0.0000003709     0.999997    0.00018759
  861       -6.2631645935      -0.0000003833     0.999997    0.00019126
  862       -6.2631649898      -0.0000003963     0.999997    0.00019504
  863       -6.2631653997      -0.0000004099     0.999997    0.00019894
  864       -6.2631658238      -0.0000004241     0.999997    0.00020296
  865       -6.2631662627      -0.0000004390     0.999997    0.00020712
  866       -6.2631667173      -0.0000004546     0.999997    0.00021141
  867       -6.2631671883      -0.0000004709     0.999997    0.00021584
  868       -6.2631676764      -0.0000004881     0.999997    0.00022042
  869       -6.2631681824      -0.0000005061     0.999997    0.00022516
  870       -6.2631687073      -0.0000005249     0.999997    0.00023005
  871       -6.2631692521      -0.0000005447     0.999997    0.00023512
  872       -6.2631698176      -0.0000005656     0.999997    0.00024036
  873       -6.2631704051      -0.0000005875     0.999997    0.00024578
  874       -6.2631710156      -0.0000006105     0.999997    0.00025140
  875       -6.2631716504      -0.0000006348     0.999997    0.00025723
  876       -6.2631723107      -0.0000006603     0.999997    0.00026326
  877       -6.2631729979      -0.0000006872     0.999997    0.00026952
  878       -6.2631737135      -0.0000007156     0.999997    0.00027602
  879       -6.2631744592      -0.0000007456     0.999997    0.00028276
  880       -6.2631752365      -0.0000007773     0.999997    0.00028977
  881       -6.2631760473      -0.0000008108     0.999996    0.00029704
  882       -6.2631768935      -0.0000008462     0.999996    0.00030461
  883       -6.2631777772      -0.0000008837     0.999996    0.00031247
  884       -6.2631787006      -0.0000009234     0.999996    0.00032066
  885       -6.2631796662      -0.0000009655     0.999996    0.00032919
  886       -6.2631806764      -0.0000010102     0.999996    0.00033807
  887       -6.2631817341      -0.0000010577     0.999996    0.00034733
  888       -6.2631828423      -0.0000011082     0.999996    0.00035698
  889       -6.2631840041      -0.0000011618     0.999996    0.00036706
  890       -6.2631852231      -0.0000012190     0.999996    0.00037758
  891       -6.2631865031      -0.0000012800     0.999996    0.00038858
  892       -6.2631878481      -0.0000013450     0.999996    0.00040008
  893       -6.2631892625      -0.0000014144     0.999996    0.00041211
  894       -6.2631907511      -0.0000014886     0.999996    0.00042470
  895       -6.2631923192      -0.0000015681     0.999996    0.00043790
  896       -6.2631939724      -0.0000016532     0.999996    0.00045174
  897       -6.2631957170      -0.0000017445     0.999996    0.00046626
  898       -6.2631975596      -0.0000018426     0.999996    0.00048151
  899       -6.2631995076      -0.0000019480     0.999996    0.00049753
  900       -6.2632015692      -0.0000020615     0.999996    0.00051439
  901       -6.2632037531      -0.0000021839     0.999996    0.00053214
  902       -6.2632060690      -0.0000023159     0.999996    0.00055084
  903       -6.2632085277      -0.0000024587     0.999996    0.00057057
  904       -6.2632111409      -0.0000026132     0.999996    0.00059139
  905       -6.2632139215      -0.0000027806     0.999996    0.00061339
  906       -6.2632168839      -0.0000029624     0.999996    0.00063666
  907       -6.2632200441      -0.0000031601     0.999996    0.00066131
  908       -6.2632234195      -0.0000033755     0.999996    0.00068743
  909       -6.2632270299      -0.0000036104     0.999995    0.00071515
  910       -6.2632308970      -0.0000038671     0.999995    0.00074460
  911       -6.2632350453      -0.0000041483     0.999995    0.00077592
  912       -6.2632395019      -0.0000044567     0.999995    0.00080928
  913       -6.2632442977      -0.0000047957     0.999995    0.00084485
  914       -6.2632494668      -0.0000051692     0.999995    0.00088284
  915       -6.2632550483      -0.0000055815     0.999995    0.00092346
  916       -6.2632610860      -0.0000060376     0.999995    0.00096695
  917       -6.2632676295      -0.0000065435     0.999995    0.00101359
  918       -6.2632747355      -0.0000071060     0.999995    0.00106369
  919       -6.2632824683      -0.0000077329     0.999995    0.00111759
  920       -6.2632909018      -0.0000084335     0.999995    0.00117567
  921       -6.2633001205      -0.0000092187     0.999994    0.00123836
  922       -6.2633102218      -0.0000101013     0.999994    0.00130616
  923       -6.2633213182      -0.0000110964     0.999994    0.00137963
  924       -6.2633335401      -0.0000122219     0.999994    0.00145938
  925       -6.2633470394      -0.0000134993     0.999994    0.00154613
  926       -6.2633619935      -0.0000149541     0.999994    0.00164071
  927       -6.2633786107      -0.0000166172     0.999993    0.00174403
  928       -6.2633971364      -0.0000185257     0.999993    0.00185717
  929       -6.2634178612      -0.0000207248     0.999993    0.00198134
  930       -6.2634411308      -0.0000232695     0.999993    0.00211797
  931       -6.2634673581      -0.0000262273     0.999992    0.00226866
  932       -6.2634970395      -0.0000296814     0.999992    0.00243531
  933       -6.2635307743      -0.0000337348     0.999992    0.00262008
  934       -6.2635692903      -0.0000385159     0.999991    0.00282551
  935       -6.2636134756      -0.0000441853     0.999991    0.00305450
  936       -6.2636644209      -0.0000509453     0.999990    0.00331048
  937       -6.2637234725      -0.0000590517     0.999990    0.00359737
  938       -6.2637923021      -0.0000688296     0.999989    0.00391974
  939       -6.2638729963      -0.0000806942     0.999988    0.00428286
  940       -6.2639681734      -0.0000951771     0.999987    0.00469276
  941       -6.2640811339      -0.0001129605     0.999986    0.00515628
  942       -6.2642160544      -0.0001349205     0.999985    0.00568105
  943       -6.2643782334      -0.0001621791     0.999983    0.00627534
  944       -6.2645743983      -0.0001961648     0.999982    0.00694778
  945       -6.2648130724      -0.0002386741     0.999980    0.00770670
  946       -6.2651049904      -0.0002919180     0.999977    0.00855901
  947       -6.2654635112      -0.0003585208     0.999975    0.00950826
  948       -6.2659049148      -0.0004414036     0.999971    0.01055169
  949       -6.2664483584      -0.0005434436     0.999968    0.01167581
  950       -6.2671151019      -0.0006667435     0.999963    0.01285040
  951       -6.2679264204      -0.0008113185     0.999959    0.01402149
  952       -6.2688995224      -0.0009731020     0.999955    0.01510486
  953       -6.2700410564      -0.0011415340     0.999950    0.01598403
  954       -6.2713388310      -0.0012977746     0.999947    0.01651854
  955       -6.2727543692      -0.0014155382     0.999945    0.01656864
  956       -6.2742210553      -0.0014666861     0.999944    0.01603661
  957       -6.2756525486      -0.0014314933     0.999944    0.01491229
  958       -6.2769615633      -0.0013090147     0.999944    0.01420351
  959       -6.2780817267      -0.0011201634     0.999944    0.01317875
  960       -6.2789816260      -0.0008998993     0.999944    0.01182109
  961       -6.2796649785      -0.0006833524     0.999943    0.01029599
  962       -6.2801598724      -0.0004948939     0.999942    0.00875761
  963       -6.2805049340      -0.0003450616     0.999941    0.00731794
  964       -6.2807386043      -0.0002336703     0.999940    0.00603950
  965       -6.2808934417      -0.0001548375     0.999938    0.00494433
  966       -6.2809944443      -0.0001010026     0.999937    0.00402826
  967       -6.2810596105      -0.0000651661     0.999936    0.00327353
  968       -6.2811013476      -0.0000417372     0.999934    0.00269878
  969       -6.2811279577      -0.0000266101     0.999934    0.00223747
  970       -6.2811448823      -0.0000169246     0.999933    0.00184585
  971       -6.2811556384      -0.0000107561     0.999932    0.00151779
  972       -6.2811624774      -0.0000068391     0.999931    0.00124539
  973       -6.2811668321      -0.0000043547     0.999931    0.00102052
  974       -6.2811696109      -0.0000027788     0.999930    0.00083560
  975       -6.2811713888      -0.0000017779     0.999930    0.00068390
  976       -6.2811725298      -0.0000011409     0.999930    0.00055963
  977       -6.2811732643      -0.0000007346     0.999930    0.00045793
  978       -6.2811737388      -0.0000004745     0.999929    0.00037474
  979       -6.2811740464      -0.0000003076     0.999929    0.00030669
  980       -6.2811742464      -0.0000002000     0.999929    0.00025104
  981       -6.2811743769      -0.0000001305     0.999929    0.00020552
  982       -6.2811744623      -0.0000000854     0.999929    0.00016829
  983       -6.2811745184      -0.0000000561     0.999929    0.00013782
  984       -6.2811745553      -0.0000000369     0.999929    0.00011289
  985       -6.2811745796      -0.0000000243     0.999929    0.00009248
  986       -6.2811745957      -0.0000000161     0.999929    0.00007578
  987       -6.2811746064      -0.0000000107     0.999929    0.00006210
  988       -6.2811746135      -0.0000000071     0.999929    0.00005089
  989       -6.2811746182      -0.0000000047     0.999929    0.00004172
  990       -6.2811746214      -0.0000000031     0.999929    0.00003420
  991       -6.2811746234      -0.0000000021     0.999929    0.00002804
  992       -6.2811746248      -0.0000000014     0.999929    0.00002299
  993       -6.2811746258      -0.0000000009     0.999929    0.00001885
  994       -6.2811746264      -0.0000000006     0.999929    0.00001546
  995       -6.2811746268      -0.0000000004     0.999929    0.00001268
  996       -6.2811746271      -0.0000000003     0.999929    0.00001040
  997       -6.2811746273      -0.0000000002     0.999929    0.00000853
  998       -6.2811746274      -0.0000000001     0.999929    0.00000700
  999       -6.2811746275      -0.0000000001     0.999929    0.00000574
 1000       -6.2811746276      -0.0000000001     0.999929    0.00000471

Total Energy:                       -6.2811746276 H         -170.9195 eV
Extrapolated to 0:                  -6.2444221016 H         -169.9194 eV

----------------------------------------------------------------------------------
 Solving CP-REKS equation for  1 state vector...
----------------------------------------------------------------------------------
  CG solver: Constructing Y initial guess
  CG solver: Iteration    1    eps =    0.008181185118
  CG solver: Iteration    2    eps =    0.000823328824
  CG solver: Iteration    3    eps =    0.000370818790
  CG solver: Iteration    4    eps =    0.000017665321
  CG solver: Iteration    5    eps =    0.000005794484
  CG solver: Iteration    6    eps =    0.000000611539
  CG solver: Iteration    7    eps =    0.000000008407
  Convergence reached in CG solver after    7 iterations
  CG solver: Calculating converged R, Z, Q2 matrix
----------------------------------------------------------------------------------

----------------------------------------------------------------------------------
 Solving CP-REKS equation for SI between  1 and  2 state vectors...
----------------------------------------------------------------------------------
  CG solver: Constructing Y initial guess
  CG solver: Iteration    1    eps =    0.000517395988
  CG solver: Iteration    2    eps =    0.000208542592
  CG solver: Iteration    3    eps =    0.000010244874
  CG solver: Iteration    4    eps =    0.000000274937
  CG solver: Iteration    5    eps =    0.000000051218
  CG solver: Iteration    6    eps =    0.000000003614
  Convergence reached in CG solver after    6 iterations
  CG solver: Calculating converged R, Z, Q2 matrix
----------------------------------------------------------------------------------

--------------------------------------------------
 Gradient Information
--------------------------------------------------
           1 st state (SSR)
     0.00000000     0.00000000     0.00000000
     0.00000000     0.00000000     0.00000000
     0.00000000     0.00000000     0.00000000
     0.00000000     0.00000000     0.00000000
     0.00000000     0.00000000     0.00000000
     0.00000000     0.00000000     0.00000000

           2 st state (SSR)
     0.00000000     0.00000000     0.00000000
     0.00000000     0.00000000     0.00000000
     0.00000000     0.00000000     0.00000000
     0.00000000     0.00000000     0.00000000
     0.00000000     0.00000000     0.00000000
     0.00000000     0.00000000     0.00000000
--------------------------------------------------
 Coupling Information
--------------------------------------------------
 between  1 and  2 states
--------------------------------------------------
 g vector - difference gradient
    -0.10719193     0.52549865     0.13689880
     0.17732963     0.48487461     0.36365390
    -0.02478723     0.14971057    -0.19681002
     0.07994162    -0.52188165     0.02294655
    -0.14122993    -0.51294485    -0.14790829
     0.01593784    -0.12525734    -0.17878094

 h vector - derivative coupling
     0.01469332    -0.00409164     0.00044425
    -0.01163453     0.00260484    -0.00049492
    -0.00495565    -0.00509682     0.00028128
     0.00341403     0.00507667     0.00090362
     0.00298205    -0.00617875    -0.00113628
    -0.00449922     0.00768571     0.00000205

 G vector - GDV
     0.00000000     0.00000000     0.00000000
     0.00000000     0.00000000     0.00000000
     0.00000000     0.00000000     0.00000000
     0.00000000     0.00000000     0.00000000
     0.00000000     0.00000000     0.00000000
     0.00000000     0.00000000     0.00000000

 H vector - DCV - non-adiabatic coupling
     0.00000000     0.00000000     0.00000000
     0.00000000     0.00000000     0.00000000
     0.00000000     0.00000000     0.00000000
     0.00000000     0.00000000     0.00000000
     0.00000000     0.00000000     0.00000000
     0.00000000     0.00000000     0.00000000
--------------------------------------------------

WARNING!
-> SCC is NOT converged, maximal SCC iterations exceeded

--------------------------------------------------------------------------------
DFTB+ running times                          cpu [s]             wall clock [s]
--------------------------------------------------------------------------------
SCC                                    +     0.40  ( 97.3%)      0.40  ( 95.2%)
      Sparse to dense                        0.02  (  4.8%)      0.03  (  7.1%)
      Dense to sparse                        0.07  ( 16.1%)      0.06  ( 13.8%)
      Range separated Hamiltonian            0.03  (  6.7%)      0.02  (  4.3%)
  Density matrix creation                    0.05  ( 12.4%)      0.04  (  8.6%)
  Force calculation                          0.01  (  2.5%)      0.01  (  2.6%)
--------------------------------------------------------------------------------
Missing                                +     0.01  (  2.7%)      0.02  (  4.8%)
Total                                  =     0.41  (100.0%)      0.42  (100.0%)
--------------------------------------------------------------------------------
