|===============================================================================
|
|  DFTB+ release 20.1
|
|  Copyright (C) 2006 - 2020  DFTB+ developers group
|
|===============================================================================
|
|  When publishing results obtained with DFTB+, please cite the following
|  reference:
|
|  * DFTB+, a software package for efficient approximate density functional
|    theory based atomistic simulations, J. Chem. Phys. 152, 124101 (2020).
|    [doi: 10.1063/1.5143190]
|
|  You should also cite additional publications crediting the parametrization
|  data you use. Please consult the documentation of the SK-files for the
|  references.
|
|===============================================================================

Reading input file 'dftb_in.hsd'
Parser version: 8

--------------------------------------------------------------------------------
Reading SK-files:
Done.


Processed input in HSD format written to 'dftb_pin.hsd'

Starting initialization...
--------------------------------------------------------------------------------
OpenMP threads:              1
Chosen random seed:          449652629
Mode:                        Static calculation
Self consistent charges:     Yes
SCC-tolerance:                 0.100000E-05
Max. scc iterations:                   1000
Shell resolved Hubbard:      No
Spin polarisation:           No
Nr. of up electrons:             6.000000
Nr. of down electrons:           6.000000
Periodic boundaries:         No
Electronic solver:           Relatively robust
Maximal SCC-cycles:                    1000
Initial charges:             Set automatically (system chrg:   0.100E+01)
Included shells:             C:  s, p
                             N:  s, p
                             H:  s
Spin coupling constants:     C   1(s)-1(s):  -0.455900E-01
                             C   1(s)-2(p):  -0.293000E-01
                             C   2(p)-1(s):  -0.293000E-01
                             C   2(p)-2(p):  -0.275500E-01
                             N   1(s)-1(s):  -0.468700E-01
                             N   1(s)-2(p):  -0.317000E-01
                             N   2(p)-1(s):  -0.317000E-01
                             N   2(p)-2(p):  -0.307200E-01
                             H   1(s)-1(s):  -0.792500E-01
Range separated hybrid:      Yes
  Screening parameter omega:   0.300000E+00
  Range separated algorithm:   MatrixBased
Extra options:
                             Mulliken analysis
                             Force calculation
Force type                   original
                             Eigenvector printing


REKS Calcuation:             Yes
SSR(2,2) Calcuation:         Yes
Energy Functional:           (PPS+OSS)/2
Number of Core Orbitals:                  5
Number of Active Orbitals:                2
Number of Basis:                         12
Number of States:                         2
State-Averaging Weight:          0.500000
                                 0.500000
State of Interest:                        1
Initial Guess:               Diagonalize H0 matrix
Newton-Raphson for FON opt:  Yes
NR max. Iterations:                      50
Level Shifting:              Yes
Shift Value:                     0.300000
W Scale Factor:              C  =    3.200000
                             N  =    3.200000
                             H  =    3.200000
Transition Dipole:           No
Gradient of Microstate:      No
CP-REKS Solver:              Preconditioned Conjugate-Gradient
CG max. Iterations:                     100
CG Tolerance:                  0.100000E-07
Memory for A and Hxc:        Direct Updating Without Saving
Non-Adiabatic Coupling:      Yes

--------------------------------------------------------------------------------

***  Geometry step: 0

  iSCC       reks energy        Diff energy         x_a       SCC error   
    1       -6.1597184390       0.0000000000     0.982523    0.96825964
    2       -6.1674894767      -0.0077710378     0.993629    0.04796320
    3       -6.1697634868      -0.0022740100     0.997152    0.01712257
    4       -6.1707770989      -0.0010136121     0.998485    0.01238630
    5       -6.1713303830      -0.0005532841     0.999084    0.00962463
    6       -6.1716758640      -0.0003454811     0.999392    0.00774328
    7       -6.1719091436      -0.0002332796     0.999568    0.00638018
    8       -6.1720728577      -0.0001637141     0.999675    0.00533159
    9       -6.1721896087      -0.0001167510     0.999745    0.00448601
   10       -6.1722732539      -0.0000836451     0.999792    0.00378352
   11       -6.1723331342      -0.0000598803     0.999825    0.00319074
   12       -6.1723758681      -0.0000427340     0.999848    0.00268738
   13       -6.1724062451      -0.0000303769     0.999866    0.00225942
   14       -6.1724277505      -0.0000215055     0.999879    0.00189608
   15       -6.1724429171      -0.0000151666     0.999889    0.00158835
   16       -6.1724535762      -0.0000106591     0.999896    0.00132843
   17       -6.1724610445      -0.0000074684     0.999902    0.00110950
   18       -6.1724662634      -0.0000052189     0.999907    0.00092555
   19       -6.1724699021      -0.0000036387     0.999911    0.00077133
   20       -6.1724724342      -0.0000025320     0.999914    0.00064227
   21       -6.1724741932      -0.0000017591     0.999916    0.00053444
   22       -6.1724754136      -0.0000012204     0.999918    0.00044446
   23       -6.1724762592      -0.0000008456     0.999920    0.00036946
   24       -6.1724768447      -0.0000005854     0.999921    0.00030701
   25       -6.1724772496      -0.0000004049     0.999922    0.00025503
   26       -6.1724775295      -0.0000002799     0.999923    0.00021181
   27       -6.1724777228      -0.0000001934     0.999924    0.00017588
   28       -6.1724778563      -0.0000001335     0.999924    0.00014602
   29       -6.1724779485      -0.0000000921     0.999925    0.00012121
   30       -6.1724780121      -0.0000000636     0.999925    0.00010062
   31       -6.1724780559      -0.0000000439     0.999926    0.00008351
   32       -6.1724780862      -0.0000000302     0.999926    0.00006931
   33       -6.1724781070      -0.0000000209     0.999926    0.00005752
   34       -6.1724781214      -0.0000000144     0.999926    0.00004774
   35       -6.1724781313      -0.0000000099     0.999926    0.00003962
   36       -6.1724781381      -0.0000000068     0.999927    0.00003288
   37       -6.1724781429      -0.0000000047     0.999927    0.00002729
   38       -6.1724781461      -0.0000000032     0.999927    0.00002264
   39       -6.1724781483      -0.0000000022     0.999927    0.00001879
   40       -6.1724781499      -0.0000000015     0.999927    0.00001559
   41       -6.1724781509      -0.0000000011     0.999927    0.00001294
   42       -6.1724781517      -0.0000000007     0.999927    0.00001074
   43       -6.1724781522      -0.0000000005     0.999927    0.00000891
   44       -6.1724781525      -0.0000000003     0.999927    0.00000740
   45       -6.1724781527      -0.0000000002     0.999927    0.00000614
   46       -6.1724781529      -0.0000000002     0.999927    0.00000509
   47       -6.1724781530      -0.0000000001     0.999927    0.00000423
   48       -6.1724781531      -0.0000000001     0.999927    0.00000351
   49       -6.1724781532      -0.0000000001     0.999927    0.00000291
   50       -6.1724781532      -0.0000000000     0.999927    0.00000242
   51       -6.1724781532      -0.0000000000     0.999927    0.00000201
   52       -6.1724781532      -0.0000000000     0.999927    0.00000166
   53       -6.1724781533      -0.0000000000     0.999927    0.00000138
   54       -6.1724781533      -0.0000000000     0.999927    0.00000115
   55       -6.1724781533      -0.0000000000     0.999927    0.00000095
  
--------------------------------------------------
 Final SA-REKS(2,2) energy:      -6.17247815
  
 State     Energy      FON(1)    FON(2)   Spin
  PPS   -6.20960861   1.999854  0.000146  0.00
  OSS   -6.13534770   1.000000  1.000000  0.00
 Trip   -6.18087087   1.000000  1.000000  1.00
--------------------------------------------------

 Lagrangian Wab:   0.02509667  0.02509704

--------------------------------------------------
 SSR: 2SI-2SA-REKS(2,2) Hamiltonian matrix
               PPS           OSS
   PPS    -6.20960861    0.03518779
   OSS     0.03518779   -6.13534770
--------------------------------------------------

----------------------------------------------------------------
 SSR: 2SI-2SA-REKS(2,2) states
                    E_n       C_{PPS}    C_{OSS}
 SSR state  1   -6.22363332  -0.928935   0.370243
 SSR state  2   -6.12132298  -0.370243  -0.928935
----------------------------------------------------------------

 unrelaxed SSR FONs for S0:  1.862794  0.137206

Total Energy:                       -6.2236333231 H         -169.3537 eV
Extrapolated to 0:                  -6.2236333231 H         -169.3537 eV

----------------------------------------------------------------------------------
 Solving CP-REKS equation for  1 state vector...
----------------------------------------------------------------------------------
  CG solver: Constructing Y initial guess
  CG solver: Iteration    1    eps =    0.004529966516
  CG solver: Iteration    2    eps =    0.000639393840
  CG solver: Iteration    3    eps =    0.000025191265
  CG solver: Iteration    4    eps =    0.000003101961
  CG solver: Iteration    5    eps =    0.000000112200
  CG solver: Iteration    6    eps =    0.000000010000
  CG solver: Iteration    7    eps =    0.000000000798
  Convergence reached in CG solver after    7 iterations
  CG solver: Calculating converged R, Z, Q2 matrix
----------------------------------------------------------------------------------

----------------------------------------------------------------------------------
 Solving CP-REKS equation for SI between  1 and  2 state vectors...
----------------------------------------------------------------------------------
  CG solver: Constructing Y initial guess
  CG solver: Iteration    1    eps =    0.012840046375
  CG solver: Iteration    2    eps =    0.003743080662
  CG solver: Iteration    3    eps =    0.000142085742
  CG solver: Iteration    4    eps =    0.000019183782
  CG solver: Iteration    5    eps =    0.000000792761
  CG solver: Iteration    6    eps =    0.000000055175
  CG solver: Iteration    7    eps =    0.000000002110
  Convergence reached in CG solver after    7 iterations
  CG solver: Calculating converged R, Z, Q2 matrix
----------------------------------------------------------------------------------

--------------------------------------------------
 Gradient Information
--------------------------------------------------
           1 st state (SSR)
    -0.08196397    -0.15403585    -0.03207331
     0.08077780     0.07977448    -0.01077591
    -0.00032070     0.07428935     0.04242138
    -0.06507492    -0.03039142    -0.03489416
     0.01315778     0.03524484     0.08679397
     0.05342400    -0.00488141    -0.05147196

           2 st state (SSR)
    -0.05424506    -0.08219580     0.05673546
     0.04352620     0.06125139    -0.07789946
     0.02125627     0.05502389     0.03039517
    -0.02955134    -0.05998207    -0.03782341
    -0.00229503     0.05319122     0.08179840
     0.02130896    -0.02728863    -0.05320616
--------------------------------------------------
 Coupling Information
--------------------------------------------------
 between  1 and  2 states
--------------------------------------------------
 g vector - difference gradient
     0.00328584    -0.00578147    -0.08842238
    -0.00419678     0.00210445     0.05930881
    -0.01679151    -0.00448564     0.00595662
    -0.01772145     0.01062570     0.01479501
     0.01913049    -0.01179084     0.00442627
     0.01629342     0.00932779     0.00393566

 h vector - derivative coupling
     0.02361578     0.04611902    -0.02875001
    -0.03150622    -0.01124357     0.01379186
    -0.00203451    -0.01873712    -0.00245623
     0.00712184    -0.01029676     0.01348259
     0.00895419     0.00060321     0.00103943
    -0.00615109    -0.00644478     0.00289237

 G vector - GDV
    -0.01385945    -0.03592002    -0.04440439
     0.01862580     0.00926154     0.03356177
    -0.01078848     0.00963273     0.00601310
    -0.01776179     0.01479532     0.00146463
     0.00772641    -0.00897319     0.00249778
     0.01605752     0.01120361     0.00086710

 H vector - DCV - non-adiabatic coupling
     0.18963366     0.28832035    -0.79845748
    -0.25173689    -0.06561856     0.49659755
    -0.12732827    -0.16308864     0.02262250
    -0.06862090    -0.00161040     0.19512350
     0.19214558    -0.07499393     0.03713339
     0.06590684     0.01699118     0.04698054
--------------------------------------------------


--------------------------------------------------------------------------------
DFTB+ running times                          cpu [s]             wall clock [s]
--------------------------------------------------------------------------------
SCC                                    +     0.02  ( 67.5%)      0.03  ( 64.3%)
Post-SCC processing                    +     0.01  ( 28.1%)      0.01  ( 26.2%)
  Force calculation                          0.01  ( 27.4%)      0.01  ( 23.8%)
--------------------------------------------------------------------------------
Missing                                +     0.00  (  4.4%)      0.00  (  9.5%)
Total                                  =     0.04  (100.0%)      0.04  (100.0%)
--------------------------------------------------------------------------------
