 Fermi distribution function

Calculation with static geometry


********************************************************************************
 iSCC Total electronic   Diff electronic      SCC error    
   11   -0.53477437E+01   -0.69189099E-12    0.96659696E-07
********************************************************************************

 Total charge:     1.00000000

 Atomic gross charges (e)
 Atom           Charge
    1       0.25201098
    2      -0.13381862
    3       0.17597277
    4       0.26451732
    5       0.26366931
    6       0.17764824

Nr. of electrons (up):     12.00000000
Atom populations (up)
 Atom       Population
    1       3.74798902
    2       5.13381862
    3       0.82402723
    4       0.73548268
    5       0.73633069
    6       0.82235176

l-shell populations (up)
 Atom Sh.   l       Population
    1   1   0       1.35555197
    1   2   1       2.39243705
    2   1   0       1.48843928
    2   2   1       3.64537934
    3   1   0       0.82402723
    4   1   0       0.73548268
    5   1   0       0.73633069
    6   1   0       0.82235176

Orbital populations (up)
 Atom Sh.   l   m       Population  Label
    1   1   0   0       1.35555197  s
    1   2   1  -1       0.48887945  p_y
    1   2   1   0       0.88938284  p_z
    1   2   1   1       1.01417477  p_x
    2   1   0   0       1.48843928  s
    2   2   1  -1       1.34389758  p_y
    2   2   1   0       1.13930011  p_z
    2   2   1   1       1.16218164  p_x
    3   1   0   0       0.82402723  s
    4   1   0   0       0.73548268  s
    5   1   0   0       0.73633069  s
    6   1   0   0       0.82235176  s

Fermi level:                        -0.5269020828 H          -14.3377 eV
Band energy:                        -8.8690576559 H         -241.3393 eV
TS:                                  0.0000000000 H            0.0000 eV
Band free energy (E-TS):            -8.8690576559 H         -241.3393 eV
Extrapolated E(0K):                 -8.8690576559 H         -241.3393 eV
Input / Output electrons (q):     12.0000000000     12.0000000000

Energy H0:                          -5.4857519765 H         -149.2749 eV
Energy SCC:                          0.1380083043 H            3.7554 eV
Total Electronic energy:            -5.3477436722 H         -145.5195 eV
Repulsive energy:                    0.1684560387 H            4.5839 eV
Total energy:                       -5.1792876335 H         -140.9356 eV
Extrapolated to 0:                  -5.1792876335 H         -140.9356 eV
Total Mermin free energy:           -5.1792876335 H         -140.9356 eV
Force related energy:               -5.1792876335 H         -140.9356 eV

SCC converged

Excitation Energy:                   0.1582566914 H            4.3064 eV

Total Forces
    1     -0.005041175868     -0.008958740447      0.012408537987
    2     -0.012630730253      0.008334510630     -0.004438516397
    3      0.018582122722      0.003966714185     -0.018933088801
    4      0.000529821020      0.001118223392      0.000924815786
    5     -0.000965822390     -0.007898149843      0.010902312923
    6     -0.000474215232      0.003437442082     -0.000864061499

Maximal derivative component:        0.189331E-01 au


