    14
  Step:     0            Position(A)                                  Velocity(au)
C        -6.01461157    -0.80925892    -0.04900600     0.00004585     0.00004806     0.00013649
C        -4.64463937    -0.74894072     0.12497737     0.00014968    -0.00000807    -0.00009263
H        -6.45032720     0.12191191    -0.48069204    -0.00064718     0.00041997    -0.00072787
H        -6.66124144    -1.71887925     0.13842224    -0.00035848     0.00021756    -0.00056842
H        -4.09014656    -1.64110548     0.56859952    -0.00008144    -0.00001544     0.00013716
C        -3.94590959     0.45360372    -0.12220117    -0.00009901    -0.00010813     0.00013511
C        -2.60008567     0.58295111     0.12430741    -0.00002690    -0.00014723    -0.00006440
H        -4.48380507     1.40109136    -0.41363776     0.00017581    -0.00054295     0.00005929
H        -2.06426905    -0.33196338     0.46063970    -0.00136205     0.00119520    -0.00018454
C        -1.79759150     1.75956310    -0.00073761     0.00025089     0.00007959     0.00000972
H        -2.27314003     2.72727122    -0.33847546    -0.00018678     0.00035903    -0.00086438
N        -0.54741976     1.72642192     0.25910605    -0.00004837    -0.00003087     0.00014407
H         0.14256939     2.51629707     0.12971890    -0.00095420     0.00034352    -0.00027748
H        -0.04697073     0.82418781     0.42698200     0.00026725     0.00006998    -0.00105681
    14
  Step:     1            Position(A)                                  Velocity(au)
C        -6.01426401    -0.80873561    -0.04757630     0.00001666     0.00004967     0.00012338
C        -4.64290978    -0.74914815     0.12406460     0.00016542    -0.00002994    -0.00007408
H        -6.45774178     0.12546435    -0.48823218    -0.00069231     0.00020958    -0.00063821
H        -6.66420687    -1.71518767     0.13204303    -0.00018369     0.00045116    -0.00059315
H        -4.09166322    -1.63996234     0.56921966    -0.00019216     0.00022023    -0.00002305
C        -3.94745366     0.45251547    -0.12080727    -0.00018215    -0.00009136     0.00011978
C        -2.59980417     0.58137067     0.12370183     0.00007627    -0.00013617    -0.00004792
H        -4.48174214     1.39377619    -0.41289582     0.00019089    -0.00077791     0.00007205
H        -2.07938646    -0.31826444     0.45842678    -0.00136492     0.00125445    -0.00019909
C        -1.79555990     1.76045475    -0.00078900     0.00011807     0.00008275    -0.00001992
H        -2.27444059     2.73005492    -0.34739289    -0.00004277     0.00013771    -0.00075810
N        -0.54723319     1.72608981     0.26078224     0.00008136    -0.00002950     0.00016213
H         0.13035363     2.51883734     0.12682636    -0.00125889     0.00013227    -0.00025111
H        -0.04501143     0.82611847     0.41532879     0.00009810     0.00027242    -0.00106860
    14
  Step:     2            Position(A)                                  Velocity(au)
C        -6.01424707    -0.80817234    -0.04630690    -0.00001378     0.00005532     0.00010740
C        -4.64102039    -0.74959574     0.12335667     0.00017852    -0.00005101    -0.00005563
H        -6.46547290     0.12649696    -0.49465405    -0.00070774    -0.00003306    -0.00052666
H        -6.66526009    -1.70900919     0.12544595    -0.00001439     0.00066448    -0.00060690
H        -4.09435045    -1.63628752     0.56809535    -0.00029097     0.00043984    -0.00017780
C        -3.94989436     0.45160497    -0.11958079    -0.00026223    -0.00007662     0.00010489
C        -2.59841705     0.57997219     0.12325902     0.00017405    -0.00011330    -0.00003512
H        -4.47962898     1.38407320    -0.41206157     0.00018105    -0.00097172     0.00007380
H        -2.09412936    -0.30451998     0.45628425    -0.00128882     0.00119519    -0.00016786
C        -1.79500843     1.76137349    -0.00117343    -0.00001644     0.00008379    -0.00005030
H        -2.27407573     2.73028395    -0.35506034     0.00011217    -0.00009921    -0.00063914
N        -0.54563985     1.72577665     0.26265302     0.00020512    -0.00002750     0.00017922
H         0.11502876     2.51919068     0.12422541    -0.00150932    -0.00004187    -0.00022662
H        -0.04482467     0.83014746     0.40360423    -0.00004886     0.00044180    -0.00106813
    14
  Step:     3            Position(A)                                  Velocity(au)
C        -6.01456548    -0.80752546    -0.04522679    -0.00004389     0.00006487     0.00008901
C        -4.63900436    -0.75026405     0.12284750     0.00018828    -0.00006930    -0.00003820
H        -6.47322484     0.12474105    -0.49975384    -0.00069908    -0.00029243    -0.00039996
H        -6.66452178    -1.70065088     0.11876585     0.00013834     0.00084210    -0.00060718
H        -4.09802880    -1.63033990     0.56533000    -0.00036886     0.00062807    -0.00031899
C        -3.95319037     0.45083923    -0.11851271    -0.00033789    -0.00006586     0.00009118
C        -2.59599647     0.57889198     0.12293361     0.00026440    -0.00007781    -0.00002674
H        -4.47778132     1.37251793    -0.41128126     0.00013875    -0.00110935     0.00005993
H        -2.10758194    -0.29211733     0.45475461    -0.00112813     0.00100679    -0.00008542
C        -1.79591961     1.76228789    -0.00188936    -0.00014627     0.00008123    -0.00007968
H        -2.27198665     2.72788441    -0.36137533     0.00026696    -0.00033418    -0.00051425
N        -0.54274571     1.72548810     0.26470302     0.00031583    -0.00002513     0.00019457
H         0.09733443     2.51792129     0.12186857    -0.00168043    -0.00015061    -0.00020914
H        -0.04608041     0.83578368     0.39196145    -0.00015843     0.00055558    -0.00105262
    14
  Step:     4            Position(A)                                  Velocity(au)
C        -6.01520734    -0.80675308    -0.04435969    -0.00007226     0.00007814     0.00006871
C        -4.63690140    -0.75111184     0.12252108     0.00019420    -0.00008285    -0.00002265
H        -6.48076668     0.12009950    -0.50340398    -0.00067248    -0.00055286    -0.00026522
H        -6.66223359    -1.69058660     0.11216271     0.00026374     0.00096924    -0.00059193
H        -4.10242003    -1.62254721     0.56111692    -0.00041692     0.00076964    -0.00043844
C        -3.95728630     0.45016413    -0.11758614    -0.00040791    -0.00006088     0.00007932
C        -2.59263273     0.57826998     0.12267398     0.00034617    -0.00003020    -0.00002305
H        -4.47659348     1.35980399    -0.41075040     0.00005760    -0.00117778     0.00002630
H        -2.11880926    -0.28249445     0.45441552    -0.00088689     0.00069428     0.00004767
C        -1.79820829     1.76315047    -0.00291650    -0.00026567     0.00007363    -0.00010643
H        -2.26823554     2.72297307    -0.36631053     0.00041057    -0.00054973    -0.00039050
N        -0.53873042     1.72522688     0.26690962     0.00040748    -0.00002266     0.00020765
H         0.07826611     2.51589570     0.11965007    -0.00175203    -0.00016866    -0.00020391
H        -0.04829072     0.84230182     0.38057614    -0.00021771     0.00059469    -0.00102087
    14
  Step:     5            Position(A)                                  Velocity(au)
C        -6.01614631    -0.80581604    -0.04372358    -0.00009763     0.00009478     0.00004707
C        -4.63475589    -0.75207661     0.12235206     0.00019587    -0.00008987    -0.00000978
H        -6.48793654     0.11264618    -0.50555615    -0.00063447    -0.00079877    -0.00012983
H        -6.65875206    -1.67944690     0.10581627     0.00035187     0.00103247    -0.00055962
H        -4.10714974    -1.61350247     0.55573832    -0.00042682     0.00085009    -0.00052838
C        -3.96211426     0.44950739    -0.11677738    -0.00047112    -0.00006298     0.00006986
C        -2.58842335     0.57823140     0.12242943     0.00041907     0.00002708    -0.00002354
H        -4.47652118     1.34675178    -0.41070592    -0.00006646    -0.00116815    -0.00003010
H        -2.12698444    -0.27692856     0.45579752    -0.00058146     0.00028408     0.00022236
C        -1.80173157     1.76389868    -0.00421766    -0.00037000     0.00005977    -0.00012915
H        -2.26300459     2.71585810    -0.36991816     0.00053221    -0.00072830    -0.00027535
N        -0.53383127     1.72499242     0.26924584     0.00047596    -0.00002033     0.00021822
H         0.05900541     2.51423161     0.11740765    -0.00171257    -0.00007845    -0.00021539
H        -0.05084331     0.84879367     0.36962792    -0.00021795     0.00054662    -0.00097351
    14
  Step:     6            Position(A)                                  Velocity(au)
C        -6.01734328    -0.80467969    -0.04332998    -0.00011891     0.00011421     0.00002472
C        -4.63261627    -0.75307792     0.12230713     0.00019286    -0.00008907    -0.00000021
H        -6.49464694     0.10262495    -0.50624422    -0.00059211    -0.00101465    -0.00000143
H        -6.65453577    -1.66799939     0.09991984     0.00039484     0.00102122    -0.00050946
H        -4.11175746    -1.60394990     0.54955767    -0.00039167     0.00085720    -0.00058222
C        -3.96759303     0.44878632    -0.11605775    -0.00052612    -0.00007253     0.00006313
C        -2.58346471     0.57886236     0.12215898     0.00048328     0.00008939    -0.00002699
H        -4.47804733     1.33424846    -0.41140890    -0.00023366    -0.00107834    -0.00011025
H        -2.13152988    -0.27627976     0.45928012    -0.00023950    -0.00017618     0.00042067
C        -1.80630277     1.76445799    -0.00574187    -0.00045587     0.00003884    -0.00014676
H        -2.25659245     2.70704020    -0.37233426     0.00062162    -0.00085268    -0.00017652
N        -0.52831778     1.72478217     0.27168364     0.00051971    -0.00001817     0.00022627
H         0.04080044     2.51417942     0.11493802    -0.00156339     0.00012340    -0.00024586
H        -0.05305886     0.85426011     0.35927869    -0.00015668     0.00040907    -0.00091315
    14
  Step:     7            Position(A)                                  Velocity(au)
C        -6.01874769    -0.80331748    -0.04318285    -0.00013507     0.00013547     0.00000242
C        -4.63053675    -0.75402509     0.12234755     0.00018453    -0.00008003     0.00000575
H        -6.50089001     0.09044869    -0.50558739    -0.00055292    -0.00118528     0.00011207
H        -6.65011407    -1.65710580     0.09467095     0.00038835     0.00092988    -0.00044155
H        -4.11571835    -1.59474961     0.54300110    -0.00030753     0.00078345    -0.00059587
C        -3.97362412     0.44792074    -0.11539623    -0.00057120    -0.00008855     0.00005918
C        -2.57785077     0.58018691     0.12183894     0.00053875     0.00015047    -0.00003165
H        -4.48163294     1.32316102    -0.41311779    -0.00043902    -0.00091535    -0.00021216
H        -2.13222390    -0.28078292     0.46500048     0.00010523    -0.00062578     0.00061853
C        -1.81170463     1.76474847    -0.00742831    -0.00052105     0.00001074    -0.00015856
H        -2.24940550     2.69720401    -0.37377985     0.00066976    -0.00090705    -0.00010155
N        -0.52246164     1.72459489     0.27419593     0.00053992    -0.00001582     0.00023190
H         0.02480327     2.51693123     0.11202904    -0.00132136     0.00042045    -0.00029393
H        -0.05427094     0.85774288     0.34965092    -0.00003925     0.00019294    -0.00084415
    14
  Step:     8            Position(A)                                  Velocity(au)
C        -6.02029821    -0.80171599    -0.04327707    -0.00014527     0.00015707    -0.00001894
C        -4.62857942    -0.75482873     0.12243301     0.00017019    -0.00006347     0.00000817
H        -6.50674320     0.07669469    -0.50379248    -0.00052483    -0.00129619     0.00020278
H        -6.64603978    -1.64765645     0.09026019     0.00033332     0.00076006    -0.00035718
H        -4.11848522    -1.58681039     0.53652186    -0.00017514     0.00062897    -0.00056916
C        -3.98008902     0.44684907    -0.11476310    -0.00060472    -0.00010873     0.00005769
C        -2.57167857     0.58215424     0.12146660     0.00058496     0.00020370    -0.00003566
H        -4.48765164     1.31422337    -0.41605033    -0.00067156    -0.00069639    -0.00033031
H        -2.12922770    -0.28996979     0.47281166     0.00042063    -0.00100476     0.00079122
C        -1.81770169     1.76469302    -0.00921069    -0.00056438    -0.00002389    -0.00016426
H        -2.24194016     2.68719681    -0.37455591     0.00066999    -0.00087902    -0.00005684
N        -0.51650605     1.72443604     0.27675700     0.00054027    -0.00001245     0.00023519
H         0.01189305     2.52337752     0.10850782    -0.00101761     0.00077491    -0.00035367
H        -0.05391759     0.85848110     0.34081130     0.00012089    -0.00007692    -0.00077183
    14
  Step:     9            Position(A)                                  Velocity(au)
C        -6.02192578    -0.79988132    -0.04359731    -0.00014910     0.00017692    -0.00003842
C        -4.62681346    -0.75541357     0.12252633     0.00014949    -0.00004119     0.00000757
H        -6.51237159     0.06209195    -0.50115113    -0.00051568    -0.00133471     0.00026334
H        -6.64282216    -1.64047796     0.08685704     0.00023716     0.00052241    -0.00025895
H        -4.11954986    -1.58098962     0.53054974    -0.00000150     0.00040406    -0.00050704
C        -3.98685347     0.44554197    -0.11413422    -0.00062576    -0.00012979     0.00005797
C        -2.56505355     0.58464332     0.12105881     0.00062106     0.00024355    -0.00003749
H        -4.49632459     1.30792625    -0.42034386    -0.00091498    -0.00044745    -0.00045575
H        -2.12302172    -0.30276398     0.48230995     0.00068312    -0.00126769     0.00091908
C        -1.82405144     1.76422582    -0.01102180    -0.00058569    -0.00006368    -0.00016398
H        -2.23474809     2.67797382    -0.37502335     0.00061953    -0.00076279    -0.00004621
N        -0.51064213     1.72432242     0.27934110     0.00052606    -0.00000696     0.00023602
H         0.00254119     2.53388378     0.10429175    -0.00069153     0.00113314    -0.00041520
H        -0.05162632     0.85606016     0.33276569     0.00030391    -0.00036442    -0.00070140
    14
  Step:    10            Position(A)                                  Velocity(au)
C        -6.02356000    -0.79784560    -0.04411752    -0.00014683     0.00019249    -0.00005507
C        -4.62530905    -0.75572974     0.12259860     0.00012272    -0.00001589     0.00000491
H        -6.51802458     0.04749543    -0.49803140    -0.00053231    -0.00129173     0.00028788
H        -6.64085146    -1.63622766     0.08459516     0.00011377     0.00023673    -0.00015076
H        -4.11851796    -1.57797088     0.52542931     0.00019977     0.00012981    -0.00041985
C        -3.99377861     0.44400956    -0.11349495    -0.00063443    -0.00014812     0.00005904
C        -2.55809166     0.58748236     0.12064636     0.00064610     0.00026650    -0.00003620
H        -4.50766861     1.30443465    -0.42602072    -0.00114969    -0.00019949    -0.00057723
H        -2.11428303    -0.31770284     0.49291829     0.00088080    -0.00139124     0.00099101
C        -1.83051477     1.76329980    -0.01279797    -0.00058578    -0.00010651    -0.00015827
H        -2.22838674     2.67050938    -0.37556695     0.00052079    -0.00056252    -0.00006938
N        -0.50499751     1.72428383     0.28192029     0.00050302     0.00000170     0.00023414
H        -0.00323545     2.54816713     0.09942444    -0.00038206     0.00143732    -0.00046675
H        -0.04726905     0.85050883     0.32546684     0.00048706    -0.00062839    -0.00063689
    14
  Step:    11            Position(A)                                  Velocity(au)
C        -6.02513802    -0.79567026    -0.04480213    -0.00013955     0.00020117    -0.00006817
C        -4.62412872    -0.75576111     0.12263365     0.00009092     0.00000914     0.00000147
H        -6.52401689     0.03383291    -0.49485313    -0.00057909    -0.00116413     0.00027346
H        -6.64033312    -1.63529900     0.08355892    -0.00001818    -0.00007008    -0.00003751
H        -4.11517943    -1.57814971     0.52136471     0.00040969    -0.00016400    -0.00032195
C        -4.00073282     0.44230165    -0.11284262    -0.00063171    -0.00016034     0.00005981
C        -2.55091883     0.59047350     0.12026676     0.00065924     0.00027114    -0.00003147
H        -4.52147617     1.30356195    -0.43297188    -0.00135603     0.00001718    -0.00068309
H        -2.10375247    -0.33319992     0.50399026     0.00101244    -0.00137390     0.00100472
C        -1.83686642     1.76189560    -0.01448428    -0.00056629    -0.00014944    -0.00014817
H        -2.22335489     2.66566769    -0.37654127     0.00038203    -0.00029468    -0.00012087
N        -0.49963750     1.72435955     0.28446333     0.00047631     0.00001406     0.00022928
H        -0.00581711     2.56532800     0.09408077    -0.00011949     0.00163892    -0.00049756
H        -0.04097098     0.84231290     0.31883249     0.00064893    -0.00083051    -0.00058051
    14
  Step:    12            Position(A)                                  Velocity(au)
C        -6.02661288    -0.79344451    -0.04560892    -0.00012898     0.00020083    -0.00007733
C        -4.62331996    -0.75552977     0.12263070     0.00005564     0.00003047    -0.00000135
H        -6.53069337     0.02202789    -0.49204892    -0.00065619    -0.00095709     0.00022147
H        -6.64124920    -1.63776079     0.08377450    -0.00013844    -0.00036808     0.00007539
H        -4.10955526    -1.58155867     0.51838603     0.00060686    -0.00044387    -0.00022920
C        -4.00759856     0.44050188    -0.11218656    -0.00061900    -0.00016384     0.00005927
C        -2.54366947     0.59341401     0.11995790     0.00065986     0.00025767    -0.00002344
H        -4.53733441     1.30481059    -0.44096455    -0.00151761     0.00017841    -0.00076331
H        -2.09213395    -0.34775958     0.51489847     0.00108397    -0.00122999     0.00096452
C        -1.84290341     1.76003058    -0.01603945    -0.00052954    -0.00018878    -0.00013510
H        -2.22002911     2.66406263    -0.37821125     0.00021665     0.00001237    -0.00019015
N        -0.49457725     1.72459141     0.28693621     0.00044974     0.00003002     0.00022127
H        -0.00584942     2.58402168     0.08853937     0.00007903     0.00170843    -0.00050038
H        -0.03307245     0.83233994     0.31276709     0.00077312    -0.00094228    -0.00053260
    14
  Step:    13            Position(A)                                  Velocity(au)
C        -6.02795970    -0.79127675    -0.04649387    -0.00011728     0.00019032    -0.00008265
C        -4.62291158    -0.75509450     0.12260406     0.00001854     0.00004510    -0.00000233
H        -6.53837237     0.01289469    -0.49000805    -0.00075811    -0.00068560     0.00013865
H        -6.64336182    -1.64335155     0.08520822    -0.00022894    -0.00062940     0.00018275
H        -4.10190326    -1.58786028     0.51635061     0.00077135    -0.00067888    -0.00015575
C        -4.01427466     0.43871742    -0.11154602    -0.00059774    -0.00015703     0.00005668
C        -2.53648314     0.59611061     0.11975388     0.00064768     0.00022734    -0.00001256
H        -4.55467676     1.30746511    -0.44967084    -0.00162343     0.00026950    -0.00081107
H        -2.08003852    -0.36010830     0.52509108     0.00110473    -0.00098229     0.00087851
C        -1.84845112     1.75776573    -0.01743981    -0.00047821    -0.00022050    -0.00012072
H        -2.21861536     2.66593835    -0.38070107     0.00004104     0.00032230    -0.00026319
N        -0.48979861     1.72501624     0.28930403     0.00042555     0.00004889     0.00021014
H        -0.00408816     2.60270329     0.08313402     0.00020937     0.00163824    -0.00047250
H        -0.02405743     0.82169883     0.30718089     0.00085026    -0.00094907    -0.00049207
    14
  Step:    14            Position(A)                                  Velocity(au)
C        -6.02917865    -0.78928085    -0.04741702    -0.00010675     0.00016985    -0.00008475
C        -4.62291431    -0.75454302     0.12257983    -0.00001884     0.00005095    -0.00000061
H        -6.54727858     0.00702908    -0.48901561    -0.00087344    -0.00037373     0.00003690
H        -6.64625779    -1.65153014     0.08777254    -0.00027686    -0.00083248     0.00028017
H        -4.09268048    -1.59641055     0.51497870     0.00088799    -0.00084602    -0.00011157
C        -4.02067526     0.43706645    -0.11094666    -0.00056923    -0.00013951     0.00005163
C        -2.52950020     0.59838752     0.11968311     0.00062287     0.00018198     0.00000062
H        -4.57285010     1.31070638    -0.45870815    -0.00166870     0.00028603    -0.00082328
H        -2.06796589    -0.36924907     0.53411754     0.00108479    -0.00065642     0.00075624
C        -1.85336511     1.75520680    -0.01868052    -0.00041504    -0.00024084    -0.00010668
H        -2.21913132     2.67111349    -0.38396909    -0.00012837     0.00059752    -0.00032532
N        -0.48526760     1.72566107     0.29153334     0.00040458     0.00006971     0.00019611
H        -0.00126906     2.61986125     0.07820262     0.00027734     0.00143933    -0.00041540
H        -0.01447128     0.81157714     0.30200217     0.00087810    -0.00085034    -0.00045704
    14
  Step:    15            Position(A)                                  Velocity(au)
C        -6.03029498    -0.78756093    -0.04834802    -0.00009952     0.00014088    -0.00008468
C        -4.62332380    -0.75397980     0.12259079    -0.00005536     0.00004709     0.00000416
H        -6.55748050     0.00471855    -0.48920069    -0.00098610    -0.00005163    -0.00006832
H        -6.64941868    -1.66156368     0.09133758    -0.00027604    -0.00096445     0.00036444
H        -4.08247675    -1.60636860     0.51390979     0.00094811    -0.00093292    -0.00010131
C        -4.02672775     0.43566548    -0.11041657    -0.00053463    -0.00011186     0.00004405
C        -2.52285659     0.60009175     0.11976749     0.00058608     0.00012384     0.00001551
H        -4.59118281     1.31372260    -0.46768169    -0.00165410     0.00023235    -0.00080041
H        -2.05630659    -0.37446884     0.54163532     0.00103362    -0.00027758     0.00060739
C        -1.85753101     1.75249688    -0.01977375    -0.00034263    -0.00024704    -0.00009432
H        -2.22142371     2.67901016    -0.38781817    -0.00027795     0.00080650    -0.00036419
N        -0.48094767     1.72654122     0.29359423     0.00038663     0.00009144     0.00017956
H         0.00197928     2.63419137     0.07404624     0.00029468     0.00113515    -0.00033364
H        -0.00484727     0.80309608     0.29718231     0.00086030    -0.00065713    -0.00042544
    14
  Step:    16            Position(A)                                  Velocity(au)
C        -6.03135573    -0.78619883    -0.04926957    -0.00009731     0.00010574    -0.00008365
C        -4.62412550    -0.75351293     0.12267082    -0.00009028     0.00003373     0.00001186
H        -6.56885149     0.00589952    -0.49051035    -0.00107829     0.00024952    -0.00016081
H        -6.65229673    -1.67262926     0.09574528    -0.00022685    -0.00102133     0.00043363
H        -4.07193875    -1.61681990     0.51276245     0.00094960    -0.00093776    -0.00012461
C        -4.03237124     0.43461933    -0.10998288    -0.00049493    -0.00007553     0.00003418
C        -2.51667860     0.60109685     0.12002235     0.00053837     0.00005556     0.00003148
H        -4.60903675     1.31578953    -0.47621863    -0.00158441     0.00011890    -0.00074561
H        -2.04535341    -0.37532172     0.54740526     0.00095972     0.00013059     0.00044119
C        -1.86086090     1.74980235    -0.02074402    -0.00026324    -0.00023777    -0.00008450
H        -2.22521201     2.68875718    -0.39193646    -0.00039851     0.00092877    -0.00037181
N        -0.47680932     1.72766157     0.29546161     0.00037080     0.00011323     0.00016098
H         0.00517759     2.64469482     0.07090350     0.00027566     0.00075562    -0.00023353
H         0.00434944     0.79720111     0.29269495     0.00080462    -0.00038850    -0.00039540
    14
  Step:    17            Position(A)                                  Velocity(au)
C        -6.03242376    -0.78524769    -0.05017804    -0.00010122     0.00006703    -0.00008280
C        -4.62529883    -0.75324196     0.12285024    -0.00012318     0.00001206     0.00002202
H        -6.58107023     0.01017734    -0.49271875    -0.00113403     0.00050289    -0.00022663
H        -6.65438150    -1.68390720     0.10082395    -0.00013475    -0.00100649     0.00048703
H        -4.06170254    -1.62688391     0.51118381     0.00089559    -0.00086705    -0.00017742
C        -4.03755527     0.43401318    -0.10966885    -0.00045106    -0.00003252     0.00002244
C        -2.51107869     0.60130714     0.12045615     0.00048115    -0.00001986     0.00004788
H        -4.62584479     1.31632375    -0.48399335    -0.00146701    -0.00004039    -0.00066384
H        -2.03531083    -0.37161196     0.55128709     0.00087091     0.00054580     0.00026654
C        -1.86328979     1.74729519    -0.02162232    -0.00017880    -0.00021333    -0.00007754
H        -2.23014194     2.69932881    -0.39595214    -0.00048561     0.00095658    -0.00034518
N        -0.47283565     1.72901835     0.29711588     0.00035581     0.00013437     0.00014086
H         0.00800985     2.65072200     0.06893743     0.00023515     0.00033309    -0.00012219
H         0.01275544     0.79459699     0.28853227     0.00072125    -0.00006801    -0.00036546
    14
  Step:    18            Position(A)                                  Velocity(au)
C        -6.03357005    -0.78473232    -0.05108093    -0.00011159     0.00002715    -0.00008296
C        -4.62682021    -0.75324905     0.12315262    -0.00015387    -0.00001605     0.00003395
H        -6.59366057     0.01690120    -0.49546838    -0.00114209     0.00068975    -0.00025639
H        -6.65524458    -1.69464823     0.10639990    -0.00000851    -0.00092851     0.00052490
H        -4.05234603    -1.63578819     0.50888113     0.00079276    -0.00073267    -0.00025349
C        -4.04223902     0.43390779    -0.10949199    -0.00040389     0.00001477     0.00000942
C        -2.50615255     0.60066237     0.12106974     0.00041603    -0.00009893     0.00006396
H        -4.64113045     1.31490595    -0.49074146    -0.00131070    -0.00023011    -0.00056107
H        -2.02630068    -0.36338131     0.55323644     0.00077482     0.00094638     0.00009233
C        -1.86477257     1.74513526    -0.02244037    -0.00009106    -0.00017549    -0.00007331
H        -2.23583557     2.70968415    -0.39948796    -0.00053872     0.00089339    -0.00028569
N        -0.46902532     1.73060123     0.29854328     0.00034014     0.00015432     0.00011977
H         0.01032202     2.65198186     0.06823027     0.00018780    -0.00009970    -0.00000715
H         0.02012808     0.79571334     0.28469992     0.00062159     0.00027858    -0.00033462
    14
  Step:    19            Position(A)                                  Velocity(au)
C        -6.03486511    -0.78465368    -0.05199288    -0.00012804    -0.00001204    -0.00008457
C        -4.62866509    -0.75359319     0.12359294    -0.00018233    -0.00004838     0.00004682
H        -6.60605555     0.02526695    -0.49832784    -0.00109746     0.00080098    -0.00024610
H        -6.65456767    -1.70422021     0.11230706     0.00014130    -0.00079917     0.00054824
H        -4.04435930    -1.64291251     0.50563829     0.00064978    -0.00054937    -0.00034562
C        -4.04639105     0.43433640    -0.10946272    -0.00035423     0.00006379    -0.00000418
C        -2.50197723     0.59914276     0.12185539     0.00034472    -0.00017775     0.00007888
H        -4.65451880     1.31128971    -0.49626793    -0.00112499    -0.00043446    -0.00044383
H        -2.01836022    -0.35090803     0.55330709     0.00067964     0.00131024    -0.00007212
C        -1.86528194     1.74345611    -0.02322616    -0.00000157    -0.00012708    -0.00007134
H        -2.24192753     2.71887351    -0.40220225    -0.00056006     0.00075075    -0.00019778
N        -0.46539438     1.73239445     0.29973611     0.00032216     0.00017261     0.00009827
H         0.01211824     2.64854081     0.06878103     0.00014795    -0.00051020     0.00010391
H         0.02635386     0.80069150     0.28121188     0.00051761     0.00062480    -0.00030234
    14
  Step:    20            Position(A)                                  Velocity(au)
C        -6.03637125    -0.78499571    -0.05293109    -0.00014954    -0.00004925    -0.00008771
C        -4.63080910    -0.75430738     0.12417694    -0.00020862    -0.00008248     0.00005980
H        -6.61766966     0.03442420    -0.50085221    -0.00100120     0.00083622    -0.00019666
H        -6.65215326    -1.71213163     0.11839361     0.00030355    -0.00063189     0.00055858
H        -4.03813076    -1.64780676     0.50132004     0.00047628    -0.00033300    -0.00044646
C        -4.04998849     0.43530333    -0.10958352    -0.00030283     0.00011187    -0.00001763
C        -2.49861125     0.59677370     0.12279531     0.00026883    -0.00025204     0.00009164
H        -4.66574182     1.30540121    -0.50045109    -0.00091981    -0.00063787    -0.00031891
H        -2.01143229    -0.33471731     0.55165868     0.00059470     0.00161415    -0.00021667
C        -1.86480702     1.74235508    -0.02400104     0.00008819    -0.00007167    -0.00007095
H        -2.24808790     2.72610825    -0.40381483    -0.00055337     0.00054495    -0.00008762
N        -0.46197750     1.73437730     0.30069306     0.00030012     0.00018877     0.00007695