     6
  Step:     0            Position(A)                                  Velocity(au)
C        -0.04692302     0.03937857     0.01838468    -0.00000569    -0.00003171    -0.00036882
N        -0.04691148    -0.07652657     1.29443709     0.00025117     0.00005886     0.00034725
H         0.97601944    -0.00714680    -0.49883194    -0.00046713     0.00009893     0.00036027
H         0.84892125    -0.03898091     1.89937279    -0.00061914    -0.00043817    -0.00030772
H        -0.83876723     0.01229607     1.84795488    -0.00181095    -0.00031061    -0.00016221
H        -0.98807493    -0.04174316    -0.56348030    -0.00052536     0.00020973    -0.00032091
     6
  Step:     1            Position(A)                                  Velocity(au)
C        -0.04691652     0.03923185     0.01597175     0.00000716    -0.00002127    -0.00051201
N        -0.04545610    -0.07625455     1.29665214     0.00027853     0.00004205     0.00046204
H         0.97312850    -0.00653971    -0.49675339    -0.00058843     0.00011776     0.00039480
H         0.84520870    -0.04130497     1.89734890    -0.00072988    -0.00041814    -0.00042401
H        -0.84957889     0.01076989     1.84758873    -0.00211728    -0.00025738     0.00001503
H        -0.99096198    -0.04053196    -0.56519706    -0.00052040     0.00022686    -0.00030535
     6
  Step:     2            Position(A)                                  Velocity(au)
C        -0.04684464     0.03914574     0.01278121     0.00001821    -0.00001000    -0.00064945
N        -0.04386317    -0.07606634     1.29949372     0.00030011     0.00002775     0.00057325
H         0.96957963    -0.00585805    -0.49451122    -0.00070147     0.00012792     0.00041885
H         0.84093335    -0.04355708     1.89473238    -0.00081960    -0.00040737    -0.00052202
H        -0.86193895     0.00947928     1.84811938    -0.00236695    -0.00022088     0.00016233
H        -0.99377026    -0.03926043    -0.56682203    -0.00049943     0.00023383    -0.00028639
     6
  Step:     3            Position(A)                                  Velocity(au)
C        -0.04671693     0.03912223     0.00885415     0.00002742     0.00000126    -0.00077654
N        -0.04216707    -0.07595041     1.30293470     0.00031448     0.00001536     0.00067710
H         0.96544075    -0.00513781    -0.49216298    -0.00079815     0.00013267     0.00043119
H         0.83622628    -0.04576954     1.89162785    -0.00088121    -0.00039988    -0.00059810
H        -0.87551941     0.00834914     1.84936773    -0.00254955    -0.00019609     0.00027490
H        -0.99643552    -0.03796929    -0.56833570    -0.00046807     0.00023484    -0.00026385
     6
  Step:     4            Position(A)                                  Velocity(au)
C        -0.04654345     0.03915953     0.00425238     0.00003465     0.00001191    -0.00088939
N        -0.04040915    -0.07589763     1.30693039     0.00032055     0.00000460     0.00077022
H         0.96081346    -0.00440087    -0.48977538    -0.00087272     0.00013390     0.00043012
H         0.83125486    -0.04794908     1.88816339    -0.00090846    -0.00039209    -0.00064789
H        -0.88994103     0.00732562     1.85113870    -0.00265720    -0.00017996     0.00035100
H        -0.99891119    -0.03668117    -0.56971999    -0.00042899     0.00023230    -0.00023836
     6
  Step:     5            Position(A)                                  Velocity(au)
C        -0.04633527     0.03925343    -0.00094279     0.00003971     0.00002158    -0.00098457
N        -0.03863612    -0.07589976     1.31141890     0.00031763    -0.00000462     0.00084954
H         0.95582745    -0.00366290    -0.48742507    -0.00092057     0.00013241     0.00041419
H         0.82621928    -0.05008852     1.88449119    -0.00089643    -0.00038208    -0.00066763
H        -0.90478926     0.00636679     1.85323412    -0.00268604    -0.00017067     0.00039123
H        -1.00116099    -0.03541039    -0.57096132    -0.00038414     0.00022738    -0.00021093
     6
  Step:     6            Position(A)                                  Velocity(au)
C        -0.04610441     0.03939806    -0.00663229     0.00004249     0.00002999    -0.00105943
N        -0.03689769    -0.07594869     1.31632216     0.00030561    -0.00001230     0.00091256
H         0.95063642    -0.00293702    -0.48519647    -0.00093834     0.00012861     0.00038264
H         0.82134470    -0.05217303     1.88078258    -0.00084231    -0.00036895    -0.00065509
H        -0.91963574     0.00543887     1.85546384    -0.00263705    -0.00016683     0.00039828
H        -1.00315790    -0.03416746    -0.57205187    -0.00033549     0.00022066    -0.00018279
     6
  Step:     7            Position(A)                                  Velocity(au)
C        -0.04586356     0.03958636    -0.01270338     0.00004296     0.00003700    -0.00111260
N        -0.03524362    -0.07603628     1.32154909     0.00028499    -0.00001845     0.00095788
H         0.94541109    -0.00223523    -0.48317745    -0.00092454     0.00012274     0.00033573
H         0.81686886    -0.05418418     1.87721912    -0.00074619    -0.00035251    -0.00061015
H        -0.93406290     0.00451479     1.85765543    -0.00251635    -0.00016732     0.00037658
H        -1.00488519    -0.03296087    -0.57299050    -0.00028521     0.00021258    -0.00015529
     6
  Step:     8            Position(A)                                  Velocity(au)
C        -0.04562545     0.03981061    -0.01903686     0.00004122     0.00004258    -0.00114456
N        -0.03372027    -0.07615444     1.32700169     0.00025695    -0.00002315     0.00098566
H         0.94032862    -0.00156855    -0.48145339    -0.00087993     0.00011510     0.00027477
H         0.81302528    -0.05610327     1.87397993    -0.00061136    -0.00033319    -0.00053520
H        -0.94769100     0.00357340     1.85966237    -0.00233500    -0.00017116     0.00033180
H        -1.00633773    -0.03179739    -0.57378324    -0.00023559     0.00020359    -0.00012976
     6
  Step:     9            Position(A)                                  Velocity(au)
C        -0.04540206     0.04006302    -0.02551695     0.00003753     0.00004680    -0.00115773
N        -0.03236704    -0.07629547     1.33258373     0.00022314    -0.00002652     0.00099779
H         0.93556013    -0.00094668    -0.48010135    -0.00080748     0.00010604     0.00020191
H         0.81002450    -0.05791433     1.87122748    -0.00044404    -0.00031186    -0.00043486
H        -0.96020374     0.00259865     1.86137004    -0.00210769    -0.00017759     0.00027031
H        -1.00752265    -0.03068168    -0.57444315    -0.00018882     0.00019422    -0.00010738
     6
  Step:    10            Position(A)                                  Velocity(au)
C        -0.04520391     0.04033635    -0.03204191     0.00003221     0.00004987    -0.00115612
N        -0.03121367    -0.07645235     1.33821009     0.00018548    -0.00002875     0.00099759
H         0.93125801    -0.00037742    -0.47918530    -0.00071180     0.00009597     0.00011967
H         0.80803726    -0.05960646     1.86909500    -0.00025223    -0.00028965    -0.00031523
H        -0.97136718     0.00157852     1.86269882    -0.00185051    -0.00018610     0.00019829
H        -1.00845882    -0.02961568    -0.57498951    -0.00014676     0.00018507    -0.00008912
     6
  Step:    11            Position(A)                                  Velocity(au)
C        -0.04503945     0.04062443    -0.03853230     0.00002566     0.00005203    -0.00114445
N        -0.03027899    -0.07661915     1.34381435     0.00014575    -0.00003007     0.00098906
H         0.92754690     0.00013371    -0.47875419    -0.00059800     0.00008528     0.00003036
H         0.80718493    -0.06117518     1.86767871    -0.00004432    -0.00026769    -0.00018271
H        -0.98103626     0.00050353     1.86360233    -0.00157804    -0.00019645     0.00012094
H        -1.00917484    -0.02859821    -0.57544640    -0.00011073     0.00017669    -0.00007558
     6
  Step:    12            Position(A)                                  Velocity(au)
C        -0.04491489     0.04092251    -0.04493487     0.00003011     0.00008850    -0.00186273
N        -0.02957175    -0.07679111     1.34935251     0.00017417    -0.00005073     0.00161304
H         0.92452119     0.00058334    -0.47884322    -0.00077801     0.00012274    -0.00010612
H         0.80753796    -0.06262220     1.86703663     0.00028418    -0.00040793    -0.00007136
H        -0.98914474    -0.00063457     1.86406130    -0.00215061    -0.00034460     0.00006955
H        -1.00970621    -0.02762512    -0.57584100    -0.00013469     0.00028014    -0.00011091
     6
  Step:    13            Position(A)                                  Velocity(au)
C        -0.04478475     0.04141286    -0.05498187     0.00001545     0.00008424    -0.00168136
N        -0.02870711    -0.07706478     1.35809888     0.00013090    -0.00004560     0.00147204
H         0.92090056     0.00120926    -0.47999791    -0.00049405     0.00009845    -0.00029989
H         0.80974087    -0.06485090     1.86710867     0.00049278    -0.00037904     0.00009734
H        -1.00040020    -0.00252476     1.86425278    -0.00181851    -0.00032300    -0.00000160
H        -1.01059935    -0.02617245    -0.57677153    -0.00018345     0.00023347    -0.00021668
     6
  Step:    14            Position(A)                                  Velocity(au)
C        -0.04473956     0.04187818    -0.06400989     0.00000042     0.00007979    -0.00150533
N        -0.02808667    -0.07730846     1.36605285     0.00008865    -0.00004027     0.00133525
H         0.91891622     0.00170029    -0.48224545    -0.00020580     0.00007540    -0.00048971
H         0.81312853    -0.06692244     1.86814094     0.00069713    -0.00035279     0.00026374
H        -1.00977577    -0.00429899     1.86404316    -0.00149114    -0.00030354    -0.00007083
H        -1.01178749    -0.02497640    -0.57829919    -0.00023720     0.00018968    -0.00032073
     6
  Step:    15            Position(A)                                  Velocity(au)
C        -0.04477995     0.04231786    -0.07205474    -0.00000619     0.00003226    -0.00057259
N        -0.02770165    -0.07752151     1.37324282     0.00002074    -0.00001495     0.00051592
H         0.91856648     0.00206438    -0.48555205     0.00003334     0.00002309    -0.00028792
H         0.81764751    -0.06885214     1.87009993     0.00038033    -0.00014109     0.00018051
H        -1.01731218    -0.00596740     1.86344944    -0.00050254    -0.00012238    -0.00005842
H        -1.01328961    -0.02402121    -0.58040911    -0.00012548     0.00006365    -0.00018061
     6
  Step:    16            Position(A)                                  Velocity(au)
C        -0.04484111     0.04250075    -0.07523413    -0.00001534     0.00003292    -0.00056151
N        -0.02770038    -0.07760299     1.37611861    -0.00001908    -0.00001407     0.00050997
H         0.91920273     0.00215909    -0.48748201     0.00018978     0.00001083    -0.00039825
H         0.82041217    -0.06960258     1.87152622     0.00059686    -0.00012712     0.00032294
H        -1.01932539    -0.00672119     1.86290006    -0.00022179    -0.00014631    -0.00013503
H        -1.01396627    -0.02365878    -0.58143320    -0.00011688     0.00006583    -0.00018537
     6
  Step:    17            Position(A)                                  Velocity(au)
C        -0.04495187     0.04268669    -0.07834669    -0.00002393     0.00003365    -0.00055382
N        -0.02791546    -0.07767912     1.37895723    -0.00005658    -0.00001317     0.00050732
H         0.92069306     0.00218576    -0.49001455     0.00033912    -0.00000113    -0.00050651
H         0.82433555    -0.07027653     1.87371863     0.00079739    -0.00011480     0.00045589
H        -1.01979738    -0.00760690     1.86193633     0.00004589    -0.00017084    -0.00020725
H        -1.01459930    -0.02328355    -0.58248623    -0.00011097     0.00006882    -0.00019266
     6
  Step:    18            Position(A)                                  Velocity(au)
C        -0.04510806     0.04287612    -0.08141182    -0.00003165     0.00003436    -0.00054768
N        -0.02833151    -0.07774993     1.38177761    -0.00009127    -0.00001224     0.00050636
H         0.92298551     0.00214646    -0.49313198     0.00047816    -0.00001282    -0.00061047
H         0.82930685    -0.07088319     1.87661154     0.00097493    -0.00010357     0.00057553
H        -1.01881352    -0.00862683     1.86058820     0.00029980    -0.00019538    -0.00027349
H        -1.01520416    -0.02289110    -0.58358228    -0.00010744     0.00007239    -0.00020190
     6
  Step:    19            Position(A)                                  Velocity(au)
C        -0.04530393     0.04306891    -0.08443879    -0.00003819     0.00003497    -0.00054198
N        -0.02893068    -0.07781528     1.38458969    -0.00012250    -0.00001126     0.00050606
H         0.92601184     0.00204316    -0.49680510     0.00060334    -0.00002416    -0.00070787
H         0.83518009    -0.07142853     1.88012055     0.00112295    -0.00009305     0.00067827
H        -1.01646257    -0.00978024     1.85889416     0.00053710    -0.00021941    -0.00033184
H        -1.01579435    -0.02247827    -0.58473210    -0.00010608     0.00007639    -0.00021267
     6
  Step:    20            Position(A)                                  Velocity(au)
C        -0.04553213     0.04326451    -0.08743070    -0.00004326     0.00003544    -0.00053605
N        -0.02969190    -0.07787502     1.38739758    -0.00014961    -0.00001025     0.00050574
H         0.92968585     0.00187814    -0.50099315     0.00071133    -0.00003505    -0.00079665
H         0.84177759    -0.07191655     1.88414402     0.00123623    -0.00008304     0.00076123
H        -1.01284888    -0.01106343     1.85690302     0.00075378    -0.00024240    -0.00038027
H        -1.01638223    -0.02204275    -0.58594404    -0.00010678     0.00008069    -0.00022461
     6
  Step:    21            Position(A)                                  Velocity(au)
C        -0.04578399     0.04346211    -0.09038688    -0.00004667     0.00003571    -0.00052949
N        -0.03059079    -0.07792904     1.39020144    -0.00017202    -0.00000922     0.00050490
H         0.93390492     0.00165424    -0.50564493     0.00079935    -0.00004536    -0.00087508
H         0.84889760    -0.07235001     1.88856729     0.00131128    -0.00007341     0.00082249
H        -1.00809848    -0.01246993     1.85467459     0.00094535    -0.00026388    -0.00041678
H        -1.01697922    -0.02158286    -0.58722447    -0.00010940     0.00008522    -0.00023744
     6
  Step:    22            Position(A)                                  Velocity(au)
C        -0.04604983     0.04366069    -0.09330448    -0.00004826     0.00003579    -0.00052211
N        -0.03160018    -0.07797731     1.39299856    -0.00018928    -0.00000819     0.00050318
H         0.93855322     0.00137490    -0.51070061     0.00086540    -0.00005500    -0.00094183
H         0.85632399    -0.07273093     1.89326810     0.00134651    -0.00006407     0.00086124
H        -1.00236184    -0.01399075     1.85227952     0.00110725    -0.00028345    -0.00043950
H        -1.01759578    -0.02109742    -0.58857801    -0.00011374     0.00008989    -0.00025085
     6
  Step:    23            Position(A)                                  Velocity(au)
C        -0.04631945     0.04385916    -0.09617941    -0.00004799     0.00003565    -0.00051382
N        -0.03269077    -0.07801992     1.39578402    -0.00020107    -0.00000719     0.00050030
H         0.94350608     0.00104406    -0.51609405     0.00090839    -0.00006386    -0.00099605
H         0.86383651    -0.07306084     1.89812235     0.00134215    -0.00005497     0.00087768
H        -0.99581401    -0.01561467     1.84979851     0.00123508    -0.00030074    -0.00044671
H        -1.01824111    -0.02058561    -0.59000758    -0.00011958     0.00009466    -0.00026459
     6
  Step:    24            Position(A)                                  Velocity(au)
C        -0.04658251     0.04405634    -0.09900711    -0.00004589     0.00003530    -0.00050464
N        -0.03383177    -0.07805709     1.39855118    -0.00020723    -0.00000624     0.00049604
H         0.94863503     0.00066612    -0.52175540     0.00092818    -0.00007190    -0.00103743
H         0.87121998    -0.07334102     1.90300912     0.00130008    -0.00004608     0.00087291
H        -0.98865419    -0.01732857     1.84732169     0.00132489    -0.00031549    -0.00043692
H        -1.01892291    -0.02004684    -0.59151453    -0.00012661     0.00009950    -0.00027836
     6
  Step:    25            Position(A)                                  Velocity(au)
C        -0.04682900     0.04425111    -0.10178306    -0.00004204     0.00003474    -0.00049469
N        -0.03499187    -0.07808916     1.40129216    -0.00020777    -0.00000535     0.00049028
H         0.95381274     0.00024569    -0.52761385     0.00092546    -0.00007908    -0.00106609
H         0.87827281    -0.07357257     1.90781537     0.00122353    -0.00003740     0.00084880
H        -0.98110221    -0.01911790     1.84494681     0.00137371    -0.00032752    -0.00040913
H        -1.01964705    -0.01948074    -0.59309860    -0.00013451     0.00010439    -0.00029194
     6
  Step:    26            Position(A)                                  Velocity(au)
C        -0.04704960     0.04444235    -0.10450325    -0.00003661     0.00003400    -0.00048411
N        -0.03614014    -0.07811657     1.40399834    -0.00020287    -0.00000456     0.00048297
H         0.95891723    -0.00021249    -0.53360005     0.00090166    -0.00008541    -0.00108262
H         0.88481379    -0.07375658     1.91243963     0.00111673    -0.00002893     0.00080775
H        -0.97339178    -0.02096746     1.84277613     0.00137996    -0.00033682    -0.00036288
H        -1.02041737    -0.01888699    -0.59475814    -0.00014290     0.00010934    -0.00030510
     6
  Step:    27            Position(A)                                  Velocity(au)
C        -0.04723598     0.04462907    -0.10716447    -0.00002980     0.00003309    -0.00047311
N        -0.03724702    -0.07813983     1.40666091    -0.00019288    -0.00000386     0.00047415
H         0.96383566    -0.00070379    -0.53964838     0.00085875    -0.00009094    -0.00108795
H         0.89068656    -0.07389416     1.91679442     0.00098455    -0.00002067     0.00075249
H        -0.96576245    -0.02286209     1.84091302     0.00134345    -0.00034350    -0.00029832
H        -1.02123549    -0.01826528    -0.59649017    -0.00015137     0.00011436    -0.00031765
     6
  Step:    28            Position(A)                                  Velocity(au)
C        -0.04738098     0.04481038    -0.10976458    -0.00002182     0.00003205    -0.00046190
N        -0.03828510    -0.07815947     1.40927131    -0.00017826    -0.00000326     0.00046394
H         0.96846723    -0.00122380    -0.54569889     0.00079910    -0.00009571    -0.00108326
H         0.89576280    -0.07398648     1.92080788     0.00083217    -0.00001264     0.00068591
H        -0.95845157    -0.02478742     1.83945859     0.00126547    -0.00034777    -0.00021619
H        -1.02210077    -0.01761523    -0.59829065    -0.00015955     0.00011947    -0.00032942
     6
  Step:    29            Position(A)                                  Velocity(au)
C        -0.04747873     0.04498556    -0.11230260    -0.00001292     0.00003089    -0.00045070
N        -0.03922994    -0.07817604     1.41182167    -0.00015960    -0.00000274     0.00045247
H         0.97272476    -0.00176849    -0.55169845     0.00072521    -0.00009981    -0.00106988
H         0.89994349    -0.07403476     1.92442439     0.00066478    -0.00000484     0.00061091
H        -0.95168551    -0.02673060     1.83850811     0.00114882    -0.00034996    -0.00011786
H        -1.02301034    -0.01693630    -0.60015463    -0.00016705     0.00012471    -0.00034029
     6
  Step:    30            Position(A)                                  Velocity(au)
C        -0.04752469     0.04515399    -0.11477868    -0.00000331     0.00002963    -0.00043970
N        -0.04006065    -0.07819001     1.41430511    -0.00013757    -0.00000231     0.00043996
H         0.97653522    -0.00233425    -0.55760138     0.00063959    -0.00010333    -0.00104916
H         0.90315851    -0.07404029     1.92760430     0.00048735     0.00000273     0.00053023
H        -0.94567084    -0.02868079     1.83814736     0.00099775    -0.00035050    -0.00000529
H        -1.02395916    -0.01622780    -0.60207642    -0.00017348     0.00013012    -0.00035014
     6
  Step:    31            Position(A)                                  Velocity(au)
C        -0.04751556     0.04531520    -0.11719399     0.00000678     0.00002831    -0.00042906
N        -0.04076035    -0.07820176     1.41671597    -0.00011293    -0.00000194     0.00042663
H         0.97983971    -0.00291795    -0.56336959     0.00054466    -0.00010634    -0.00102240
H         0.90536492    -0.07400437     1.93032283     0.00030447     0.00001007     0.00044637
H        -0.94058626    -0.03062970     1.83844922     0.00081784    -0.00034985     0.00011896
H        -1.02494016    -0.01548884    -0.60404973    -0.00017850     0.00013571    -0.00035887
     6
  Step:    32            Position(A)                                  Velocity(au)
C        -0.04744925     0.04546886    -0.11955054     0.00001716     0.00002694    -0.00041887
N        -0.04131661    -0.07821158     1.41904999    -0.00008647    -0.00000160     0.00041271
H         0.98259282    -0.00351696    -0.56897228     0.00044269    -0.00010893    -0.00099081
H         0.90654475    -0.07392832     1.93256877     0.00012033     0.00001717     0.00036160
H        -0.93657498    -0.03257175     1.83947035     0.00061590    -0.00034850     0.00025178
H        -1.02594443    -0.01471841    -0.60606772    -0.00018180     0.00014152    -0.00036638
     6
  Step:    33            Position(A)                                  Velocity(au)
C        -0.04732476     0.04561470    -0.12185090     0.00002764     0.00002553    -0.00040920
N        -0.04172170    -0.07821959     1.42130434    -0.00005904    -0.00000128     0.00039842
H         0.98476147    -0.00412904    -0.57438524     0.00033574    -0.00011117    -0.00095546
H         0.90670273    -0.07381349     1.93434300    -0.00006123     0.00002404     0.00027793
H        -0.93373881    -0.03450421     1.84124846     0.00039961    -0.00034692     0.00038964
H        -1.02696138    -0.01391542    -0.60812306    -0.00018308     0.00014755    -0.00037256
     6
  Step:    34            Position(A)                                  Velocity(au)
C        -0.04714208     0.04575258    -0.12409795     0.00003805     0.00002410    -0.00040006
N        -0.04197269    -0.07822576     1.42347754    -0.00003149    -0.00000093     0.00038397
H         0.98632383    -0.00475236    -0.57959014     0.00022569    -0.00011310    -0.00091728
H         0.90586432    -0.07366122     1.93565739    -0.00023664     0.00003066     0.00019724
H        -0.93213418    -0.03642697     1.84380033     0.00017722    -0.00034554     0.00052868
H        -1.02797894    -0.01307875    -0.61020791    -0.00018208     0.00015377    -0.00037730
     6
  Step:    35            Position(A)                                  Velocity(au)
C        -0.04690210     0.04588236    -0.12629451     0.00004824     0.00002264    -0.00039139
N        -0.04207150    -0.07822993     1.42556925    -0.00000469    -0.00000054     0.00036954
H         0.98726826    -0.00538533    -0.58457372     0.00011427    -0.00011477    -0.00087706
H         0.90407426    -0.07347289     1.93653377    -0.00040253     0.00003704     0.00012123
H        -0.93177042    -0.03834224     1.84712073    -0.00004288    -0.00034473     0.00066493
H        -1.02898375    -0.01220740    -0.61231388    -0.00017857     0.00016017    -0.00038049
     6
  Step:    36            Position(A)                                  Velocity(au)
C        -0.04660651     0.04600397    -0.12844312     0.00005806     0.00002118    -0.00038313
N        -0.04202474    -0.07823180     1.42758010     0.00002055    -0.00000009     0.00035527
H         0.98759242    -0.00602655    -0.58932705     0.00000311    -0.00011620    -0.00083550
H         0.90139553    -0.07324996     1.93700325    -0.00055563     0.00004316     0.00005154
H        -0.93261020    -0.04025403     1.85118226    -0.00025251    -0.00034473     0.00079444
H        -1.02996142    -0.01130058    -0.61443204    -0.00017239     0.00016668    -0.00038201
     6
  Step:    37            Position(A)                                  Velocity(au)
C        -0.04625780     0.04611736    -0.13054593     0.00006738     0.00001970    -0.00037517
N        -0.04184349    -0.07823096     1.42951150     0.00004345     0.00000044     0.00034126
H         0.98730273    -0.00667470    -0.59384497    -0.00010625    -0.00011737    -0.00079324
H         0.89790869    -0.07299400     1.93710572    -0.00069277     0.00004897    -0.00001025
H        -0.93457239    -0.04216752     1.85593632    -0.00044417    -0.00034569     0.00091351
H        -1.03089674    -0.01035783    -0.61655291    -0.00016342     0.00017322    -0.00038176
     6
  Step:    38            Position(A)                                  Velocity(au)
C        -0.04585917     0.04622251    -0.13260454     0.00007605     0.00001822    -0.00036743
N        -0.04154284    -0.07822694     1.43136540     0.00006332     0.00000105     0.00032761
H         0.98641389    -0.00732840    -0.59812569    -0.00021230    -0.00011827    -0.00075083
H         0.89371127    -0.07270681     1.93688951    -0.00081091     0.00005443    -0.00006266
H        -0.93753692    -0.04408841     1.86131497    -0.00061137    -0.00034763     0.00101886
H        -1.03177405    -0.00937918    -0.61866652    -0.00015158     0.00017970    -0.00037964
     6
  Step:    39            Position(A)                                  Velocity(au)
C        -0.04541452     0.04631940    -0.13462010     0.00008397     0.00001674    -0.00035983
N        -0.04114136    -0.07821927     1.43314415     0.00007960     0.00000175     0.00031438
H         0.98494866    -0.00798609    -0.60217054    -0.00031359    -0.00011885    -0.00070886
H         0.88891696    -0.07239049     1.93641094    -0.00090721     0.00005946    -0.00010427
H        -0.94135149    -0.04602217     1.86723388    -0.00074896    -0.00035045     0.00110782
H        -1.03257752    -0.00836526    -0.62076251    -0.00013689     0.00018598    -0.00037560
     6
  Step:    40            Position(A)                                  Velocity(au)
C        -0.04492835     0.04640808    -0.13659352     0.00009101     0.00001527    -0.00035235
N        -0.04066047    -0.07820750     1.43485048     0.00009183     0.00000253     0.00030163
H         0.98293755    -0.00864589    -0.60598384    -0.00040871    -0.00011903    -0.00066786
H         0.88365426    -0.07204764     1.93573366    -0.00097915     0.00006396    -0.00013383
H        -0.94583960    -0.04797338     1.87359594    -0.00085331    -0.00035393     0.00117844
H        -1.03329156    -0.00731749    -0.62283033    -0.00011942     0.00019190    -0.00036963
     6
  Step:    41            Position(A)                                  Velocity(au)
C        -0.04440577     0.04648865    -0.13852550     0.00009709     0.00001382    -0.00034497
N        -0.04012355    -0.07819125     1.43648734     0.00009973     0.00000336     0.00028940
H         0.98041862    -0.00930534    -0.60957293    -0.00049633    -0.00011868    -0.00062840
H         0.87806427    -0.07168153     1.93492759    -0.00102474     0.00006777    -0.00015035
H        -0.95080935    -0.04994506     1.88029538    -0.00092243    -0.00035773     0.00122954
H        -1.03390117    -0.00623829    -0.62485935    -0.00009933     0.00019726    -0.00036173
     6
  Step:    42            Position(A)                                  Velocity(au)
C        -0.04385238     0.04656124    -0.14041664     0.00010211     0.00001240    -0.00033767
N        -0.03955518    -0.07817026     1.43805777     0.00010317     0.00000423     0.00027771
H         0.97743699    -0.00996113    -0.61294811    -0.00057521    -0.00011759    -0.00059105
H         0.87229757    -0.07129652     1.93406737    -0.00104262     0.00007065    -0.00015314
H        -0.95606238    -0.05193795     1.88722228    -0.00095589    -0.00036139     0.00126077
H        -1.03439236    -0.00513136    -0.62683917    -0.00007682     0.00020179    -0.00035198
     6
  Step:    43            Position(A)                                  Velocity(au)
C        -0.04327419     0.04662603    -0.14226743     0.00010603     0.00001101    -0.00033046
N        -0.03898023    -0.07814435     1.43956477     0.00010217     0.00000512     0.00026655
H         0.97404436    -0.01060844    -0.61612273    -0.00064424    -0.00011542    -0.00055637
H         0.86651040    -0.07089864     1.93323053    -0.00103216     0.00007218    -0.00014188
H        -0.96140209    -0.05394981     1.89426678    -0.00095462    -0.00036426     0.00127250
H        -1.03475247    -0.00400218    -0.62875989    -0.00005217     0.00020508    -0.00034051
     6
  Step:    44            Position(A)                                  Velocity(au)
C        -0.04267751     0.04668325    -0.14407842     0.00010879     0.00000967    -0.00032335
N        -0.03842309    -0.07811348     1.44101135     0.00009687     0.00000602     0.00025592
H         0.97029829    -0.01124004    -0.61911311    -0.00070244    -0.00011152    -0.00052491
H         0.86086039    -0.07049669     1.93249526    -0.00099355     0.00007168    -0.00011666
H        -0.96664034    -0.05597423     1.90132267    -0.00092069    -0.00036541     0.00126573
H        -1.03497048    -0.00285896    -0.63061234    -0.00002571     0.00020647    -0.00032749
     6