     6
  Step:     0            Position(A)                                  Velocity(au)
C        -0.03602842     0.01137465     0.01328363    -0.00001191     0.00004871    -0.00013548
N        -0.04109561    -0.05793904     1.30398936     0.00011081     0.00010044     0.00014622
H         0.91628810     0.01045616    -0.48071343    -0.00028034    -0.00020689     0.00012963
H         0.82452482    -0.08356772     1.78921785    -0.00053538    -0.00079442    -0.00086672
H        -0.94727070    -0.03488943     1.87218185    -0.00100272    -0.00045522     0.00016333
H        -1.00608440     0.10782359    -0.56762852     0.00042058    -0.00051975     0.00015626
     6
  Step:     1            Position(A)                                  Velocity(au)
C        -0.03631784     0.01193558     0.01139062    -0.00004099     0.00005352    -0.00020604
N        -0.04013340    -0.05686279     1.30599422     0.00006046     0.00009700     0.00021620
H         0.91464252     0.00822218    -0.48090262    -0.00001038    -0.00020176    -0.00016761
H         0.82053355    -0.09227602     1.78142352    -0.00015092    -0.00080365    -0.00052934
H        -0.95671031    -0.03991487     1.87336468    -0.00069713    -0.00046390     0.00003992
H        -1.00092961     0.10215017    -0.56613052     0.00050679    -0.00051649     0.00010789
     6
  Step:     2            Position(A)                                  Velocity(au)
C        -0.03692518     0.01254543     0.00877600    -0.00006845     0.00005759    -0.00026674
N        -0.03977294    -0.05581690     1.30871921     0.00000407     0.00009486     0.00027752
H         0.91606099     0.00604230    -0.48438021     0.00026440    -0.00019700    -0.00046217
H         0.82122316    -0.10114913     1.77763744     0.00028849    -0.00082390    -0.00015392
H        -0.96252175    -0.04503821     1.87305507    -0.00035360    -0.00047269    -0.00010027
H        -0.99499729     0.09652440    -0.56526831     0.00055985    -0.00051097     0.00003835
     6
  Step:     3            Position(A)                                  Velocity(au)
C        -0.03781525     0.01319539     0.00555513    -0.00009122     0.00006080    -0.00031652
N        -0.04004435    -0.05478746     1.31206556    -0.00005156     0.00009387     0.00032985
H         0.92042672     0.00391247    -0.49101352     0.00051394    -0.00019247    -0.00073591
H         0.82684489    -0.11030033     1.77805628     0.00071526    -0.00085240     0.00021796
H        -0.96444592    -0.05025591     1.87117115    -0.00000047    -0.00048101    -0.00023911
H        -0.98868189     0.09097167    -0.56529155     0.00057492    -0.00050318    -0.00005500
     6
  Step:     4            Position(A)                                  Velocity(au)
C        -0.03892087     0.01387551     0.00185158    -0.00010363     0.00006985    -0.00048485
N        -0.04090098    -0.05376326     1.31593535    -0.00010056     0.00008838     0.00047726
H         0.92730433     0.00183168    -0.50047957     0.00062048    -0.00023507    -0.00088675
H         0.83687084    -0.11979709     1.78240566     0.00100914    -0.00083172     0.00050848
H        -0.96253194    -0.05556126     1.86782402     0.00038553    -0.00053380    -0.00040188
H        -0.98241986     0.08551635    -0.56647158     0.00061729    -0.00045993    -0.00007445
     6
  Step:     5            Position(A)                                  Velocity(au)
C        -0.04008242     0.01472344    -0.00505199    -0.00010368     0.00008429    -0.00076546
N        -0.04224437    -0.05285407     1.32250657    -0.00013768     0.00007855     0.00071458
H         0.93400099    -0.00123008    -0.51041297     0.00057708    -0.00028668    -0.00091034
H         0.84892178    -0.12849580     1.78918030     0.00112864    -0.00079800     0.00069427
H        -0.95601162    -0.06193377     1.86237914     0.00076984    -0.00059493    -0.00056528
H        -0.97517750     0.08090982    -0.56692024     0.00067318    -0.00041649    -0.00002734
     6
  Step:     6            Position(A)                                  Velocity(au)
C        -0.04118898     0.01571960    -0.01489436    -0.00009355     0.00009664    -0.00101559
N        -0.04391300    -0.05204483     1.33156807    -0.00015839     0.00007026     0.00092647
H         0.93992912    -0.00443995    -0.52039495     0.00048632    -0.00029460    -0.00090278
H         0.86156209    -0.13725497     1.79759405     0.00112085    -0.00080645     0.00081312
H        -0.94569028    -0.06857658     1.85545743     0.00105411    -0.00061664    -0.00065844
H        -0.96769268     0.07640488    -0.56706971     0.00065465    -0.00041022    -0.00002461
     6
  Step:     7            Position(A)                                  Velocity(au)
C        -0.04212905     0.01683754    -0.02726993    -0.00007347     0.00010647    -0.00122603
N        -0.04570949    -0.05131708     1.34277485    -0.00015995     0.00006378     0.00110395
H         0.94464015    -0.00767510    -0.53016292     0.00036179    -0.00029509    -0.00087629
H         0.87344250    -0.14613852     1.80696881     0.00099761    -0.00081592     0.00087512
H        -0.93295105    -0.07542402     1.84797456     0.00118876    -0.00063787    -0.00065595
H        -0.96085570     0.07193553    -0.56745866     0.00055013    -0.00040617    -0.00007431
     6
  Step:     8            Position(A)                                  Velocity(au)
C        -0.04279627     0.01804879    -0.04171610    -0.00004436     0.00011375    -0.00139381
N        -0.04741223    -0.05064959     1.35571911    -0.00014089     0.00005938     0.00124315
H         0.94784402    -0.01089552    -0.53956548     0.00021833    -0.00029293    -0.00084078
H         0.88338667    -0.15510469     1.81673905     0.00077873    -0.00082059     0.00089221
H        -0.91968386    -0.08253126     1.84110720     0.00113390    -0.00066743    -0.00053871
H        -0.95565746     0.06751918    -0.56869535     0.00035556    -0.00039981    -0.00017924
     6
  Step:     9            Position(A)                                  Velocity(au)
C        -0.04309957     0.01932610    -0.05776221    -0.00000820     0.00011871    -0.00152001
N        -0.04879166    -0.05001802     1.36997118    -0.00010168     0.00005735     0.00134390
H         0.94941663    -0.01408341    -0.54855666     0.00007118    -0.00028948    -0.00080557
H         0.89047872    -0.16409056     1.82648750     0.00049044    -0.00082009     0.00087850
H        -0.90814479    -0.09002527     1.83618925     0.00087039    -0.00071103    -0.00030132
H        -0.95307706     0.06318890    -0.57137994     0.00007887    -0.00039088    -0.00033436
     6
  Step:    10            Position(A)                                  Velocity(au)
C        -0.04297572     0.02064569    -0.07496922     0.00003187     0.00012170    -0.00160875
N        -0.04963678    -0.04939505     1.38511946    -0.00004570     0.00005789     0.00140943
H         0.94940131    -0.01722853    -0.55718878    -0.00006451    -0.00028542    -0.00077917
H         0.89411597    -0.17304580     1.83595786     0.00016273    -0.00081635     0.00084869
H        -0.90064246    -0.09808643     1.83451535     0.00041507    -0.00077245     0.00004060
H        -0.95393212     0.05896802    -0.57601020    -0.00025783    -0.00038060    -0.00052615
     6
  Step:    11            Position(A)                                  Velocity(au)
C        -0.04240241     0.02198857    -0.09295663     0.00007170     0.00012320    -0.00166593
N        -0.04979151    -0.04875150     1.40080523     0.00002033     0.00006108     0.00144567
H         0.94800531    -0.02032745    -0.56560257    -0.00017426    -0.00028139    -0.00076909
H         0.89403869    -0.18194971     1.84505412    -0.00017234    -0.00081272     0.00081708
H        -0.89906433    -0.10692408     1.83707738    -0.00017076    -0.00085219     0.00044818
H        -0.95871757     0.05486245    -0.58289049    -0.00061951    -0.00037060    -0.00073434
     6
  Step:    12            Position(A)                                  Velocity(au)
C        -0.04140707     0.02334081    -0.11141474     0.00010672     0.00012361    -0.00169799
N        -0.04919201    -0.04805879     1.41674629     0.00008696     0.00006672     0.00145990
H         0.94558905    -0.02338444    -0.57401405    -0.00024511    -0.00027813    -0.00078137
H         0.89034571    -0.19082562     1.85383309    -0.00048185    -0.00081384     0.00079719
H        -0.90437807    -0.11672976     1.84432005    -0.00078909    -0.00094603     0.00086618
H        -0.96748503     0.05086044    -0.59207518    -0.00096406    -0.00036222    -0.00093598
     6
  Step:    13            Position(A)                                  Velocity(au)
C        -0.04006764     0.02469272    -0.13010338     0.00013272     0.00012326    -0.00171074
N        -0.04788903    -0.04729181     1.43274340     0.00014395     0.00007442     0.00145916
H         0.94264312    -0.02641200    -0.58269655    -0.00026699    -0.00027636    -0.00082017
H         0.88349731    -0.19975396     1.86249421    -0.00073365    -0.00082540     0.00080135
H        -0.91632721    -0.12762038     1.85602667    -0.00133037    -0.00104527     0.00123759
H        -0.97980830     0.04693828    -0.60336686    -0.00125082    -0.00035612    -0.00111046
     6
  Step:    14            Position(A)                                  Velocity(au)
C        -0.03850353     0.02603744    -0.14884049     0.00014667     0.00012235    -0.00170872
N        -0.04604284    -0.04643060     1.44866822     0.00018272     0.00008374     0.00144879
H         0.93974809    -0.02943032    -0.59195676    -0.00023430    -0.00027669    -0.00088718
H         0.87429578    -0.20888284     1.87136411    -0.00089911    -0.00085381     0.00083992
H        -0.93348250    -0.13959701     1.87139463    -0.00170478    -0.00113907     0.00151904
H        -0.99484901     0.04306958    -0.61636860    -0.00144858    -0.00035216    -0.00124342
     6
  Step:    15            Position(A)                                  Velocity(au)
C        -0.03685901     0.02736933    -0.16748497     0.00014720     0.00012090    -0.00169494
N        -0.04389168    -0.04545978     1.46443846     0.00019820     0.00009435     0.00143183
H         0.93751732    -0.03246523    -0.60210536    -0.00014750    -0.00027936    -0.00098115
H         0.86382748    -0.21843273     1.88086901    -0.00095727    -0.00090533     0.00091991
H        -0.95362245    -0.15253968     1.88925862    -0.00186331    -0.00121768     0.00168928
H        -1.01149870     0.03923415    -0.63056899    -0.00154016    -0.00034940    -0.00132830
     6
  Step:    16            Position(A)                                  Velocity(au)
C        -0.03528320     0.02868228    -0.18592047     0.00013477     0.00011884    -0.00167125
N        -0.04170687    -0.04436662     1.47999228     0.00018939     0.00010611     0.00140952
H         0.93652131    -0.03554182    -0.61342132    -0.00001431    -0.00028422    -0.00109759
H         0.85335363    -0.22868877     1.89148881    -0.00090009    -0.00098491     0.00104276
H        -0.97424604    -0.16623599     1.90835095    -0.00180060    -0.00127488     0.00174810
H        -1.02854291     0.03542580    -0.64542777    -0.00152272    -0.00034674    -0.00136571
     6
  Step:    17            Position(A)                                  Velocity(au)
C        -0.03391073     0.02996927    -0.20404671     0.00011135     0.00011607    -0.00163904
N        -0.03974831    -0.04313849     1.49527434     0.00015894     0.00011900     0.00138234
H         0.93720427    -0.03868316    -0.62611735     0.00015028    -0.00029066    -0.00122904
H         0.84413639    -0.23997955     1.90368136    -0.00073716    -0.00109442     0.00120232
H        -0.99301407    -0.18043017     1.92750169    -0.00154367    -0.00130866     0.00170945
H        -1.04481108     0.03164866    -0.66044643    -0.00140485    -0.00034316    -0.00136124
     6
  Step:    18            Position(A)                                  Velocity(au)
C        -0.03284727     0.03122155    -0.22177767     0.00007999     0.00011241    -0.00159958
N        -0.03822982    -0.04176324     1.51023357     0.00011207     0.00013289     0.00135084
H         0.93980904    -0.04190048    -0.64030883     0.00032570    -0.00029730    -0.00136578
H         0.83722695    -0.25263121     1.91779185    -0.00049728    -0.00123089     0.00138406
H        -1.00801684    -0.19486542     1.94574848    -0.00113649    -0.00132033     0.00159374
H        -1.05927668     0.02791861    -0.67520753    -0.00120238    -0.00033772    -0.00132314
     6
  Step:    19            Position(A)                                  Velocity(au)
C        -0.03216084     0.03242840    -0.23904050     0.00004423     0.00010767    -0.00155401
N        -0.03729654    -0.04023125     1.52482660     0.00005553     0.00014741     0.00131595
H         0.94432961    -0.04518718    -0.65599640     0.00048885    -0.00030234    -0.00149731
H         0.83325736    -0.26690767     1.93396042    -0.00022504    -0.00138592     0.00156636
H        -1.01787696    -0.20931501     1.96236775    -0.00062772    -0.00131350     0.00142226
H        -1.07111539     0.02426032    -0.68939272    -0.00093472    -0.00032980    -0.00126052
     6
  Step:    20            Position(A)                                  Velocity(au)
C        -0.03187969     0.03357708    -0.25577467     0.00000759     0.00010169    -0.00150339
N        -0.03701497    -0.03853841     1.53902252    -0.00000356     0.00016195     0.00127888
H         0.95050356    -0.04851479    -0.67306536     0.00061787    -0.00030379    -0.00161386
H         0.83230382    -0.28295079     1.95205901     0.00002806    -0.00154642     0.00172421
H        -1.02174949    -0.22360079     1.97686318    -0.00006429    -0.00129315     0.00121471
H        -1.07972551     0.02070368    -0.70278374    -0.00062249    -0.00031904    -0.00118234
     6
  Step:    21            Position(A)                                  Velocity(au)
C        -0.03199486     0.03465301    -0.27193007    -0.00002682     0.00009433    -0.00144857
N        -0.03737443    -0.03668819     1.55280461    -0.00005863     0.00017585     0.00124080
H         0.95784670    -0.05183323    -0.69130265     0.00069554    -0.00029985    -0.00170766
H         0.83387129    -0.30073849     1.97168090     0.00021503    -0.00169716     0.00183446
H        -1.01928348    -0.23760504     1.98894182     0.00051009    -0.00126536     0.00098890
H        -1.08473360     0.01728073    -0.71525872    -0.00028616    -0.00030543    -0.00109698
     6
  Step:    22            Position(A)                                  Velocity(au)
C        -0.03246650     0.03564072    -0.28746493    -0.00005651     0.00008555    -0.00139017
N        -0.03829769    -0.03469139     1.56616735    -0.00010428     0.00018857     0.00120241
H         0.96571989    -0.05507450    -0.71042374     0.00071146    -0.00028919    -0.00177374
H         0.83700801    -0.32007948     1.99219126     0.00030305    -0.00182392     0.00188033
H        -1.01059027    -0.25128292     1.99849730     0.00105368    -0.00123759     0.00076169
H        -1.08598581     0.01402185    -0.72678230     0.00005443    -0.00028923    -0.00101208
     6
  Step:    23            Position(A)                                  Velocity(au)
C        -0.03323112     0.03652463    -0.30234260    -0.00007962     0.00007539    -0.00132851
N        -0.03965583    -0.03256295     1.57910964    -0.00013646     0.00019997     0.00116374
H         0.97341129    -0.05815979    -0.73010662     0.00066246    -0.00027118    -0.00181003
H         0.84050099    -0.34064018     2.01281661     0.00027790    -0.00191595     0.00185375
H        -0.99623224    -0.26467971     2.00560535     0.00152488    -0.00121919     0.00055002
H        -1.08354278     0.01095329    -0.73740002     0.00037987    -0.00027093    -0.00093485
     6
  Step:    24            Position(A)                                  Velocity(au)
C        -0.03420826     0.03728996    -0.31652872    -0.00009484     0.00006395    -0.00126371
N        -0.04128302    -0.03031670     1.59162646    -0.00015237     0.00021043     0.00112411
H         0.98021238    -0.06100718    -0.75002170     0.00055175    -0.00024590    -0.00181699
H         0.84308767    -0.36199447     2.03274561     0.00014318    -0.00196738     0.00175528
H        -0.97723071    -0.27795498     2.01052993     0.00188158    -0.00122187     0.00037132
H        -1.07767548     0.00809473    -0.74723393     0.00067104    -0.00025124    -0.00087214
     6
  Step:    25            Position(A)                                  Velocity(au)
C        -0.03530585     0.03792372    -0.32998873    -0.00010130     0.00005145    -0.00119567
N        -0.04298920    -0.02795939     1.60370167    -0.00015033     0.00022082     0.00108232
H         0.98548180    -0.06353936    -0.76985672     0.00038750    -0.00021403    -0.00179695
H         0.84363329    -0.38368031     2.05121674    -0.00008414    -0.00197712     0.00159220
H        -0.95506910    -0.29141046     2.01372874     0.00208350    -0.00125950     0.00024270
H        -1.06886256     0.00545704    -0.75647981     0.00090929    -0.00023103    -0.00083051
     6
  Step:    26            Position(A)                                  Velocity(au)
C        -0.03642435     0.03841544    -0.34268640    -0.00009848     0.00003813    -0.00112420
N        -0.04457168    -0.02548593     1.61530430    -0.00012986     0.00023231     0.00103709
H         0.98868963    -0.06568951    -0.78933333     0.00018115    -0.00017680    -0.00175355
H         0.84124690    -0.40524778     2.06757799    -0.00037899    -0.00194814     0.00137606
H        -0.93165024    -0.30550889     2.01583945     0.00209893    -0.00134644     0.00017787
H        -1.05778308     0.00304051    -0.76540289     0.00107715    -0.00021140    -0.00081601
     6
  Step:    27            Position(A)                                  Velocity(au)
C        -0.03746039     0.03875799    -0.35458284    -0.00008625     0.00002435    -0.00104908
N        -0.04583017    -0.02287718     1.62638996    -0.00009219     0.00024605     0.00098752
H         0.98944479    -0.06740715    -0.80821909    -0.00005390    -0.00013584    -0.00169129
H         0.83534216    -0.42629957     2.08132062    -0.00071246    -0.00188644     0.00112064
H        -0.90915092    -0.32086633     2.01761994     0.00191548    -0.00149363     0.00018238
H        -1.04529781     0.00083235    -0.77433167     0.00115986    -0.00019354    -0.00083372
     6
  Step:    28            Position(A)                                  Velocity(au)
C        -0.03831117     0.03894806    -0.36563708    -0.00006496     0.00001045    -0.00097021
N        -0.04658860    -0.02010306     1.63690821    -0.00004083     0.00026265     0.00093359
H         0.98751036    -0.06866123    -0.82633363    -0.00030321    -0.00009305    -0.00161513
H         0.82566046    -0.44651721     2.09209422    -0.00105442    -0.00180024     0.00084071
H        -0.88974537    -0.33818498     2.01982927     0.00155106    -0.00170260     0.00024858
H        -1.03240900    -0.00119360    -0.78364220     0.00114799    -0.00017863    -0.00088661
     6
  Step:    29            Position(A)                                  Velocity(au)
C        -0.03888141     0.03898653    -0.37580798    -0.00003571    -0.00000318    -0.00088771
N        -0.04672332    -0.01713113     1.64681407     0.00001819     0.00028175     0.00087634
H         0.98281153    -0.06944277    -0.84355304    -0.00055177    -0.00005053    -0.00153035
H         0.81227475    -0.46568323     2.09971278    -0.00137489    -0.00169967     0.00055138
H        -0.87521846    -0.35811397     2.02305810     0.00105892    -0.00195969     0.00035335
H        -1.02018336    -0.00307561    -0.79372806     0.00104057    -0.00016763    -0.00097431
     6
  Step:    30            Position(A)                                  Velocity(au)
C        -0.03909250     0.03887852    -0.38505738    -0.00000058    -0.00001614    -0.00080205
N        -0.04619058    -0.01393925     1.65607982     0.00007690     0.00030186     0.00081763
H         0.97543930    -0.06976669    -0.85981295    -0.00078439    -0.00001052    -0.00144253
H         0.79558215    -0.48370076     2.10415661    -0.00164506    -0.00159657     0.00026778
H        -0.86657942    -0.38105701     2.02755950     0.00052007    -0.00223433     0.00046165
H        -1.00964445    -0.00486077    -0.80495700     0.00084775    -0.00016107    -0.00109180
     6
  Step:    31            Position(A)                                  Velocity(au)
C        -0.03889410     0.03863339    -0.39335426     0.00003738    -0.00002807    -0.00071407
N        -0.04504102    -0.01052740     1.66470139     0.00012696     0.00032072     0.00075952
H         0.96565157    -0.06967297    -0.87511105    -0.00098592     0.00002466    -0.00135738
H         0.77628602    -0.50061125     2.10557100    -0.00183856    -0.00150408     0.00000462
H        -0.86384091    -0.40699421     2.03315753     0.00002314    -0.00248407     0.00053595
H        -1.00163711    -0.00659935    -0.81761331     0.00059170    -0.00015896    -0.00122881
     6
  Step:    32            Position(A)                                  Velocity(au)
C        -0.03827473     0.03826445    -0.40067899     0.00007431    -0.00003861    -0.00062497
N        -0.04341309    -0.00692292     1.67269570     0.00016156     0.00033599     0.00070346
H         0.95387031    -0.06922720    -0.88950824    -0.00114188     0.00005270    -0.00128060
H         0.75536017    -0.51660543     2.10425778    -0.00193352    -0.00143564    -0.00022477
H        -0.86607310    -0.43540078     2.03928450    -0.00035943    -0.00266533     0.00054732
H        -0.99669989    -0.00833827    -0.83183951     0.00030428    -0.00016074    -0.00137031
     6
  Step:    33            Position(A)                                  Velocity(au)
C        -0.03726835     0.03778871    -0.40702670     0.00010608    -0.00004743    -0.00053616
N        -0.04150659    -0.00317705     1.68009100     0.00017677     0.00034589     0.00064999
H         0.94067081    -0.06852000    -0.90312655    -0.00123921     0.00007142    -0.00121744
H         0.73398653    -0.53201871     2.10065369    -0.00191555    -0.00140281    -0.00041006
H        -0.87170413    -0.46530337     2.04513120    -0.00058747    -0.00274456     0.00048252
H        -0.99498038    -0.01011579    -0.84759156     0.00002181    -0.00016551    -0.00149851
     6
  Step:    34            Position(A)                                  Velocity(au)
C        -0.03595399     0.03722679    -0.41240851     0.00012896    -0.00005421    -0.00044907
N        -0.03954597     0.00064399     1.68691537     0.00017193     0.00034944     0.00059873
H         0.92676021    -0.06766473    -0.91614201    -0.00126774     0.00007894    -0.00117202
H         0.71345386    -0.54729458     2.09528696    -0.00178104    -0.00141206    -0.00054581
H        -0.87892514    -0.49544336     2.04984047    -0.00065523    -0.00270457     0.00034448
H        -0.99622285    -0.01195903    -0.86462236    -0.00022182    -0.00017232    -0.00159558
     6
  Step:    35            Position(A)                                  Velocity(au)
C        -0.03444713     0.03660278    -0.41685102     0.00014030    -0.00005864    -0.00036503
N        -0.03774528     0.00446752     1.69318930     0.00014922     0.00034617     0.00054891
H         0.91293668    -0.06679311    -0.92876683    -0.00122201     0.00007396    -0.00114627
H         0.69502278    -0.56291032     2.08871310    -0.00153964    -0.00146124    -0.00063308
H        -0.88603850    -0.52447104     2.05266745    -0.00058264    -0.00254417     0.00014767
H        -0.99983301    -0.01388571    -0.88249791    -0.00040104    -0.00018048    -0.00164647
     6
  Step:    36            Position(A)                                  Velocity(au)
C        -0.03288473     0.03594398    -0.42039420     0.00013896    -0.00006046    -0.00028512
N        -0.03628149     0.00821718     1.69892387     0.00011274     0.00033565     0.00049978
H         0.90002642    -0.06604666    -0.94121880    -0.00110306     0.00005615    -0.00113877
H         0.67977123    -0.57926189     2.08143704    -0.00121439    -0.00153693    -0.00067978
H        -0.89167145    -0.55110192     2.05307094    -0.00040304    -0.00227367    -0.00008814
H        -1.00499645    -0.01590732    -0.90064199    -0.00050205    -0.00018955    -0.00164092
     6
  Step:    37            Position(A)                                  Velocity(au)
C        -0.03140704     0.03528012    -0.42308859     0.00012545    -0.00005953    -0.00021021
N        -0.03527881     0.01181052     1.70412301     0.00006758     0.00031713     0.00045082
H         0.88880510    -0.06556469    -0.95367965    -0.00091956     0.00002640    -0.00114399
H         0.66845559    -0.59653361     2.07384158    -0.00083855    -0.00161503    -0.00069904
H        -0.89485573    -0.57421192     2.05073921    -0.00015311    -0.00190977    -0.00034269
H        -1.01081626    -0.01803244    -0.91839621    -0.00052267    -0.00019930    -0.00157415
     6
  Step:    38            Position(A)                                  Velocity(au)
C        -0.03014027     0.03464156    -0.42499294     0.00010167    -0.00005592    -0.00014094
N        -0.03480309     0.01515509     1.70878643     0.00001893     0.00028968     0.00040170
H         0.87990925    -0.06546915    -0.96624584    -0.00068783    -0.00001299    -0.00115214
H         0.66142629    -0.61459386     2.06614427    -0.00044956    -0.00166494    -0.00070608
H        -0.89502102    -0.59288170     2.04557398     0.00013285    -0.00147192    -0.00059809
H        -1.01643076    -0.02026733    -0.93507945    -0.00046992    -0.00020942    -0.00144646
     6
  Step:    39            Position(A)                                  Velocity(au)
C        -0.02918282     0.03405675    -0.42617187     0.00007053    -0.00004992    -0.00007773
N        -0.03486473     0.01814788     1.71291106    -0.00002851     0.00025260     0.00035215
H         0.87375744    -0.06584893    -0.97888497    -0.00043004    -0.00005846    -0.00115035
H         0.65862051    -0.63295741     2.05839462    -0.00008217    -0.00165653    -0.00071471
H        -0.89194927    -0.60641303     2.03765475     0.00042471    -0.00098101    -0.00083980
H        -1.02109658    -0.02261399    -0.95004026    -0.00035666    -0.00021940    -0.00126247
     6
  Step:    40            Position(A)                                  Velocity(au)
C        -0.02859726     0.03354938    -0.42669347     0.00003541    -0.00004207    -0.00002078
N        -0.03542684     0.02068114     1.71649040    -0.00007088     0.00020597     0.00030177
H         0.87050122    -0.06674800    -0.99141197    -0.00017092    -0.00010571    -0.00112485
H         0.65962862    -0.65083359     2.05050870     0.00023700    -0.00156718    -0.00073456
H        -0.88572971    -0.61434307     2.02720180     0.00069560    -0.00045960    -0.00105628
H        -1.02423332    -0.02506712    -0.96269845    -0.00019854    -0.00022851    -0.00103011
     6
  Step:    41            Position(A)                                  Velocity(au)
C        -0.02840825     0.03313639    -0.42662648    -0.00000037    -0.00003300     0.00003001
N        -0.03641533     0.02265380     1.71951277    -0.00010517     0.00015104     0.00024998
H         0.87001820    -0.06816144    -1.00349318     0.00006614    -0.00015049    -0.00106347
H         0.66380524    -0.66724243     2.04232463     0.00049193    -0.00138620    -0.00077011
H        -0.87673172    -0.61646765     2.01454657     0.00091991     0.00006700    -0.00123817
H        -1.02543994    -0.02761303    -0.97257589    -0.00001203    -0.00023607    -0.00075967
     6
  Step:    42            Position(A)                                  Velocity(au)
C        -0.02860529     0.03282736    -0.42603699    -0.00003386    -0.00002336     0.00007503
N        -0.03772766     0.02398549     1.72195929    -0.00012905     0.00009030     0.00019608
H         0.87194811    -0.07004034    -1.01467736     0.00026249    -0.00018931    -0.00095773
H         0.67039059    -0.68115940     2.03366117     0.00067677    -0.00111543    -0.00082102
H        -0.86560499    -0.61287742     2.00011437     0.00107104     0.00056993    -0.00137725
H        -1.02449647    -0.03023167    -0.97931771     0.00018661    -0.00024171    -0.00046292
     6
  Step:    43            Position(A)                                  Velocity(au)
C        -0.02914894     0.03262528    -0.42498498    -0.00006275    -0.00001368     0.00011503
N        -0.03923863     0.02462926     1.72380249    -0.00014060     0.00002721     0.00013926
H         0.87576078    -0.07230306    -1.02444543     0.00040629    -0.00021979    -0.00080402
H         0.67861079    -0.69164457     2.02436333     0.00079346    -0.00076693    -0.00088359
H        -0.85330070    -0.60399936     1.98441662     0.00112018     0.00101691    -0.00146589
H        -1.02135746    -0.03290084    -0.98270324     0.00038171    -0.00024544    -0.00015238
     6
  Step:    44            Position(A)                                  Velocity(au)
C        -0.02997800     0.03252811    -0.42352048    -0.00008534    -0.00000434     0.00015107
N        -0.04080360     0.02458081     1.72500585    -0.00013819    -0.00003415     0.00007873
H         0.88083659    -0.07484866    -1.03226673     0.00049266    -0.00024069    -0.00060355
H         0.68774897    -0.69793745     2.01433099     0.00084915    -0.00035970    -0.00095226
H        -0.84109884    -0.59063057     1.96804521     0.00103751     0.00137433    -0.00149752
H        -1.01614590    -0.03560113    -0.98265125     0.00055805    -0.00024772     0.00015914
     6