     6
  Step:   300            Position(A)                                  Velocity(au)
C        -0.02746214    -0.00189014     0.02908294    -0.00002806     0.00000205     0.00000706
N        -0.03140333    -0.04885498     1.28623914     0.00010452     0.00004789     0.00001138
H         0.11334530    -0.85084451    -0.63501611    -0.00168041     0.00014335    -0.00028274
H        -0.31799701     0.77481057     1.84908015    -0.00240726    -0.00092426     0.00018565
H        -0.14140028    -0.88359649     1.86584011     0.00116125     0.00021751     0.00038317
H        -0.10326813     0.99125307    -0.40842230     0.00180831    -0.00012658    -0.00052832
