     6
  Step:     0            Position(A)                                  Velocity(au)
C        -0.03790572     0.02270564    -0.00403240     0.00008353     0.00007040    -0.00009548
N        -0.05527384    -0.04508591     1.31315561     0.00012479    -0.00005441     0.00004848
H         0.95488660    -0.05286951    -0.49944622    -0.00004223    -0.00002034    -0.00003677
H         0.88371046    -0.18491590     1.83999634    -0.00030090     0.00001715     0.00007987
H        -0.86180987    -0.10729988     1.87758201    -0.00136312     0.00031021     0.00080053
H        -0.96993284     0.03127464    -0.52611306    -0.00102325    -0.00038981    -0.00037948
     6
  Step:     1            Position(A)                                  Velocity(au)
C        -0.03741659     0.02312409    -0.00481991     0.00009419     0.00008264    -0.00019230
N        -0.05450718    -0.04538148     1.31365708     0.00015359    -0.00005376     0.00013531
H         0.95455463    -0.05308596    -0.49964436    -0.00007756    -0.00005928    -0.00003652
H         0.88159978    -0.18485837     1.84018162    -0.00046673     0.00000333    -0.00000996
H        -0.86993796    -0.10576341     1.88228250    -0.00158591     0.00025354     0.00090244
H        -0.97584455     0.02901811    -0.52838473    -0.00112663    -0.00043530    -0.00044467
     6
  Step:     2            Position(A)                                  Velocity(au)
C        -0.03687539     0.02360962    -0.00613595     0.00010245     0.00009485    -0.00028822
N        -0.05359371    -0.04567395     1.31463573     0.00017816    -0.00005323     0.00022252
H         0.95403823    -0.05351795    -0.49984572    -0.00010918    -0.00009906    -0.00003828
H         0.87860507    -0.18487944     1.83988735    -0.00062193    -0.00001177    -0.00009417
H        -0.87915768    -0.10452650     1.88745353    -0.00176013     0.00020062     0.00097151
H        -0.98225668     0.02651300    -0.53097719    -0.00120540    -0.00048031    -0.00049668
     6
  Step:     3            Position(A)                                  Velocity(au)
C        -0.03629568     0.02416181    -0.00797336     0.00010811     0.00010686    -0.00038210
N        -0.05255791    -0.04596385     1.31609165     0.00019795    -0.00005273     0.00030907
H         0.95336004    -0.05416981    -0.50006319    -0.00013616    -0.00013945    -0.00004269
H         0.87479523    -0.18498720     1.83915136    -0.00076193    -0.00002854    -0.00016997
H        -0.88919547    -0.10356839     1.89291176    -0.00188259     0.00015142     0.00100648
H        -0.98903275     0.02376310    -0.53381884    -0.00125830    -0.00052402    -0.00053551
     6
  Step:     4            Position(A)                                  Velocity(au)
C        -0.03569195     0.02477936    -0.01031876     0.00011102     0.00011847    -0.00047260
N        -0.05142681    -0.04625114     1.31801905     0.00021250    -0.00005214     0.00039366
H         0.95254772    -0.05504454    -0.50031304    -0.00015755    -0.00018011    -0.00005031
H         0.87026426    -0.18519183     1.83802670    -0.00088184    -0.00004731    -0.00023446
H        -0.89976619    -0.10286894     1.89847140    -0.00195187     0.00010585     0.00100752
H        -0.99603120     0.02077659    -0.53683940    -0.00128464    -0.00056555    -0.00056149
     6
  Step:     5            Position(A)                                  Velocity(au)
C        -0.03507929     0.02545989    -0.01315156     0.00011110     0.00012949    -0.00055828
N        -0.05022959    -0.04653518     1.32040487     0.00022148    -0.00005137     0.00047479
H         0.95163380    -0.05614322    -0.50061445    -0.00017250    -0.00022059    -0.00006161
H         0.86513307    -0.18550561     1.83658238    -0.00097663    -0.00006845    -0.00028471
H        -0.91058164    -0.10240859     1.90395092    -0.00196828     0.00006386     0.00097607
H        -1.00310823     0.01756647    -0.53997100    -0.00128429    -0.00060397    -0.00057507
     6
  Step:     6            Position(A)                                  Velocity(au)
C        -0.03447309     0.02619990    -0.01644336     0.00010836     0.00013968    -0.00063760
N        -0.04899705    -0.04681468     1.32322778     0.00022465    -0.00005029     0.00055084
H         0.95065534    -0.05746459    -0.50098890    -0.00018026    -0.00026041    -0.00007689
H         0.85955003    -0.18594282     1.83490324    -0.00104149    -0.00009227    -0.00031797
H        -0.92135935    -0.10216833     1.90917940    -0.00193373     0.00002540     0.00091468
H        -1.01012057     0.01415074    -0.54314827    -0.00125769    -0.00063834    -0.00057667
     6
  Step:     7            Position(A)                                  Velocity(au)
C        -0.03388858     0.02699472    -0.02015768     0.00010288     0.00014884    -0.00070913
N        -0.04776104    -0.04708774     1.32645760     0.00022195    -0.00004880     0.00062019
H         0.94965313    -0.05900464    -0.50145933    -0.00018028    -0.00029901    -0.00009631
H         0.85368895    -0.18651951     1.83308851    -0.00107234    -0.00011901    -0.00033194
H        -0.93182987    -0.10212950     1.91400157    -0.00185164    -0.00000958     0.00082686
H        -1.01692792     0.01055223    -0.54630755    -0.00120599    -0.00066786    -0.00056692
     6
  Step:     8            Position(A)                                  Velocity(au)
C        -0.03334045     0.02783853    -0.02425037     0.00009483     0.00015679    -0.00077157
N        -0.04655355    -0.04735193     1.33005566     0.00021349    -0.00004682     0.00068140
H         0.94867061    -0.06075645    -0.50204915    -0.00017228    -0.00033586    -0.00011979
H         0.84774435    -0.18725302     1.83124883    -0.00106627    -0.00014880    -0.00032507
H        -0.94174456    -0.10227379     1.91828255    -0.00172694    -0.00004113     0.00071697
H        -1.02339765     0.00679815    -0.54938967    -0.00113125    -0.00069181    -0.00054692
     6
  Step:     9            Position(A)                                  Velocity(au)
C        -0.03284227     0.02872457    -0.02867057     0.00008449     0.00016337    -0.00082390
N        -0.04540561    -0.04760436     1.33397563     0.00019959    -0.00004430     0.00073326
H         0.94775233    -0.06271024    -0.50278105    -0.00015632    -0.00037047    -0.00014708
H         0.84192455    -0.18816122     1.82950197    -0.00102190    -0.00018164    -0.00029669
H        -0.95088357    -0.10258328     1.92191210    -0.00156585    -0.00006934     0.00058996
H        -1.02940921     0.00291936    -0.55234185    -0.00103626    -0.00070972    -0.00051807
     6
  Step:    10            Position(A)                                  Velocity(au)
C        -0.03240606     0.02964530    -0.03336219     0.00007220     0.00016851    -0.00086551
N        -0.04434625    -0.04784183     1.33816502     0.00018078    -0.00004120     0.00077498
H         0.94694185    -0.06485357    -0.50367577    -0.00013284    -0.00040244    -0.00017767
H         0.83644284    -0.18926178     1.82796759    -0.00093973    -0.00021737    -0.00024725
H        -0.95906185    -0.10304063     1.92480714    -0.00137546    -0.00009434     0.00045100
H        -1.03485804    -0.00105086    -0.55511916    -0.00092452    -0.00072138    -0.00048201
     6
  Step:    11            Position(A)                                  Velocity(au)
C        -0.03204184     0.03059277    -0.03826603     0.00005838     0.00017220    -0.00089625
N        -0.04340138    -0.04806107     1.34256749     0.00015779    -0.00003753     0.00080628
H         0.94627955    -0.06717191    -0.50475084    -0.00010272    -0.00043153    -0.00021089
H         0.83150627    -0.19057108     1.82676084    -0.00082237    -0.00025566    -0.00017834
H        -0.96613258    -0.10362922     1.92691215    -0.00116330    -0.00011634     0.00030520
H        -1.03965889    -0.00507821    -0.55768569    -0.00079995    -0.00072690    -0.00044057
     6
  Step:    12            Position(A)                                  Velocity(au)
C        -0.03175726     0.03155899    -0.04332254     0.00008114     0.00032553    -0.00170983
N        -0.04259270    -0.04825888     1.34712558     0.00024530    -0.00006219     0.00154362
H         0.94580032    -0.06964937    -0.50601944    -0.00012524    -0.00085382    -0.00045879
H         0.82730350    -0.19210308     1.82598562    -0.00125830    -0.00055227    -0.00017290
H        -0.97199006    -0.10433352     1.92819898    -0.00174831    -0.00025297     0.00029367
H        -1.04374824    -0.00912915    -0.56001543    -0.00124387    -0.00135572    -0.00073811
     6
  Step:    13            Position(A)                                  Velocity(au)
C        -0.03134763     0.03334605    -0.05256104     0.00006378     0.00030809    -0.00156385
N        -0.04131739    -0.04859431     1.35551970     0.00020533    -0.00005632     0.00142964
H         0.94544576    -0.07438058    -0.50896991     0.00000034    -0.00082470    -0.00058519
H         0.82083844    -0.19520619     1.82535308    -0.00101536    -0.00055210    -0.00004105
H        -0.98101772    -0.10567026     1.92947349    -0.00145044    -0.00022090     0.00015967
H        -1.05050459    -0.01659146    -0.56426743    -0.00114796    -0.00129081    -0.00076509
     6
  Step:    14            Position(A)                                  Velocity(au)
C        -0.03103721     0.03503728    -0.06097841     0.00002021     0.00012749    -0.00062078
N        -0.04027448    -0.04889477     1.36326616     0.00007148    -0.00002181     0.00057496
H         0.94580412    -0.07896022    -0.51262625     0.00005469    -0.00034967    -0.00030943
H         0.81584016    -0.19833622     1.82552214    -0.00032513    -0.00024532     0.00004717
H        -0.98836551    -0.10682743     1.93000167    -0.00050518    -0.00008283     0.00001331
H        -1.05670872    -0.02370231    -0.56865324    -0.00045845    -0.00053823    -0.00034356
     6
  Step:    15            Position(A)                                  Velocity(au)
C        -0.03097320     0.03575299    -0.06446720     0.00000287     0.00012636    -0.00061595
N        -0.03997222    -0.04900035     1.36649475     0.00003631    -0.00001569     0.00056936
H         0.94623569    -0.08098978    -0.51446596     0.00009726    -0.00036984    -0.00034249
H         0.81469657    -0.19986669     1.82617811    -0.00008226    -0.00029725     0.00018473
H        -0.99048829    -0.10733773     1.92966512    -0.00025412    -0.00009775    -0.00012791
H        -1.05883710    -0.02669317    -0.57042563    -0.00029967    -0.00052276    -0.00028656
     6
  Step:    16            Position(A)                                  Velocity(au)
C        -0.03100487     0.03646164    -0.06792185    -0.00001372     0.00012604    -0.00061391
N        -0.03986516    -0.04907166     1.36968437     0.00000269    -0.00000977     0.00056608
H         0.94690046    -0.08312930    -0.51648708     0.00013797    -0.00039190    -0.00037664
H         0.81491285    -0.20168702     1.82760450     0.00015424    -0.00035032     0.00032076
H        -0.99123011    -0.10792937     1.92855974    -0.00001719    -0.00011281    -0.00026072
H        -1.06008678    -0.02959515    -0.57188356    -0.00014884    -0.00051103    -0.00023437
     6
  Step:    17            Position(A)                                  Velocity(au)
C        -0.03112725     0.03716768    -0.07135798    -0.00002957     0.00012644    -0.00061436
N        -0.03994204    -0.04911005     1.37284862    -0.00002904    -0.00000404     0.00056503
H         0.94778434    -0.08538858    -0.51869358     0.00017618    -0.00041577    -0.00041157
H         0.81642782    -0.20379882     1.82977842     0.00037940    -0.00040359     0.00045244
H        -0.99068123    -0.10860401     1.92673869     0.00020563    -0.00012852    -0.00038508
H        -1.06050779    -0.03242920    -0.57305630    -0.00000530    -0.00050264    -0.00018683
     6
  Step:    18            Position(A)                                  Velocity(au)
C        -0.03133545     0.03787506    -0.07478957    -0.00004461     0.00012737    -0.00061647
N        -0.04018976    -0.04911683     1.37600062    -0.00005842     0.00000151     0.00056561
H         0.94886997    -0.08777708    -0.52108785     0.00021104    -0.00044100    -0.00044654
H         0.81915405    -0.20619857     1.83266223     0.00058780    -0.00045567     0.00057657
H        -0.98893149    -0.10936604     1.92425500     0.00041338    -0.00014522    -0.00050021
H        -1.06014608    -0.03521395    -0.57397211     0.00013123    -0.00049677    -0.00014378
     6
  Step:    19            Position(A)                                  Velocity(au)
C        -0.03162426     0.03858667    -0.07822601    -0.00005870     0.00012860    -0.00061925
N        -0.04059293    -0.04909327     1.37915001    -0.00008490     0.00000685     0.00056704
H         0.95013557    -0.09030170    -0.52366844     0.00024154    -0.00046691    -0.00048062
H         0.82297649    -0.20887538     1.83620194     0.00077361    -0.00050493     0.00068965
H        -0.98607576    -0.11022188     1.92116590     0.00060382    -0.00016318    -0.00060451
H        -1.05904577    -0.03796363    -0.57465810     0.00026032    -0.00049257    -0.00010522
     6
  Step:    20            Position(A)                                  Velocity(au)
C        -0.03198774     0.03930419    -0.08167125    -0.00007162     0.00012993    -0.00062179
N        -0.04113330    -0.04904072     1.38230207    -0.00010785     0.00001195     0.00056857
H         0.95155419    -0.09296573    -0.52642891     0.00026662    -0.00049278    -0.00051281
H         0.82775109    -0.21180984     1.84032625     0.00093113    -0.00054971     0.00078832
H        -0.98222129    -0.11117943     1.91753717     0.00077357    -0.00018262    -0.00069584
H        -1.05725318    -0.04068779    -0.57514139     0.00038085    -0.00048930    -0.00007142
     6
  Step:    21            Position(A)                                  Velocity(au)
C        -0.03241887     0.04002816    -0.08512414    -0.00008316     0.00013120    -0.00062330
N        -0.04178941    -0.04896065     1.38545774    -0.00012663     0.00001679     0.00056953
H         0.95309351    -0.09576858    -0.52935756     0.00028532    -0.00051794    -0.00054217
H         0.83330647    -0.21497394     1.84494755     0.00105547    -0.00058850     0.00086968
H        -0.97749371    -0.11224793     1.91344623     0.00091858    -0.00020378    -0.00077179
H        -1.05482056    -0.04339198    -0.57545042     0.00049124    -0.00048642    -0.00004282
     6
  Step:    22            Position(A)                                  Velocity(au)
C        -0.03290941     0.04075823    -0.08857929    -0.00009307     0.00013226    -0.00062322
N        -0.04253671    -0.04885466     1.38861418    -0.00014068     0.00002132     0.00056939
H         0.95471638    -0.09870602    -0.53243778     0.00029683    -0.00054181    -0.00056790
H         0.83944883    -0.21833211     1.84996493     0.00114309    -0.00062006     0.00093166
H        -0.97204067    -0.11343791     1.90898345     0.00103443    -0.00022689    -0.00082989
H        -1.05180874    -0.04607873    -0.57561597     0.00058965    -0.00048353    -0.00001998
     6
  Step:    23            Position(A)                                  Velocity(au)
C        -0.03344989     0.04149335    -0.09202813    -0.00010113     0.00013304    -0.00062113
N        -0.04334789    -0.04872449     1.39176542    -0.00014957     0.00002553     0.00056770
H         0.95638180    -0.10177069    -0.53564880     0.00030060    -0.00056391    -0.00058938
H         0.84596961    -0.22184290     1.85526847     0.00119211    -0.00064354     0.00097310
H        -0.96603430    -0.11476140     1.90425278     0.00111673    -0.00025223    -0.00086780
H        -1.04828839    -0.04874856    -0.57567177     0.00067421    -0.00048044    -0.00000349
     6
  Step:    24            Position(A)                                  Velocity(au)
C        -0.03402972     0.04223199    -0.09545986    -0.00010717     0.00013348    -0.00061679
N        -0.04419362    -0.04857184     1.39490294    -0.00015303     0.00002943     0.00056416
H         0.95804625    -0.10495278    -0.53896667     0.00029634    -0.00058392    -0.00060618
H         0.85265452    -0.22546100     1.86074443     0.00120237    -0.00065851     0.00099379
H        -0.95967007    -0.11623204     1.89937039     0.00116172    -0.00028011    -0.00088367
H        -1.04434015    -0.05140080    -0.57565460     0.00074319    -0.00047705     0.00000611
     6
  Step:    25            Position(A)                                  Velocity(au)
C        -0.03463741     0.04297236    -0.09886237    -0.00011107     0.00013357    -0.00061012
N        -0.04504346    -0.04839836     1.39801643    -0.00015096     0.00003304     0.00055856
H         0.95966526    -0.10824072    -0.54236541     0.00028406    -0.00060165    -0.00061809
H         0.85929217    -0.22913938     1.86627995     0.00117528    -0.00066491     0.00099444
H        -0.95316213    -0.11786508     1.89446149     0.00116679    -0.00031081    -0.00087638
H        -1.04005369    -0.05403441    -0.57560406     0.00079515    -0.00047341     0.00000835
     6
  Step:    26            Position(A)                                  Velocity(au)
C        -0.03526093     0.04371256    -0.10222302    -0.00011276     0.00013330    -0.00060116
N        -0.04586696    -0.04820556     1.40109455    -0.00014348     0.00003640     0.00055085
H         0.96119502    -0.11162196    -0.54581811     0.00026406    -0.00061703    -0.00062511
H         0.86568233    -0.23283140     1.87176769     0.00111365    -0.00066304     0.00097650
H        -0.94673634    -0.11967728     1.88965580     0.00113069    -0.00034460    -0.00084566
H        -1.03552596    -0.05664852    -0.57556202     0.00082908    -0.00046965     0.00000291
     6
  Step:    27            Position(A)                                  Velocity(au)
C        -0.03588796     0.04445076    -0.10552944    -0.00011224     0.00013273    -0.00059005
N        -0.04663469    -0.04799466     1.40412559    -0.00013089     0.00003956     0.00054108
H         0.96259380    -0.11508381    -0.54929811     0.00023687    -0.00063016    -0.00062744
H         0.87164293    -0.23649272     1.87710966     0.00102133    -0.00065353     0.00094200
H        -0.94062234    -0.12168682     1.88508286     0.00105372    -0.00038174    -0.00079211
H        -1.03085890    -0.05924297    -0.57557180     0.00084442    -0.00046595    -0.00001038
     6
  Step:    28            Position(A)                                  Velocity(au)
C        -0.03650633     0.04518534    -0.10877008    -0.00010958     0.00013191    -0.00057703
N        -0.04731926    -0.04776663     1.40709824    -0.00011365     0.00004257     0.00052941
H         0.96382327    -0.11861411    -0.55278003     0.00020320    -0.00064125    -0.00062542
H         0.87701481    -0.24008279     1.88221986     0.00090287    -0.00063722     0.00089335
H        -0.93504449    -0.12391297     1.88086673     0.00093786    -0.00042241    -0.00071731
H        -1.02615653    -0.06181858    -0.57567720     0.00084114    -0.00046254    -0.00003149
     6
  Step:    29            Position(A)                                  Velocity(au)
C        -0.03710434     0.04591498    -0.11193465    -0.00010490     0.00013089    -0.00056238
N        -0.04789624    -0.04752208     1.41000217    -0.00009238     0.00004551     0.00051608
H         0.96484941    -0.12220195    -0.55624054     0.00016391    -0.00065060    -0.00061953
H         0.88166515    -0.24356612     1.88702616     0.00076321    -0.00061514     0.00083319
H        -0.93021173    -0.12637572     1.87712050     0.00078681    -0.00046671    -0.00062371
H        -1.02152195    -0.06437737    -0.57592140     0.00081972    -0.00045966    -0.00006024
     6
  Step:    30            Position(A)                                  Velocity(au)
C        -0.03767105     0.04663870    -0.11501447    -0.00009835     0.00012975    -0.00054640
N        -0.04834498    -0.04726132     1.41282857    -0.00006781     0.00004842     0.00050142
H         0.96564326    -0.12583810    -0.55965905     0.00011993    -0.00065855    -0.00061029
H         0.88548916    -0.24691301     1.89147131     0.00060738    -0.00058835     0.00076421
H        -0.92630806    -0.12909510     1.87394126     0.00060587    -0.00051459    -0.00051461
H        -1.01705465    -0.06692250    -0.57634606     0.00078107    -0.00045751    -0.00009625
     6
  Step:    31            Position(A)                                  Velocity(au)
C        -0.03819654     0.04735589    -0.11800253    -0.00009014     0.00012855    -0.00052938
N        -0.04864928    -0.04698435     1.41557053    -0.00004078     0.00005136     0.00048577
H         0.96618127    -0.12951533    -0.56301797     0.00007223    -0.00066549    -0.00059826
H         0.88841022    -0.25009994     1.89551292     0.00044028    -0.00055798     0.00068899
H        -0.92348340    -0.13209039     1.87140562     0.00040178    -0.00056585    -0.00039395
H        -1.01284799    -0.06945814    -0.57699027     0.00072649    -0.00045624    -0.00013898
     6
  Step:    32            Position(A)                                  Velocity(au)
C        -0.03867211     0.04806631    -0.12089345    -0.00008050     0.00012735    -0.00051160
N        -0.04879782    -0.04669095     1.41822318    -0.00001217     0.00005436     0.00046949
H         0.96644539    -0.13322853    -0.56630287     0.00002177    -0.00067176    -0.00058396
H         0.89037859    -0.25310954     1.89912274     0.00026651    -0.00052507     0.00060992
H        -0.92184616    -0.13537909     1.86956630     0.00018238    -0.00062009    -0.00026617
H        -1.00898670    -0.07198916    -0.57788953     0.00065769    -0.00045592    -0.00018773
     6
  Step:    33            Position(A)                                  Velocity(au)
C        -0.03909044     0.04876995    -0.12368335    -0.00006968     0.00012617    -0.00049327
N        -0.04878438    -0.04638077     1.42078377     0.00001710     0.00005743     0.00045293
H         0.96642304    -0.13697457    -0.56950229    -0.00003049    -0.00067770    -0.00056790
H         0.89136952    -0.25593033     1.90228549     0.00009031    -0.00049063     0.00052920
H        -0.92145823    -0.13897589     1.86845013    -0.00004381    -0.00067670    -0.00013591
H        -1.00554501    -0.07452064    -0.57907481     0.00057664    -0.00045653    -0.00024160
     6
  Step:    34            Position(A)                                  Velocity(au)
C        -0.03944570     0.04946702    -0.12636958    -0.00005795     0.00012505    -0.00047457
N        -0.04860794    -0.04605337     1.42325147     0.00004613     0.00006058     0.00043638
H         0.96610691    -0.14075212    -0.57260751    -0.00008364    -0.00068357    -0.00055051
H         0.89138123    -0.25855631     1.90499768    -0.00008437    -0.00045558     0.00044879
H        -0.92233252    -0.14289158     1.86805753    -0.00026804    -0.00073488    -0.00000782
H        -1.00258504    -0.07705743    -0.58057172     0.00048560    -0.00045799    -0.00029957
     6
  Step:    35            Position(A)                                  Velocity(au)
C        -0.03973360     0.05015783    -0.12895036    -0.00004559     0.00012399    -0.00045559
N        -0.04827246    -0.04570837     1.42562698     0.00007402     0.00006381     0.00042006
H         0.96549474    -0.14456126    -0.57561222    -0.00013680    -0.00068956    -0.00053218
H         0.89043312    -0.26098666     1.90726639    -0.00025388    -0.00042082     0.00037049
H        -0.92443308    -0.14713199     1.86836331    -0.00048175    -0.00079363     0.00011367
H        -1.00015551    -0.07960363    -0.58239962     0.00038704    -0.00046008    -0.00036044
     6
  Step:    36            Position(A)                                  Velocity(au)
C        -0.03995149     0.05084269    -0.13142456    -0.00003288     0.00012297    -0.00043644
N        -0.04778668    -0.04534542     1.42791223     0.00009996     0.00006707     0.00040415
H         0.96458910    -0.14840310    -0.57851223    -0.00018910    -0.00069579    -0.00051322
H         0.88856434    -0.26322545     1.90910839    -0.00041474    -0.00038719     0.00029596
H        -0.92767776    -0.15169719     1.86931876    -0.00067704    -0.00085182     0.00022461
H        -0.99829062    -0.08216220    -0.58457090     0.00028364    -0.00046256    -0.00042286
     6
  Step:    37            Position(A)                                  Velocity(au)
C        -0.04009832     0.05152183    -0.13379156    -0.00002013     0.00012197    -0.00041719
N        -0.04716369    -0.04496434     1.43010997     0.00012320     0.00007037     0.00038875
H         0.96339714    -0.15227932    -0.58130508    -0.00023975    -0.00070229    -0.00049393
H         0.88583264    -0.26528159     1.91054930    -0.00056364    -0.00035558     0.00022674
H        -0.93194318    -0.15658080     1.87085477    -0.00084704    -0.00090823     0.00032165
H        -0.99700926    -0.08473458    -0.58709019     0.00017818    -0.00046514    -0.00048539
     6
  Step:    38            Position(A)                                  Velocity(au)
C        -0.04017470     0.05219537    -0.13605126    -0.00000761     0.00012098    -0.00039797
N        -0.04642035    -0.04456507     1.43222352     0.00014312     0.00007365     0.00037397
H         0.96193028    -0.15619155    -0.58398991    -0.00028800    -0.00070896    -0.00047456
H         0.88231350    -0.26716891     1.91162299    -0.00069744    -0.00032693     0.00016428
H        -0.93707151    -0.16176958     1.87288586    -0.00098621    -0.00096158     0.00040223
H        -0.99631456    -0.08732065    -0.58995387     0.00007352    -0.00046756    -0.00054646
     6
  Step:    39            Position(A)                                  Velocity(au)
C        -0.04018271     0.05286325    -0.13820444     0.00000442     0.00011994    -0.00037898
N        -0.04557675    -0.04414768     1.43425669     0.00015917     0.00007691     0.00035989
H         0.96020371    -0.16014055    -0.58656721    -0.00033325    -0.00071547    -0.00045538
H         0.87809915    -0.26890674     1.91237085    -0.00081318    -0.00030236     0.00010983
H        -0.94287872    -0.16724314     1.87531487    -0.00109060    -0.00101046     0.00046470
H        -0.99619405    -0.08991906    -0.59314953    -0.00002758    -0.00046972    -0.00060442
     6
  Step:    40            Position(A)                                  Velocity(au)
C        -0.04012567     0.05352525    -0.14025315     0.00001582     0.00011884    -0.00036052
N        -0.04465554    -0.04371236     1.43621381     0.00017093     0.00008012     0.00034665
H         0.95823535    -0.16412436    -0.58903887    -0.00037525    -0.00072080    -0.00043666
H         0.87329740    -0.27052131     1.91284075    -0.00090817    -0.00028361     0.00006436
H        -0.94916346    -0.17297304     1.87803824    -0.00115779    -0.00105305     0.00050846
H        -0.99662036    -0.09252860    -0.59665532    -0.00012257    -0.00047210    -0.00065733
     6
  Step:    41            Position(A)                                  Velocity(au)
C        -0.04000731     0.05418090    -0.14220161     0.00002705     0.00011759    -0.00034339
N        -0.04368165    -0.04325935     1.43810008     0.00017769     0.00008328     0.00033464
H         0.95604319    -0.16813220    -0.59140859    -0.00041538    -0.00071880    -0.00041957
H         0.86803009    -0.27205115     1.91308441    -0.00097989    -0.00027708     0.00002707
H        -0.95571542    -0.17891857     1.88095234    -0.00118625    -0.00108297     0.00053531
H        -0.99755298    -0.09515337    -0.60043755    -0.00020997    -0.00047977    -0.00070133
     6
  Step:    42            Position(A)                                  Velocity(au)
C        -0.03982579     0.05482909    -0.14406045     0.00003887     0.00011772    -0.00029265
N        -0.04268543    -0.04278894     1.43992419     0.00017831     0.00008516     0.00029956
H         0.95362977    -0.17209412    -0.59369083    -0.00040988    -0.00070416    -0.00045792
H         0.86243281    -0.27359345     1.91314088    -0.00102090    -0.00029192     0.00000150
H        -0.96231610    -0.18498054     1.88397353    -0.00118114    -0.00106137     0.00056183
H        -0.99894845    -0.09784803    -0.60443139    -0.00032919    -0.00052874    -0.00078087
     6
  Step:    43            Position(A)                                  Velocity(au)
C        -0.03957631     0.05548617    -0.14544650     0.00004992     0.00011935    -0.00020774
N        -0.04170456    -0.04231513     1.44142152     0.00017379     0.00008577     0.00024088
H         0.95149858    -0.17593974    -0.59648588    -0.00035657    -0.00068762    -0.00054998
H         0.85671056    -0.27528794     1.91310103    -0.00103156    -0.00031869    -0.00000892
H        -0.96881154    -0.19068671     1.88718174    -0.00114642    -0.00099817     0.00058564
H        -1.00120294    -0.10101590    -0.60909566    -0.00047530    -0.00060963    -0.00089866
     6
  Step:    44            Position(A)                                  Velocity(au)
C        -0.03927237     0.05615234    -0.14636365     0.00005910     0.00012087    -0.00012532
N        -0.04075860    -0.04183797     1.44259485     0.00016547     0.00008643     0.00018384
H         0.94967645    -0.17971783    -0.59978852    -0.00030268    -0.00067432    -0.00063985
H         0.85099568    -0.27712684     1.91304195    -0.00101883    -0.00034894    -0.00000755
H        -0.97502661    -0.19604746     1.89046660    -0.00108061    -0.00093319     0.00059149
H        -1.00421818    -0.10460712    -0.61439494    -0.00060165    -0.00068493    -0.00100543
     6