     6
  Step:     0            Position(A)                                  Velocity(au)
C        -0.03233821     0.02056969     0.03791650    -0.00007941    -0.00007387    -0.00013330
N        -0.03952218    -0.06218089     1.27547769     0.00013160    -0.00006412     0.00005257
H         0.87895262    -0.00662716    -0.52936667     0.00026547     0.00050725    -0.00030985
H         0.77504380    -0.09751723     1.85574576    -0.00157386     0.00042597    -0.00023598
H        -0.94886765     0.02587053     1.89640654    -0.00034197     0.00043998     0.00031447
H        -0.98350885     0.02747406    -0.50704559     0.00076784     0.00039805     0.00108918
     6
  Step:     1            Position(A)                                  Velocity(au)
C        -0.03278991     0.02018880     0.03676971    -0.00008417    -0.00006651    -0.00028694
N        -0.03887201    -0.06256916     1.27616026     0.00010447    -0.00007856     0.00019723
H         0.88095978    -0.00379354    -0.53116498     0.00045592     0.00053591    -0.00034506
H         0.76700478    -0.09512182     1.85460758    -0.00134712     0.00045530    -0.00016526
H        -0.95031750     0.02834106     1.89763667    -0.00018310     0.00046748     0.00013531
H        -0.97967977     0.02970851    -0.50115961     0.00062553     0.00042550     0.00105330
     6
  Step:     2            Position(A)                                  Velocity(au)
C        -0.03325896     0.01984220     0.03477775    -0.00008584    -0.00006109    -0.00044249
N        -0.03837940    -0.06304026     1.27763518     0.00007432    -0.00009417     0.00034224
H         0.88393982    -0.00076503    -0.53314115     0.00061679     0.00057666    -0.00037504
H         0.76030806    -0.09253685     1.85393802    -0.00108584     0.00049396    -0.00006439
H        -0.95087057     0.03098420     1.89788664    -0.00001549     0.00050125    -0.00004138
H        -0.97666632     0.03212853    -0.49552382     0.00047467     0.00046465     0.00099758
     6
  Step:     3            Position(A)                                  Velocity(au)
C        -0.03372904     0.01952042     0.03192867    -0.00008467    -0.00005680    -0.00059885
N        -0.03805894    -0.06359938     1.27990453     0.00004193    -0.00011007     0.00048643
H         0.88770775     0.00251544    -0.53526816     0.00074273     0.00062322    -0.00039993
H         0.75512516    -0.08971765     1.85390317    -0.00079619     0.00053692     0.00006499
H        -0.95048697     0.03382499     1.89718398     0.00015690     0.00053570    -0.00021135
H        -0.97448664     0.03479206    -0.49024559     0.00032275     0.00051057     0.00092247
     6
  Step:     4            Position(A)                                  Velocity(au)
C        -0.03418572     0.01922042     0.02822269    -0.00008090    -0.00005271    -0.00075206
N        -0.03792042    -0.06424509     1.28295973     0.00000825    -0.00012513     0.00062650
H         0.89206990     0.00605683    -0.53751879     0.00083514     0.00066771    -0.00041895
H         0.75159287    -0.08665960     1.85464941    -0.00048471     0.00057780     0.00021697
H        -0.94915308     0.03684811     1.89557321     0.00032828     0.00056468    -0.00037197
H        -0.97313349     0.03771730    -0.48542632     0.00017066     0.00055669     0.00082947
     6
  Step:     5            Position(A)                                  Velocity(au)
C        -0.03461551     0.01894285     0.02368767    -0.00007465    -0.00004846    -0.00089645
N        -0.03796856    -0.06497052     1.28676960    -0.00002570    -0.00013857     0.00075776
H         0.89685907     0.00983215    -0.53985896     0.00089844     0.00070545    -0.00043083
H         0.74981371    -0.08338619     1.85628075    -0.00015921     0.00061318     0.00038265
H        -0.94688969     0.04001270     1.89310798     0.00049176     0.00058526    -0.00052070
H        -0.97261661     0.04089220    -0.48115642     0.00001554     0.00059910     0.00072084
     6
  Step:     6            Position(A)                                  Velocity(au)
C        -0.03500516     0.01868845     0.01838174    -0.00006600    -0.00004415    -0.00102625
N        -0.03820250    -0.06576624     1.29127820    -0.00005870    -0.00014997     0.00087547
H         0.90193274     0.01380108    -0.54224837     0.00093596     0.00073460    -0.00043480
H         0.74984512    -0.07992829     1.85885005     0.00016988     0.00064216     0.00055186
H        -0.94375462     0.04327291     1.88985708     0.00063997     0.00059708    -0.00065360
H        -0.97296286     0.04429406    -0.47751307    -0.00014361     0.00063628     0.00059950
     6
  Step:     7            Position(A)                                  Velocity(au)
C        -0.03534200     0.01845687     0.01239138    -0.00005518    -0.00003999    -0.00113622
N        -0.03861472    -0.06662130     1.29640619    -0.00008938    -0.00015904     0.00097525
H         0.90716154     0.01791816    -0.54464501     0.00094954     0.00075424    -0.00043090
H         0.75168361    -0.07631768     1.86235533     0.00048936     0.00066443     0.00071393
H        -0.93984527     0.04658493     1.88591354     0.00076519     0.00060060    -0.00076547
H        -0.97419735     0.04789598    -0.47455744    -0.00030440     0.00066732     0.00046914
     6
  Step:     8            Position(A)                                  Velocity(au)
C        -0.03561482     0.01824670     0.00582922    -0.00004261    -0.00003614    -0.00122196
N        -0.03918997    -0.06752330     1.30205244    -0.00011624    -0.00016555     0.00105342
H         0.91242295     0.02213364    -0.54700878     0.00094060     0.00076370    -0.00041976
H         0.75525134    -0.07258790     1.86673734     0.00078448     0.00067955     0.00085831
H        -0.93530113     0.04990807     1.88140045     0.00085978     0.00059656    -0.00085075
H        -0.97632573     0.05166641    -0.47233015    -0.00046173     0.00069129     0.00033440
     6
  Step:     9            Position(A)                                  Velocity(au)
C        -0.03581492     0.01805583    -0.00117007    -0.00002888    -0.00003272    -0.00128062
N        -0.03990480    -0.06845857     1.30809715    -0.00013786    -0.00016936     0.00110752
H         0.91760037     0.02639378    -0.54930353     0.00091096     0.00076274    -0.00040234
H         0.76038985    -0.06877591     1.87188094     0.00104097     0.00068715     0.00097577
H        -0.93030337     0.05320560     1.87647187     0.00091710     0.00058611    -0.00090461
H        -0.97932164     0.05556796    -0.47084629    -0.00060907     0.00070738     0.00020062
     6
  Step:    10            Position(A)                                  Velocity(au)
C        -0.03593704     0.01788171    -0.00845788    -0.00001472    -0.00002980    -0.00131178
N        -0.04072803    -0.06941280     1.31440832    -0.00015317    -0.00017060     0.00113714
H         0.92258601     0.03064308    -0.55149742     0.00086352     0.00075200    -0.00037976
H         0.76686483    -0.06492180     1.87762337     0.00124764     0.00068735     0.00105999
H        -0.92506957     0.05644692     1.87130829     0.00093289     0.00057104    -0.00092431
H        -0.98312081     0.05955819    -0.47009198    -0.00074007     0.00071545     0.00007326
     6
  Step:    11            Position(A)                                  Velocity(au)
C        -0.03598004     0.01772151    -0.01588456    -0.00000087    -0.00002746    -0.00131819
N        -0.04162299    -0.07037221     1.32085258    -0.00016174    -0.00016968     0.00114460
H         0.92728663     0.03482913    -0.55356334     0.00080266     0.00073338    -0.00035369
H         0.77438487    -0.06106576     1.88377102     0.00139894     0.00068128     0.00110896
H        -0.91983896     0.05961100     1.86610374     0.00090662     0.00055387    -0.00091035
H        -0.98762316     0.06359332    -0.47002456    -0.00085027     0.00071652    -0.00004313
     6
  Step:    12            Position(A)                                  Velocity(au)
C        -0.03594682     0.01757222    -0.02331626     0.00001207    -0.00002571    -0.00130562
N        -0.04255116    -0.07132537     1.32731003    -0.00016387    -0.00016733     0.00113492
H         0.93163346     0.03890968    -0.55548420     0.00073398     0.00070998    -0.00032644
H         0.78263347    -0.05724248     1.89012341     0.00149617     0.00067114     0.00112530
H        -0.91485024     0.06269009     1.86104698     0.00084160     0.00053771    -0.00086650
H        -0.99270493     0.06763469    -0.47057811    -0.00093841     0.00071284    -0.00014585
     6
  Step:    13            Position(A)                                  Velocity(au)
C        -0.03584355     0.01743070    -0.03065165     0.00002371    -0.00002459    -0.00128156
N        -0.04347638    -0.07226481     1.33368900    -0.00016039    -0.00016446     0.00111464
H         0.93558819     0.04285932    -0.55725546     0.00066304     0.00068542    -0.00030027
H         0.79130707    -0.05347490     1.89649863     0.00154625     0.00065974     0.00111498
H        -0.91032011     0.06569275     1.85630324     0.00074343     0.00052572    -0.00079850
H        -0.99823688     0.07165586    -0.47167423    -0.00100630     0.00070746    -0.00023456
     6
  Step:    14            Position(A)                                  Velocity(au)
C        -0.03567834     0.01729376    -0.03783046     0.00005095    -0.00003620    -0.00188350
N        -0.04436769    -0.07318792     1.33993379    -0.00022901    -0.00024331     0.00163834
H         0.93914268     0.04667226    -0.55888487     0.00089320     0.00099635    -0.00041633
H         0.80014533    -0.04977066     1.90275100     0.00234276     0.00097659     0.00163081
H        -0.90643060     0.06864402     1.85200367     0.00092893     0.00078231    -0.00107044
H        -1.00410168     0.07564697    -0.47323460    -0.00158956     0.00105714    -0.00046715
     6
  Step:    15            Position(A)                                  Velocity(au)
C        -0.03536797     0.01708793    -0.04801630     0.00005717    -0.00003645    -0.00169429
N        -0.04561563    -0.07452070     1.34883484    -0.00020635    -0.00022513     0.00148717
H         0.94420662     0.05216174    -0.56148698     0.00088207     0.00093328    -0.00049351
H         0.81325298    -0.04445085     1.91182916     0.00223524     0.00089313     0.00154219
H        -0.90167286     0.07299920     1.84634424     0.00072479     0.00075188    -0.00090567
H        -1.01338766     0.08145590    -0.47636882    -0.00165576     0.00098454    -0.00062005
     6
  Step:    16            Position(A)                                  Velocity(au)
C        -0.03502669     0.01687829    -0.05714367     0.00006193    -0.00003748    -0.00151657
N        -0.04671991    -0.07575421     1.35688602    -0.00017960    -0.00020896     0.00134415
H         0.94919741     0.05731071    -0.56451034     0.00086886     0.00087867    -0.00056514
H         0.82562479    -0.03958989     1.92033039     0.00209364     0.00081707     0.00143471
H        -0.89816871     0.07721468     1.84168000     0.00049462     0.00073450    -0.00072626
H        -1.02297560     0.08686975    -0.48030259    -0.00169935     0.00092016    -0.00075056
     6
  Step:    17            Position(A)                                  Velocity(au)
C        -0.03466290     0.01666121    -0.06528180     0.00006550    -0.00003919    -0.00135546
N        -0.04766027    -0.07689961     1.36413736    -0.00015031    -0.00019531     0.00121403
H         0.95409826     0.06216497    -0.56792082     0.00085509     0.00083448    -0.00063309
H         0.83708816    -0.03514883     1.92816267     0.00193167     0.00074982     0.00131778
H        -0.89604183     0.08136112     1.83807604     0.00024754     0.00073120    -0.00053993
H        -1.03273408     0.09193153    -0.48491358    -0.00172601     0.00086556    -0.00086361
     6
  Step:    18            Position(A)                                  Velocity(au)
C        -0.03428334     0.01643351    -0.07252651     0.00003001    -0.00001828    -0.00053413
N        -0.04842579    -0.07797071     1.37066374    -0.00005271    -0.00008118     0.00048392
H         0.95890158     0.06678100    -0.57169509     0.00037063     0.00035301    -0.00030800
H         0.84754689    -0.03108039     1.93528559     0.00077459     0.00030462     0.00052747
H        -0.89535939     0.08551288     1.83555241    -0.00000396     0.00032674    -0.00015511
H        -1.04256365     0.09669283    -0.49010344    -0.00076638     0.00036164    -0.00042439
     6
  Step:    19            Position(A)                                  Velocity(au)
C        -0.03410633     0.01632581    -0.07551686     0.00003266    -0.00002011    -0.00053174
N        -0.04864612    -0.07843810     1.37336206    -0.00002596    -0.00008540     0.00047792
H         0.96078143     0.06876648    -0.57336152     0.00030019     0.00035500    -0.00028645
H         0.85153799    -0.02933730     1.93797419     0.00064549     0.00031651     0.00043053
H        -0.89608126     0.08748102     1.83511679    -0.00024902     0.00037482    -0.00000280
H        -1.04676016     0.09877456    -0.49255384    -0.00072515     0.00037995    -0.00044643
     6
  Step:    20            Position(A)                                  Velocity(au)
C        -0.03391705     0.01620804    -0.07848957     0.00003465    -0.00002203    -0.00053175
N        -0.04871688    -0.07892838     1.37602327     0.00000018    -0.00008995     0.00047430
H         0.96226801     0.07076213    -0.57490744     0.00023259     0.00035926    -0.00026722
H         0.85478562    -0.02753093     1.94011370     0.00051512     0.00032971     0.00033521
H        -0.89815197     0.08971621     1.83552098    -0.00048421     0.00042417     0.00014307
H        -1.05069575     0.10095372    -0.49510989    -0.00067888     0.00039935    -0.00046575
     6
  Step:    21            Position(A)                                  Velocity(au)
C        -0.03371922     0.01607964    -0.08145799     0.00003589    -0.00002402    -0.00053256
N        -0.04864411    -0.07944306     1.37866129     0.00002512    -0.00009450     0.00047182
H         0.96338010     0.07278039    -0.57634704     0.00016735     0.00036471    -0.00024971
H         0.85729330    -0.02565354     1.94171941     0.00038405     0.00034356     0.00024154
H        -0.90149114     0.09222019     1.83671530    -0.00070221     0.00047225     0.00027914
H        -1.05434512     0.10323634    -0.49775749    -0.00062604     0.00041886    -0.00048157
     6
  Step:    22            Position(A)                                  Velocity(au)
C        -0.03351691     0.01594031    -0.08442651     0.00003636    -0.00002602    -0.00053319
N        -0.04843679    -0.07998186     1.38128310     0.00004821    -0.00009881     0.00046981
H         0.96413357     0.07482790    -0.57769123     0.00010465     0.00037072    -0.00023380
H         0.85906697    -0.02370099     1.94280641     0.00025407     0.00035772     0.00015045
H        -0.90598014     0.09498083     1.83863288    -0.00089569     0.00051682     0.00040184
H        -1.05767481     0.10562319    -0.50047845    -0.00056627     0.00043792    -0.00049359
     6
  Step:    23            Position(A)                                  Velocity(au)
C        -0.03331440     0.01578993    -0.08739426     0.00003604    -0.00002803    -0.00053308
N        -0.04810735    -0.08054317     1.38389188     0.00006880    -0.00010270     0.00046791
H         0.96454521     0.07690780    -0.57895002     0.00004502     0.00037690    -0.00021954
H         0.86012198    -0.02167089     1.94339447     0.00012761     0.00037209     0.00006327
H        -0.91146325     0.09797421     1.84118914    -0.00105831     0.00055603     0.00050801
H        -1.06064967     0.10811192    -0.50325285    -0.00049994     0.00045619    -0.00050176
     6
  Step:    24            Position(A)                                  Velocity(au)
C        -0.03311593     0.01562848    -0.09035721     0.00003496    -0.00003002    -0.00053188
N        -0.04767132    -0.08112447     1.38648872     0.00008636    -0.00010606     0.00046591
H         0.96463438     0.07902108    -0.58013370    -0.00001092     0.00038301    -0.00020711
H         0.86048667    -0.01956142     1.94351036     0.00000732     0.00038666    -0.00001852
H        -0.91775418     0.10116688     1.84428469    -0.00118527     0.00058842     0.00059531
H        -1.06323674     0.11069840    -0.50606069    -0.00042782     0.00047347    -0.00050623
     6
  Step:    25            Position(A)                                  Velocity(au)
C        -0.03292561     0.01545604    -0.09330943     0.00003315    -0.00003199    -0.00052938
N        -0.04714689    -0.08172265     1.38907338     0.00010047    -0.00010879     0.00046366
H         0.96442373     0.08116732    -0.58125338    -0.00006251     0.00038886    -0.00019672
H         0.86020339    -0.01737070     1.94318856    -0.00010416     0.00040155    -0.00009344
H        -0.92464497     0.10451816     1.84780977    -0.00127354     0.00061292     0.00066231
H        -1.06540762     0.11337750    -0.50888284    -0.00035101     0.00048969    -0.00050729
     6
  Step:    26            Position(A)                                  Velocity(au)
C        -0.03274732     0.01527271    -0.09624390     0.00003067    -0.00003394    -0.00052548
N        -0.04655406    -0.08233422     1.39164465     0.00011087    -0.00011087     0.00046106
H         0.96393926     0.08334519    -0.58232121    -0.00010914     0.00039435    -0.00018857
H         0.85932844    -0.01509620     1.94247129    -0.00020433     0.00041691    -0.00016012
H        -0.93191598     0.10798256     1.85164957    -0.00132200     0.00062893     0.00070857
H        -1.06713992     0.11614373    -0.51170171    -0.00027072     0.00050485    -0.00050528
     6
  Step:    27            Position(A)                                  Velocity(au)
C        -0.03258457     0.01507865    -0.09915302     0.00002759    -0.00003585    -0.00052017
N        -0.04591394    -0.08295555     1.39420057     0.00011744    -0.00011229     0.00045801
H         0.96321005     0.08555270    -0.58335033    -0.00015029     0.00039943    -0.00018285
H         0.85793120    -0.01273449     1.94140791    -0.00029094     0.00043297    -0.00021735
H        -0.93934612     0.11151216     1.85568932    -0.00133122     0.00063624     0.00073452
H        -1.06841809     0.11899168    -0.51450174    -0.00018828     0.00051904    -0.00050064
     6
  Step:    28            Position(A)                                  Velocity(au)
C        -0.03244048     0.01487398    -0.10202909     0.00002399    -0.00003774    -0.00051347
N        -0.04524794    -0.08358312     1.39673852     0.00012018    -0.00011310     0.00045443
H         0.96226777     0.08778752    -0.58435477    -0.00018556     0.00040404    -0.00017970
H         0.85609271    -0.01028085     1.94005398    -0.00036209     0.00044998    -0.00026413
H        -0.94672151     0.11505868     1.85981868    -0.00130322     0.00063498     0.00074131
H        -1.06923391     0.12191638    -0.51726974    -0.00010504     0.00053239    -0.00049385
     6
  Step:    29            Position(A)                                  Velocity(au)
C        -0.03231768     0.01465884    -0.10486460     0.00001997    -0.00003961    -0.00050546
N        -0.04457717    -0.08421361     1.39925538     0.00011920    -0.00011334     0.00045025
H         0.96114599     0.09004706    -0.58534924    -0.00021468     0.00040818    -0.00017924
H         0.85390354    -0.00772917     1.93846991    -0.00041630     0.00046823    -0.00029974
H        -0.95384255     0.11857535     1.86393531    -0.00124117     0.00062558     0.00073068
H        -1.06958653     0.12491367    -0.51999504    -0.00002233     0.00054508    -0.00048538
     6
  Step:    30            Position(A)                                  Velocity(au)
C        -0.03221828     0.01443330    -0.10765247     0.00001562    -0.00004147    -0.00049627
N        -0.04392180    -0.08484408     1.40174761     0.00011473    -0.00011310     0.00044543
H         0.95987941     0.09232865    -0.58634889    -0.00023753     0.00041186    -0.00018153
H         0.85146130    -0.00507176     1.93671934    -0.00045260     0.00048802    -0.00032378
H        -0.96052970     0.12201836     1.86794761    -0.00114899     0.00060869     0.00070471
H        -1.06948231     0.12798046    -0.52266971     0.00005861     0.00055735    -0.00047575
     6
  Step:    31            Position(A)                                  Velocity(au)
C        -0.03214383     0.01419740    -0.11038625     0.00001105    -0.00004334    -0.00048600
N        -0.04330065    -0.08547204     1.40421142     0.00010704    -0.00011247     0.00043995
H         0.95850313     0.09462957    -0.58736903    -0.00025412     0.00041507    -0.00018658
H         0.84886777    -0.00229932     1.93486745    -0.00047051     0.00050965    -0.00033614
H        -0.96662666     0.12534792     1.87177621    -0.00103109     0.00058512     0.00066571
H        -1.06893442     0.13111500    -0.52528847     0.00013660     0.00056948    -0.00046545
     6
  Step:    32            Position(A)                                  Velocity(au)
C        -0.03209531     0.01395110    -0.11306019     0.00000636    -0.00004522    -0.00047481
N        -0.04273081    -0.08609553     1.40664288     0.00009646    -0.00011154     0.00043379
H         0.95705178     0.09694712    -0.58842491    -0.00026461     0.00041782    -0.00019434
H         0.84622596     0.00059907     1.93297907    -0.00047011     0.00053341    -0.00033708
H        -0.97200258     0.12852892     1.87535498    -0.00089211     0.00055573     0.00061609
H        -1.06796232     0.13431703    -0.52784872     0.00021060     0.00058175    -0.00045493
     6
  Step:    33            Position(A)                                  Velocity(au)
C        -0.03207308     0.01369430    -0.11566928     0.00000165    -0.00004713    -0.00046281
N        -0.04222737    -0.08671307     1.40903804     0.00008338    -0.00011040     0.00042696
H         0.95555889     0.09927857    -0.58953140    -0.00026925     0.00042011    -0.00020474
H         0.84363702     0.00363579     1.93111686    -0.00045199     0.00055956    -0.00032713
H        -0.97655295     0.13153141     1.87863128    -0.00073676     0.00052148     0.00055825
H        -1.06659110     0.13758797    -0.53035035     0.00027967     0.00059448    -0.00044464
     6
  Step:    34            Position(A)                                  Velocity(au)
C        -0.03207694     0.01342681    -0.11820923    -0.00000297    -0.00004908    -0.00045014
N        -0.04180318    -0.08732373     1.41139300     0.00006819    -0.00010914     0.00041947
H         0.95405618     0.10162110    -0.59070281    -0.00026842     0.00042191    -0.00021767
H         0.84119733     0.00682453     1.92933958    -0.00041725     0.00058832    -0.00030713
H        -0.98019947     0.13433070     1.88156580    -0.00056959     0.00048328     0.00049450
H        -1.06485085     0.14093096    -0.53279555     0.00034297     0.00060798    -0.00043495
     6
  Step:    35            Position(A)                                  Velocity(au)
C        -0.03210611     0.01314835    -0.12067642    -0.00000740    -0.00005110    -0.00043688
N        -0.04146879    -0.08792708     1.41370404     0.00005133    -0.00010785     0.00041135
H         0.95257311     0.10397168    -0.59195266    -0.00026256     0.00042315    -0.00023296
H         0.83899570     0.01018002     1.92770048    -0.00036748     0.00061984    -0.00027821
H        -0.98288880     0.13690724     1.88413187    -0.00039489     0.00044201     0.00042700
H        -1.06277601     0.14435091    -0.53518858     0.00039980     0.00062257    -0.00042621
     6
  Step:    36            Position(A)                                  Velocity(au)
C        -0.03215921     0.01285856    -0.12306778    -0.00001153    -0.00005319    -0.00042313
N        -0.04123236    -0.08852310     1.41596762     0.00003321    -0.00010659     0.00040264
H         0.95113631     0.10632693    -0.59329354    -0.00025219     0.00042376    -0.00025044
H         0.83711057     0.01371770     1.92624568    -0.00030475     0.00065421    -0.00024174
H        -0.98459099     0.13924624     1.88631447    -0.00021667     0.00039848     0.00035776
H        -1.06040474     0.14785457    -0.53753544     0.00044952     0.00063858    -0.00041871
     6
  Step:    37            Position(A)                                  Velocity(au)
C        -0.03223430     0.01255702    -0.12538065    -0.00001527    -0.00005537    -0.00040893
N        -0.04109958    -0.08911213     1.41818042     0.00001428    -0.00010543     0.00039335
H         0.94976931     0.10868289    -0.59473694    -0.00023791     0.00042360    -0.00026990
H         0.83560759     0.01745330     1.92501285    -0.00023151     0.00069145    -0.00019935
H        -0.98529763     0.14133735     1.88810934    -0.00003863     0.00035342     0.00028861
H        -1.05777842     0.15145046    -0.53984366     0.00049160     0.00065632    -0.00041268
     6
  Step:    38            Position(A)                                  Velocity(au)
C        -0.03232889     0.01224322    -0.12761266    -0.00001851    -0.00005764    -0.00039430
N        -0.04107370    -0.08969481     1.42033934    -0.00000503    -0.00010440     0.00038352
H         0.94849216     0.11103483    -0.59629323    -0.00022034     0.00042250    -0.00029115
H         0.83453755     0.02140250     1.92403011    -0.00015056     0.00073152    -0.00015280
H        -0.98502036     0.14317416     1.88952205     0.00013575     0.00030751     0.00022125
H        -1.05494107     0.15514891    -0.54212191     0.00052560     0.00067611    -0.00040828
     6
  Step:    39            Position(A)                                  Velocity(au)
C        -0.03243992     0.01191659    -0.12976140    -0.00002115    -0.00006003    -0.00037921
N        -0.04115548    -0.09027200     1.42244134    -0.00002427    -0.00010354     0.00037312
H         0.94732132     0.11337691    -0.59797160    -0.00020013     0.00042022    -0.00031397
H         0.83393489     0.02558053     1.92331523    -0.00006490     0.00077430    -0.00010399
H        -0.98378945     0.14475377     1.89056739     0.00030322     0.00026131     0.00015727
H        -1.05193895     0.15896213    -0.54437969     0.00055113     0.00069830    -0.00040565
     6
  Step:    40            Position(A)                                  Velocity(au)
C        -0.03256380     0.01157650    -0.13182425    -0.00002310    -0.00006254    -0.00036360
N        -0.04134326    -0.09084471     1.42448329    -0.00004301    -0.00010286     0.00036214
H         0.94626949     0.11570189    -0.59978026    -0.00017795     0.00041646    -0.00033823
H         0.83381676     0.03000194     1.92287519     0.00002232     0.00081965    -0.00005487
H        -0.98165278     0.14607631     1.89126874     0.00046067     0.00021532     0.00009822
H        -1.04882012     0.16290427    -0.54662708     0.00056788     0.00072324    -0.00040485
     6
  Step:    41            Position(A)                                  Velocity(au)
C        -0.03269638     0.01122224    -0.13379816    -0.00002425    -0.00006519    -0.00034734
N        -0.04163297    -0.09141402     1.42646186    -0.00006082    -0.00010238     0.00035048
H         0.94534562     0.11800059    -0.60172669    -0.00015448     0.00041080    -0.00036384
H         0.83418269     0.03468055     1.92270605     0.00010797     0.00086747    -0.00000739
H        -0.97867501     0.14714429     1.89165786     0.00060510     0.00016987     0.00004558
H        -1.04563416     0.16699173    -0.54887441     0.00057557     0.00075139    -0.00040590
     6
  Step:    42            Position(A)                                  Velocity(au)
C        -0.03283292     0.01085303    -0.13567925    -0.00002447    -0.00006798    -0.00033022
N        -0.04201832    -0.09198104     1.42837319    -0.00007733    -0.00010210     0.00033802
H         0.94455497     0.12026124    -0.60381836    -0.00013034     0.00040266    -0.00039092
H         0.83501506     0.03962969     1.92279318     0.00018905     0.00091773     0.00003656
H        -0.97493692     0.14796167     1.89177464     0.00073365     0.00012509     0.00000085
H        -1.04243207     0.17124370    -0.55113209     0.00057388     0.00078336    -0.00040884
     6
  Step:    43            Position(A)                                  Velocity(au)
C        -0.03296794     0.01046798    -0.13746214    -0.00002362    -0.00007095    -0.00031185
N        -0.04249098    -0.09254684     1.43021238    -0.00009219    -0.00010198     0.00032447
H         0.94389944     0.12246825    -0.60606413    -0.00010606     0.00039111    -0.00042004
H         0.83628030     0.04486320     1.92311172     0.00026287     0.00097075     0.00007518
H        -0.97053481     0.14853221     1.89166731     0.00084353     0.00008061    -0.00003440
H        -1.03926672     0.17568346    -0.55341065     0.00056226     0.00082014    -0.00041374
     6
  Step:    44            Position(A)                                  Velocity(au)
C        -0.03309491     0.01006596    -0.13913849    -0.00002140    -0.00007419    -0.00029121
N        -0.04304099    -0.09311224     1.43197246    -0.00010519    -0.00010195     0.00030913
H         0.94337848     0.12459965    -0.60847767    -0.00008178     0.00037444    -0.00045299
H         0.83793102     0.05039785     1.92362716     0.00032727     0.00102762     0.00010676
H        -0.96557991     0.14885589     1.89139301     0.00093204     0.00003493    -0.00005833
H        -1.03619511     0.18034126    -0.55572153     0.00053920     0.00086374    -0.00042115
     6