|===============================================================================
|
|  DFTB+ release 20.1
|
|  Copyright (C) 2006 - 2020  DFTB+ developers group
|
|===============================================================================
|
|  When publishing results obtained with DFTB+, please cite the following
|  reference:
|
|  * DFTB+, a software package for efficient approximate density functional
|    theory based atomistic simulations, J. Chem. Phys. 152, 124101 (2020).
|    [doi: 10.1063/1.5143190]
|
|  You should also cite additional publications crediting the parametrization
|  data you use. Please consult the documentation of the SK-files for the
|  references.
|
|===============================================================================

Reading input file 'dftb_in.hsd'
Parser version: 8

--------------------------------------------------------------------------------
Reading SK-files:
Done.


Processed input in HSD format written to 'dftb_pin.hsd'

Starting initialization...
--------------------------------------------------------------------------------
OpenMP threads:              1
Chosen random seed:          497881579
Mode:                        Static calculation
Self consistent charges:     Yes
SCC-tolerance:                 0.100000E-05
Max. scc iterations:                   1000
Shell resolved Hubbard:      No
Spin polarisation:           No
Nr. of up electrons:            16.000000
Nr. of down electrons:          16.000000
Periodic boundaries:         No
Electronic solver:           Relatively robust
Maximal SCC-cycles:                    1000
Initial charges:             Set automatically (system chrg:   0.100E+01)
Included shells:             C:  s, p
                             H:  s
                             N:  s, p
Spin coupling constants:     C   1(s)-1(s):  -0.455900E-01
                             C   1(s)-2(p):  -0.293000E-01
                             C   2(p)-1(s):  -0.293000E-01
                             C   2(p)-2(p):  -0.275500E-01
                             H   1(s)-1(s):  -0.792500E-01
                             N   1(s)-1(s):  -0.468700E-01
                             N   1(s)-2(p):  -0.317000E-01
                             N   2(p)-1(s):  -0.317000E-01
                             N   2(p)-2(p):  -0.307200E-01
Range separated hybrid:      Yes
  Screening parameter omega:   0.300000E+00
  Range separated algorithm:   MatrixBased
Extra options:
                             Mulliken analysis
                             Force calculation
Force type                   original
                             Eigenvector printing


REKS Calcuation:             Yes
SSR(2,2) Calcuation:         Yes
Energy Functional:           (PPS+OSS)/2
Number of Core Orbitals:                 15
Number of Active Orbitals:                2
Number of Basis:                         32
Number of States:                         2
State-Averaging Weight:          0.500000
                                 0.500000
State of Interest:                        1
Initial Guess:               Diagonalize H0 matrix
Newton-Raphson for FON opt:  Yes
NR max. Iterations:                      50
Level Shifting:              Yes
Shift Value:                     0.300000
W Scale Factor:              C  =    3.200000
                             H  =    3.200000
                             N  =    3.200000
Transition Dipole:           No
Gradient of Microstate:      No
CP-REKS Solver:              Preconditioned Conjugate-Gradient
CG max. Iterations:                     100
CG Tolerance:                  0.100000E-07
Memory for A and Hxc:        Direct Updating Without Saving
Non-Adiabatic Coupling:      Yes

--------------------------------------------------------------------------------

***  Geometry step: 0

  iSCC       reks energy        Diff energy         x_a       SCC error   
    1      -16.3698502824       0.0000000000     0.998477    1.23288531
    2      -16.3934105184      -0.0235602361     0.999913    0.05502512
    3      -16.3998838452      -0.0064733267     0.999989    0.03023134
    4      -16.4022935718      -0.0024097267     0.999997    0.01631170
    5      -16.4034163896      -0.0011228178     0.999999    0.00919216
    6      -16.4040357642      -0.0006193746     0.999999    0.00621605
    7      -16.4044190410      -0.0003832768     1.000000    0.00466495
    8      -16.4046749569      -0.0002559159     1.000000    0.00393125
    9      -16.4048547656      -0.0001798087     1.000000    0.00336616
   10      -16.4049855352      -0.0001307696     1.000000    0.00291115
   11      -16.4050828811      -0.0000973458     1.000000    0.00253409
   12      -16.4051564865      -0.0000736054     1.000000    0.00221549
   13      -16.4052127270      -0.0000562405     1.000000    0.00204743
   14      -16.4052560069      -0.0000432798     1.000000    0.00189217
   15      -16.4052894812      -0.0000334743     1.000000    0.00172032
   16      -16.4053154705      -0.0000259893     1.000000    0.00154487
   17      -16.4053357126      -0.0000202421     1.000000    0.00137386
   18      -16.4053515247      -0.0000158121     1.000000    0.00121201
   19      -16.4053639135      -0.0000123888     1.000000    0.00106188
   20      -16.4053736522      -0.0000097387     1.000000    0.00092460
   21      -16.4053813365      -0.0000076843     1.000000    0.00080037
   22      -16.4053874267      -0.0000060901     1.000000    0.00068884
   23      -16.4053922785      -0.0000048518     1.000000    0.00058933
   24      -16.4053961674      -0.0000038889     1.000000    0.00050096
   25      -16.4053993067      -0.0000031394     1.000000    0.00045418
   26      -16.4054018618      -0.0000025551     1.000000    0.00042497
   27      -16.4054039609      -0.0000020990     1.000000    0.00039849
   28      -16.4054057032      -0.0000017423     1.000000    0.00037452
   29      -16.4054071659      -0.0000014627     1.000000    0.00035286
   30      -16.4054084088      -0.0000012429     1.000000    0.00033328
   31      -16.4054094785      -0.0000010697     1.000000    0.00031561
   32      -16.4054104109      -0.0000009325     1.000000    0.00029964
   33      -16.4054112343      -0.0000008234     1.000000    0.00028521
   34      -16.4054119705      -0.0000007362     1.000000    0.00027217
   35      -16.4054126365      -0.0000006660     1.000000    0.00026036
   36      -16.4054132456      -0.0000006091     1.000000    0.00024966
   37      -16.4054138082      -0.0000005626     1.000000    0.00023995
   38      -16.4054143325      -0.0000005243     1.000000    0.00023112
   39      -16.4054148248      -0.0000004923     1.000000    0.00022308
   40      -16.4054152901      -0.0000004653     1.000000    0.00021575
   41      -16.4054157325      -0.0000004424     1.000000    0.00020905
   42      -16.4054161551      -0.0000004225     1.000000    0.00020291
   43      -16.4054165603      -0.0000004052     1.000000    0.00019726
   44      -16.4054169502      -0.0000003899     1.000000    0.00019207
   45      -16.4054173264      -0.0000003762     1.000000    0.00018727
   46      -16.4054176902      -0.0000003638     1.000000    0.00018283
   47      -16.4054180427      -0.0000003525     1.000000    0.00017871
   48      -16.4054183848      -0.0000003421     1.000000    0.00017488
   49      -16.4054187172      -0.0000003324     1.000000    0.00017130
   50      -16.4054190406      -0.0000003233     1.000000    0.00016795
   51      -16.4054193554      -0.0000003148     1.000000    0.00016481
   52      -16.4054196621      -0.0000003067     1.000000    0.00016185
   53      -16.4054199611      -0.0000002990     1.000000    0.00015906
   54      -16.4054202528      -0.0000002917     1.000000    0.00015642
   55      -16.4054205375      -0.0000002847     1.000000    0.00015391
   56      -16.4054208154      -0.0000002779     1.000000    0.00015153
   57      -16.4054210869      -0.0000002715     1.000000    0.00014926
   58      -16.4054213521      -0.0000002652     1.000000    0.00014710
   59      -16.4054216113      -0.0000002592     1.000000    0.00014502
   60      -16.4054218646      -0.0000002534     1.000000    0.00014303
   61      -16.4054221124      -0.0000002477     1.000000    0.00014112
   62      -16.4054223546      -0.0000002423     1.000000    0.00013927
   63      -16.4054225916      -0.0000002370     1.000000    0.00013750
   64      -16.4054228235      -0.0000002319     1.000000    0.00013578
   65      -16.4054230503      -0.0000002269     1.000000    0.00013412
   66      -16.4054232724      -0.0000002221     1.000000    0.00013250
   67      -16.4054234898      -0.0000002174     1.000000    0.00013094
   68      -16.4054237026      -0.0000002128     1.000000    0.00012942
   69      -16.4054239110      -0.0000002084     1.000000    0.00012795
   70      -16.4054241151      -0.0000002041     1.000000    0.00012651
   71      -16.4054243150      -0.0000001999     1.000000    0.00012511
   72      -16.4054245108      -0.0000001958     1.000000    0.00012374
   73      -16.4054247027      -0.0000001919     1.000000    0.00012240
   74      -16.4054248907      -0.0000001880     1.000000    0.00012110
   75      -16.4054250750      -0.0000001843     1.000000    0.00011983
   76      -16.4054252557      -0.0000001807     1.000000    0.00011858
   77      -16.4054254328      -0.0000001771     1.000000    0.00011736
   78      -16.4054256065      -0.0000001737     1.000000    0.00011616
   79      -16.4054257767      -0.0000001703     1.000000    0.00011499
   80      -16.4054259438      -0.0000001670     1.000000    0.00011384
   81      -16.4054261076      -0.0000001638     1.000000    0.00011272
   82      -16.4054262683      -0.0000001607     1.000000    0.00011161
   83      -16.4054264260      -0.0000001577     1.000000    0.00011053
   84      -16.4054265807      -0.0000001547     1.000000    0.00010946
   85      -16.4054267326      -0.0000001519     1.000000    0.00010842
   86      -16.4054268816      -0.0000001490     1.000000    0.00010739
   87      -16.4054270279      -0.0000001463     1.000000    0.00010638
   88      -16.4054271716      -0.0000001436     1.000000    0.00010539
   89      -16.4054273126      -0.0000001410     1.000000    0.00010442
   90      -16.4054274511      -0.0000001385     1.000000    0.00010346
   91      -16.4054275871      -0.0000001360     1.000000    0.00010251
   92      -16.4054277207      -0.0000001336     1.000000    0.00010159
   93      -16.4054278520      -0.0000001312     1.000000    0.00010067
   94      -16.4054279809      -0.0000001289     1.000000    0.00009978
   95      -16.4054281076      -0.0000001267     1.000000    0.00009889
   96      -16.4054282321      -0.0000001245     1.000000    0.00009802
   97      -16.4054283545      -0.0000001224     1.000000    0.00009717
   98      -16.4054284748      -0.0000001203     1.000000    0.00009633
   99      -16.4054285930      -0.0000001182     1.000000    0.00009550
  100      -16.4054287092      -0.0000001162     1.000000    0.00009468
  101      -16.4054288235      -0.0000001143     1.000000    0.00009387
  102      -16.4054289359      -0.0000001124     1.000000    0.00009308
  103      -16.4054290464      -0.0000001105     1.000000    0.00009230
  104      -16.4054291552      -0.0000001087     1.000000    0.00009153
  105      -16.4054292621      -0.0000001069     1.000000    0.00009078
  106      -16.4054293673      -0.0000001052     1.000000    0.00009003
  107      -16.4054294708      -0.0000001035     1.000000    0.00008929
  108      -16.4054295726      -0.0000001018     1.000000    0.00008857
  109      -16.4054296728      -0.0000001002     1.000000    0.00008785
  110      -16.4054297715      -0.0000000986     1.000000    0.00008715
  111      -16.4054298685      -0.0000000971     1.000000    0.00008646
  112      -16.4054299641      -0.0000000956     1.000000    0.00008577
  113      -16.4054300582      -0.0000000941     1.000000    0.00008510
  114      -16.4054301508      -0.0000000926     1.000000    0.00008443
  115      -16.4054302420      -0.0000000912     1.000000    0.00008378
  116      -16.4054303318      -0.0000000898     1.000000    0.00008313
  117      -16.4054304202      -0.0000000884     1.000000    0.00008249
  118      -16.4054305073      -0.0000000871     1.000000    0.00008186
  119      -16.4054305931      -0.0000000858     1.000000    0.00008124
  120      -16.4054306777      -0.0000000845     1.000000    0.00008063
  121      -16.4054307610      -0.0000000833     1.000000    0.00008003
  122      -16.4054308430      -0.0000000821     1.000000    0.00007943
  123      -16.4054309239      -0.0000000809     1.000000    0.00007885
  124      -16.4054310036      -0.0000000797     1.000000    0.00007827
  125      -16.4054310821      -0.0000000785     1.000000    0.00007770
  126      -16.4054311595      -0.0000000774     1.000000    0.00007713
  127      -16.4054312358      -0.0000000763     1.000000    0.00007658
  128      -16.4054313110      -0.0000000752     1.000000    0.00007603
  129      -16.4054313852      -0.0000000742     1.000000    0.00007549
  130      -16.4054314583      -0.0000000731     1.000000    0.00007495
  131      -16.4054315304      -0.0000000721     1.000000    0.00007442
  132      -16.4054316015      -0.0000000711     1.000000    0.00007390
  133      -16.4054316716      -0.0000000701     1.000000    0.00007339
  134      -16.4054317408      -0.0000000692     1.000000    0.00007288
  135      -16.4054318090      -0.0000000682     1.000000    0.00007238
  136      -16.4054318763      -0.0000000673     1.000000    0.00007189
  137      -16.4054319427      -0.0000000664     1.000000    0.00007140
  138      -16.4054320083      -0.0000000655     1.000000    0.00007092
  139      -16.4054320729      -0.0000000647     1.000000    0.00007044
  140      -16.4054321367      -0.0000000638     1.000000    0.00006997
  141      -16.4054321997      -0.0000000630     1.000000    0.00006951
  142      -16.4054322618      -0.0000000621     1.000000    0.00006905
  143      -16.4054323232      -0.0000000613     1.000000    0.00006860
  144      -16.4054323837      -0.0000000606     1.000000    0.00006815
  145      -16.4054324435      -0.0000000598     1.000000    0.00006771
  146      -16.4054325025      -0.0000000590     1.000000    0.00006727
  147      -16.4054325608      -0.0000000583     1.000000    0.00006684
  148      -16.4054326183      -0.0000000575     1.000000    0.00006642
  149      -16.4054326751      -0.0000000568     1.000000    0.00006600
  150      -16.4054327313      -0.0000000561     1.000000    0.00006559
  151      -16.4054327867      -0.0000000554     1.000000    0.00006518
  152      -16.4054328414      -0.0000000547     1.000000    0.00006477
  153      -16.4054328955      -0.0000000541     1.000000    0.00006437
  154      -16.4054329489      -0.0000000534     1.000000    0.00006398
  155      -16.4054330017      -0.0000000528     1.000000    0.00006359
  156      -16.4054330538      -0.0000000521     1.000000    0.00006320
  157      -16.4054331054      -0.0000000515     1.000000    0.00006282
  158      -16.4054331563      -0.0000000509     1.000000    0.00006245
  159      -16.4054332066      -0.0000000503     1.000000    0.00006207
  160      -16.4054332563      -0.0000000497     1.000000    0.00006171
  161      -16.4054333055      -0.0000000491     1.000000    0.00006134
  162      -16.4054333540      -0.0000000486     1.000000    0.00006098
  163      -16.4054334021      -0.0000000480     1.000000    0.00006063
  164      -16.4054334495      -0.0000000475     1.000000    0.00006028
  165      -16.4054334965      -0.0000000469     1.000000    0.00005993
  166      -16.4054335429      -0.0000000464     1.000000    0.00005959
  167      -16.4054335887      -0.0000000459     1.000000    0.00005925
  168      -16.4054336341      -0.0000000454     1.000000    0.00005892
  169      -16.4054336790      -0.0000000449     1.000000    0.00005859
  170      -16.4054337234      -0.0000000444     1.000000    0.00005826
  171      -16.4054337673      -0.0000000439     1.000000    0.00005794
  172      -16.4054338107      -0.0000000434     1.000000    0.00005762
  173      -16.4054338536      -0.0000000429     1.000000    0.00005730
  174      -16.4054338961      -0.0000000425     1.000000    0.00005699
  175      -16.4054339381      -0.0000000420     1.000000    0.00005668
  176      -16.4054339797      -0.0000000416     1.000000    0.00005638
  177      -16.4054340208      -0.0000000411     1.000000    0.00005608
  178      -16.4054340615      -0.0000000407     1.000000    0.00005578
  179      -16.4054341018      -0.0000000403     1.000000    0.00005548
  180      -16.4054341417      -0.0000000399     1.000000    0.00005519
  181      -16.4054341811      -0.0000000395     1.000000    0.00005490
  182      -16.4054342202      -0.0000000390     1.000000    0.00005462
  183      -16.4054342588      -0.0000000386     1.000000    0.00005434
  184      -16.4054342971      -0.0000000383     1.000000    0.00005406
  185      -16.4054343350      -0.0000000379     1.000000    0.00005378
  186      -16.4054343725      -0.0000000375     1.000000    0.00005351
  187      -16.4054344096      -0.0000000371     1.000000    0.00005324
  188      -16.4054344463      -0.0000000368     1.000000    0.00005297
  189      -16.4054344827      -0.0000000364     1.000000    0.00005271
  190      -16.4054345188      -0.0000000360     1.000000    0.00005245
  191      -16.4054345544      -0.0000000357     1.000000    0.00005219
  192      -16.4054345898      -0.0000000353     1.000000    0.00005194
  193      -16.4054346248      -0.0000000350     1.000000    0.00005168
  194      -16.4054346594      -0.0000000347     1.000000    0.00005143
  195      -16.4054346938      -0.0000000343     1.000000    0.00005119
  196      -16.4054347278      -0.0000000340     1.000000    0.00005094
  197      -16.4054347615      -0.0000000337     1.000000    0.00005070
  198      -16.4054347949      -0.0000000334     1.000000    0.00005046
  199      -16.4054348280      -0.0000000331     1.000000    0.00005022
  200      -16.4054348607      -0.0000000328     1.000000    0.00004999
  201      -16.4054348932      -0.0000000325     1.000000    0.00004976
  202      -16.4054349254      -0.0000000322     1.000000    0.00004953
  203      -16.4054349573      -0.0000000319     1.000000    0.00004930
  204      -16.4054349888      -0.0000000316     1.000000    0.00004908
  205      -16.4054350202      -0.0000000313     1.000000    0.00004886
  206      -16.4054350512      -0.0000000310     1.000000    0.00004864
  207      -16.4054350820      -0.0000000308     1.000000    0.00004842
  208      -16.4054351125      -0.0000000305     1.000000    0.00004821
  209      -16.4054351427      -0.0000000302     1.000000    0.00004799
  210      -16.4054351727      -0.0000000300     1.000000    0.00004778
  211      -16.4054352024      -0.0000000297     1.000000    0.00004757
  212      -16.4054352318      -0.0000000295     1.000000    0.00004737
  213      -16.4054352610      -0.0000000292     1.000000    0.00004716
  214      -16.4054352900      -0.0000000290     1.000000    0.00004696
  215      -16.4054353187      -0.0000000287     1.000000    0.00004676
  216      -16.4054353472      -0.0000000285     1.000000    0.00004657
  217      -16.4054353754      -0.0000000282     1.000000    0.00004637
  218      -16.4054354034      -0.0000000280     1.000000    0.00004618
  219      -16.4054354312      -0.0000000278     1.000000    0.00004598
  220      -16.4054354588      -0.0000000276     1.000000    0.00004579
  221      -16.4054354861      -0.0000000273     1.000000    0.00004561
  222      -16.4054355132      -0.0000000271     1.000000    0.00004542
  223      -16.4054355401      -0.0000000269     1.000000    0.00004524
  224      -16.4054355668      -0.0000000267     1.000000    0.00004506
  225      -16.4054355933      -0.0000000265     1.000000    0.00004488
  226      -16.4054356195      -0.0000000263     1.000000    0.00004471
  227      -16.4054356456      -0.0000000261     1.000000    0.00004454
  228      -16.4054356714      -0.0000000259     1.000000    0.00004438
  229      -16.4054356971      -0.0000000257     1.000000    0.00004422
  230      -16.4054357226      -0.0000000255     1.000000    0.00004406
  231      -16.4054357478      -0.0000000253     1.000000    0.00004391
  232      -16.4054357729      -0.0000000251     1.000000    0.00004375
  233      -16.4054357978      -0.0000000249     1.000000    0.00004360
  234      -16.4054358225      -0.0000000247     1.000000    0.00004345
  235      -16.4054358470      -0.0000000245     1.000000    0.00004330
  236      -16.4054358714      -0.0000000243     1.000000    0.00004315
  237      -16.4054358956      -0.0000000242     1.000000    0.00004300
  238      -16.4054359195      -0.0000000240     1.000000    0.00004286
  239      -16.4054359434      -0.0000000238     1.000000    0.00004271
  240      -16.4054359670      -0.0000000236     1.000000    0.00004257
  241      -16.4054359905      -0.0000000235     1.000000    0.00004243
  242      -16.4054360138      -0.0000000233     1.000000    0.00004229
  243      -16.4054360370      -0.0000000232     1.000000    0.00004215
  244      -16.4054360600      -0.0000000230     1.000000    0.00004201
  245      -16.4054360828      -0.0000000228     1.000000    0.00004187
  246      -16.4054361055      -0.0000000227     1.000000    0.00004174
  247      -16.4054361280      -0.0000000225     1.000000    0.00004161
  248      -16.4054361504      -0.0000000224     1.000000    0.00004148
  249      -16.4054361726      -0.0000000222     1.000000    0.00004134
  250      -16.4054361946      -0.0000000221     1.000000    0.00004122
  251      -16.4054362166      -0.0000000219     1.000000    0.00004109
  252      -16.4054362383      -0.0000000218     1.000000    0.00004096
  253      -16.4054362600      -0.0000000216     1.000000    0.00004084
  254      -16.4054362815      -0.0000000215     1.000000    0.00004071
  255      -16.4054363028      -0.0000000214     1.000000    0.00004059
  256      -16.4054363240      -0.0000000212     1.000000    0.00004047
  257      -16.4054363451      -0.0000000211     1.000000    0.00004035
  258      -16.4054363661      -0.0000000209     1.000000    0.00004023
  259      -16.4054363869      -0.0000000208     1.000000    0.00004011
  260      -16.4054364076      -0.0000000207     1.000000    0.00003999
  261      -16.4054364281      -0.0000000206     1.000000    0.00003988
  262      -16.4054364486      -0.0000000204     1.000000    0.00003976
  263      -16.4054364689      -0.0000000203     1.000000    0.00003965
  264      -16.4054364891      -0.0000000202     1.000000    0.00003954
  265      -16.4054365091      -0.0000000201     1.000000    0.00003943
  266      -16.4054365291      -0.0000000199     1.000000    0.00003932
  267      -16.4054365489      -0.0000000198     1.000000    0.00003921
  268      -16.4054365686      -0.0000000197     1.000000    0.00003910
  269      -16.4054365882      -0.0000000196     1.000000    0.00003899
  270      -16.4054366077      -0.0000000195     1.000000    0.00003889
  271      -16.4054366271      -0.0000000194     1.000000    0.00003879
  272      -16.4054366463      -0.0000000193     1.000000    0.00003868
  273      -16.4054366655      -0.0000000191     1.000000    0.00003858
  274      -16.4054366845      -0.0000000190     1.000000    0.00003848
  275      -16.4054367034      -0.0000000189     1.000000    0.00003838
  276      -16.4054367223      -0.0000000188     1.000000    0.00003828
  277      -16.4054367410      -0.0000000187     1.000000    0.00003818
  278      -16.4054367596      -0.0000000186     1.000000    0.00003808
  279      -16.4054367781      -0.0000000185     1.000000    0.00003799
  280      -16.4054367965      -0.0000000184     1.000000    0.00003789
  281      -16.4054368149      -0.0000000183     1.000000    0.00003780
  282      -16.4054368331      -0.0000000182     1.000000    0.00003771
  283      -16.4054368512      -0.0000000181     1.000000    0.00003761
  284      -16.4054368693      -0.0000000180     1.000000    0.00003752
  285      -16.4054368872      -0.0000000179     1.000000    0.00003743
  286      -16.4054369050      -0.0000000178     1.000000    0.00003734
  287      -16.4054369228      -0.0000000178     1.000000    0.00003726
  288      -16.4054369405      -0.0000000177     1.000000    0.00003717
  289      -16.4054369580      -0.0000000176     1.000000    0.00003708
  290      -16.4054369755      -0.0000000175     1.000000    0.00003700
  291      -16.4054369929      -0.0000000174     1.000000    0.00003691
  292      -16.4054370103      -0.0000000173     1.000000    0.00003683
  293      -16.4054370275      -0.0000000172     1.000000    0.00003675
  294      -16.4054370446      -0.0000000172     1.000000    0.00003667
  295      -16.4054370617      -0.0000000171     1.000000    0.00003658
  296      -16.4054370787      -0.0000000170     1.000000    0.00003650
  297      -16.4054370956      -0.0000000169     1.000000    0.00003643
  298      -16.4054371124      -0.0000000168     1.000000    0.00003635
  299      -16.4054371292      -0.0000000168     1.000000    0.00003627
  300      -16.4054371459      -0.0000000167     1.000000    0.00003619
  301      -16.4054371625      -0.0000000166     1.000000    0.00003612
  302      -16.4054371790      -0.0000000165     1.000000    0.00003604
  303      -16.4054371954      -0.0000000164     1.000000    0.00003597
  304      -16.4054372118      -0.0000000164     1.000000    0.00003590
  305      -16.4054372281      -0.0000000163     1.000000    0.00003582
  306      -16.4054372443      -0.0000000162     1.000000    0.00003575
  307      -16.4054372605      -0.0000000162     1.000000    0.00003568
  308      -16.4054372766      -0.0000000161     1.000000    0.00003561
  309      -16.4054372926      -0.0000000160     1.000000    0.00003554
  310      -16.4054373086      -0.0000000160     1.000000    0.00003547
  311      -16.4054373245      -0.0000000159     1.000000    0.00003541
  312      -16.4054373403      -0.0000000158     1.000000    0.00003534
  313      -16.4054373561      -0.0000000158     1.000000    0.00003527
  314      -16.4054373718      -0.0000000157     1.000000    0.00003521
  315      -16.4054373874      -0.0000000156     1.000000    0.00003514
  316      -16.4054374030      -0.0000000156     1.000000    0.00003508
  317      -16.4054374185      -0.0000000155     1.000000    0.00003502
  318      -16.4054374339      -0.0000000155     1.000000    0.00003495
  319      -16.4054374493      -0.0000000154     1.000000    0.00003489
  320      -16.4054374647      -0.0000000153     1.000000    0.00003483
  321      -16.4054374799      -0.0000000153     1.000000    0.00003477
  322      -16.4054374952      -0.0000000152     1.000000    0.00003471
  323      -16.4054375103      -0.0000000152     1.000000    0.00003465
  324      -16.4054375254      -0.0000000151     1.000000    0.00003460
  325      -16.4054375405      -0.0000000150     1.000000    0.00003454
  326      -16.4054375555      -0.0000000150     1.000000    0.00003448
  327      -16.4054375704      -0.0000000149     1.000000    0.00003443
  328      -16.4054375853      -0.0000000149     1.000000    0.00003437
  329      -16.4054376001      -0.0000000148     1.000000    0.00003432
  330      -16.4054376149      -0.0000000148     1.000000    0.00003426
  331      -16.4054376297      -0.0000000147     1.000000    0.00003421
  332      -16.4054376443      -0.0000000147     1.000000    0.00003416
  333      -16.4054376590      -0.0000000146     1.000000    0.00003411
  334      -16.4054376736      -0.0000000146     1.000000    0.00003406
  335      -16.4054376881      -0.0000000145     1.000000    0.00003401
  336      -16.4054377026      -0.0000000145     1.000000    0.00003396
  337      -16.4054377171      -0.0000000144     1.000000    0.00003391
  338      -16.4054377315      -0.0000000144     1.000000    0.00003386
  339      -16.4054377458      -0.0000000144     1.000000    0.00003381
  340      -16.4054377601      -0.0000000143     1.000000    0.00003377
  341      -16.4054377744      -0.0000000143     1.000000    0.00003372
  342      -16.4054377886      -0.0000000142     1.000000    0.00003368
  343      -16.4054378028      -0.0000000142     1.000000    0.00003363
  344      -16.4054378169      -0.0000000141     1.000000    0.00003359
  345      -16.4054378310      -0.0000000141     1.000000    0.00003354
  346      -16.4054378451      -0.0000000141     1.000000    0.00003350
  347      -16.4054378591      -0.0000000140     1.000000    0.00003346
  348      -16.4054378731      -0.0000000140     1.000000    0.00003342
  349      -16.4054378870      -0.0000000139     1.000000    0.00003338
  350      -16.4054379009      -0.0000000139     1.000000    0.00003334
  351      -16.4054379148      -0.0000000139     1.000000    0.00003330
  352      -16.4054379286      -0.0000000138     1.000000    0.00003326
  353      -16.4054379424      -0.0000000138     1.000000    0.00003322
  354      -16.4054379562      -0.0000000138     1.000000    0.00003318
  355      -16.4054379699      -0.0000000137     1.000000    0.00003314
  356      -16.4054379836      -0.0000000137     1.000000    0.00003311
  357      -16.4054379972      -0.0000000136     1.000000    0.00003307
  358      -16.4054380108      -0.0000000136     1.000000    0.00003303
  359      -16.4054380244      -0.0000000136     1.000000    0.00003300
  360      -16.4054380380      -0.0000000136     1.000000    0.00003297
  361      -16.4054380515      -0.0000000135     1.000000    0.00003293
  362      -16.4054380650      -0.0000000135     1.000000    0.00003290
  363      -16.4054380784      -0.0000000135     1.000000    0.00003287
  364      -16.4054380918      -0.0000000134     1.000000    0.00003283
  365      -16.4054381052      -0.0000000134     1.000000    0.00003280
  366      -16.4054381186      -0.0000000134     1.000000    0.00003277
  367      -16.4054381320      -0.0000000133     1.000000    0.00003274
  368      -16.4054381453      -0.0000000133     1.000000    0.00003271
  369      -16.4054381585      -0.0000000133     1.000000    0.00003268
  370      -16.4054381718      -0.0000000133     1.000000    0.00003266
  371      -16.4054381850      -0.0000000132     1.000000    0.00003263
  372      -16.4054381982      -0.0000000132     1.000000    0.00003260
  373      -16.4054382114      -0.0000000132     1.000000    0.00003257
  374      -16.4054382246      -0.0000000132     1.000000    0.00003255
  375      -16.4054382377      -0.0000000131     1.000000    0.00003252
  376      -16.4054382508      -0.0000000131     1.000000    0.00003250
  377      -16.4054382639      -0.0000000131     1.000000    0.00003247
  378      -16.4054382769      -0.0000000131     1.000000    0.00003245
  379      -16.4054382900      -0.0000000130     1.000000    0.00003243
  380      -16.4054383030      -0.0000000130     1.000000    0.00003240
  381      -16.4054383160      -0.0000000130     1.000000    0.00003238
  382      -16.4054383289      -0.0000000130     1.000000    0.00003236
  383      -16.4054383419      -0.0000000129     1.000000    0.00003234
  384      -16.4054383548      -0.0000000129     1.000000    0.00003232
  385      -16.4054383677      -0.0000000129     1.000000    0.00003230
  386      -16.4054383806      -0.0000000129     1.000000    0.00003228
  387      -16.4054383935      -0.0000000129     1.000000    0.00003226
  388      -16.4054384063      -0.0000000128     1.000000    0.00003224
  389      -16.4054384191      -0.0000000128     1.000000    0.00003222
  390      -16.4054384319      -0.0000000128     1.000000    0.00003221
  391      -16.4054384447      -0.0000000128     1.000000    0.00003219
  392      -16.4054384575      -0.0000000128     1.000000    0.00003217
  393      -16.4054384703      -0.0000000128     1.000000    0.00003216
  394      -16.4054384830      -0.0000000127     1.000000    0.00003214
  395      -16.4054384958      -0.0000000127     1.000000    0.00003213
  396      -16.4054385085      -0.0000000127     1.000000    0.00003211
  397      -16.4054385212      -0.0000000127     1.000000    0.00003210
  398      -16.4054385339      -0.0000000127     1.000000    0.00003209
  399      -16.4054385465      -0.0000000127     1.000000    0.00003208
  400      -16.4054385592      -0.0000000127     1.000000    0.00003206
  401      -16.4054385719      -0.0000000126     1.000000    0.00003205
  402      -16.4054385845      -0.0000000126     1.000000    0.00003204
  403      -16.4054385971      -0.0000000126     1.000000    0.00003203
  404      -16.4054386097      -0.0000000126     1.000000    0.00003202
  405      -16.4054386223      -0.0000000126     1.000000    0.00003201
  406      -16.4054386349      -0.0000000126     1.000000    0.00003200
  407      -16.4054386475      -0.0000000126     1.000000    0.00003199
  408      -16.4054386601      -0.0000000126     1.000000    0.00003199
  409      -16.4054386726      -0.0000000126     1.000000    0.00003198
  410      -16.4054386852      -0.0000000126     1.000000    0.00003197
  411      -16.4054386977      -0.0000000125     1.000000    0.00003197
  412      -16.4054387103      -0.0000000125     1.000000    0.00003196
  413      -16.4054387228      -0.0000000125     1.000000    0.00003196
  414      -16.4054387353      -0.0000000125     1.000000    0.00003195
  415      -16.4054387478      -0.0000000125     1.000000    0.00003195
  416      -16.4054387603      -0.0000000125     1.000000    0.00003194
  417      -16.4054387729      -0.0000000125     1.000000    0.00003194
  418      -16.4054387853      -0.0000000125     1.000000    0.00003194
  419      -16.4054387978      -0.0000000125     1.000000    0.00003194
  420      -16.4054388103      -0.0000000125     1.000000    0.00003194
  421      -16.4054388228      -0.0000000125     1.000000    0.00003194
  422      -16.4054388353      -0.0000000125     1.000000    0.00003193
  423      -16.4054388478      -0.0000000125     1.000000    0.00003193
  424      -16.4054388602      -0.0000000125     1.000000    0.00003194
  425      -16.4054388727      -0.0000000125     1.000000    0.00003194
  426      -16.4054388852      -0.0000000125     1.000000    0.00003194
  427      -16.4054388976      -0.0000000125     1.000000    0.00003194
  428      -16.4054389101      -0.0000000125     1.000000    0.00003194
  429      -16.4054389226      -0.0000000125     1.000000    0.00003195
  430      -16.4054389350      -0.0000000125     1.000000    0.00003195
  431      -16.4054389475      -0.0000000125     1.000000    0.00003195
  432      -16.4054389599      -0.0000000125     1.000000    0.00003196
  433      -16.4054389724      -0.0000000125     1.000000    0.00003196
  434      -16.4054389849      -0.0000000125     1.000000    0.00003197
  435      -16.4054389973      -0.0000000125     1.000000    0.00003198
  436      -16.4054390098      -0.0000000125     1.000000    0.00003198
  437      -16.4054390223      -0.0000000125     1.000000    0.00003199
  438      -16.4054390347      -0.0000000125     1.000000    0.00003200
  439      -16.4054390472      -0.0000000125     1.000000    0.00003201
  440      -16.4054390597      -0.0000000125     1.000000    0.00003202
  441      -16.4054390722      -0.0000000125     1.000000    0.00003203
  442      -16.4054390847      -0.0000000125     1.000000    0.00003204
  443      -16.4054390972      -0.0000000125     1.000000    0.00003205
  444      -16.4054391096      -0.0000000125     1.000000    0.00003206
  445      -16.4054391221      -0.0000000125     1.000000    0.00003207
  446      -16.4054391347      -0.0000000125     1.000000    0.00003208
  447      -16.4054391472      -0.0000000125     1.000000    0.00003209
  448      -16.4054391597      -0.0000000125     1.000000    0.00003211
  449      -16.4054391722      -0.0000000125     1.000000    0.00003212
  450      -16.4054391847      -0.0000000125     1.000000    0.00003213
  451      -16.4054391973      -0.0000000125     1.000000    0.00003215
  452      -16.4054392098      -0.0000000125     1.000000    0.00003216
  453      -16.4054392224      -0.0000000126     1.000000    0.00003218
  454      -16.4054392350      -0.0000000126     1.000000    0.00003220
  455      -16.4054392475      -0.0000000126     1.000000    0.00003221
  456      -16.4054392601      -0.0000000126     1.000000    0.00003223
  457      -16.4054392727      -0.0000000126     1.000000    0.00003225
  458      -16.4054392853      -0.0000000126     1.000000    0.00003227
  459      -16.4054392980      -0.0000000126     1.000000    0.00003229
  460      -16.4054393106      -0.0000000126     1.000000    0.00003231
  461      -16.4054393232      -0.0000000126     1.000000    0.00003233
  462      -16.4054393359      -0.0000000127     1.000000    0.00003235
  463      -16.4054393485      -0.0000000127     1.000000    0.00003237
  464      -16.4054393612      -0.0000000127     1.000000    0.00003239
  465      -16.4054393739      -0.0000000127     1.000000    0.00003241
  466      -16.4054393866      -0.0000000127     1.000000    0.00003243
  467      -16.4054393994      -0.0000000127     1.000000    0.00003246
  468      -16.4054394121      -0.0000000127     1.000000    0.00003248
  469      -16.4054394249      -0.0000000128     1.000000    0.00003251
  470      -16.4054394376      -0.0000000128     1.000000    0.00003253
  471      -16.4054394504      -0.0000000128     1.000000    0.00003256
  472      -16.4054394632      -0.0000000128     1.000000    0.00003258
  473      -16.4054394760      -0.0000000128     1.000000    0.00003261
  474      -16.4054394889      -0.0000000128     1.000000    0.00003264
  475      -16.4054395017      -0.0000000129     1.000000    0.00003266
  476      -16.4054395146      -0.0000000129     1.000000    0.00003269
  477      -16.4054395275      -0.0000000129     1.000000    0.00003272
  478      -16.4054395404      -0.0000000129     1.000000    0.00003275
  479      -16.4054395533      -0.0000000129     1.000000    0.00003278
  480      -16.4054395663      -0.0000000130     1.000000    0.00003281
  481      -16.4054395793      -0.0000000130     1.000000    0.00003284
  482      -16.4054395923      -0.0000000130     1.000000    0.00003287
  483      -16.4054396053      -0.0000000130     1.000000    0.00003290
  484      -16.4054396183      -0.0000000130     1.000000    0.00003294
  485      -16.4054396314      -0.0000000131     1.000000    0.00003297
  486      -16.4054396445      -0.0000000131     1.000000    0.00003300
  487      -16.4054396576      -0.0000000131     1.000000    0.00003304
  488      -16.4054396707      -0.0000000131     1.000000    0.00003307
  489      -16.4054396839      -0.0000000132     1.000000    0.00003311
  490      -16.4054396971      -0.0000000132     1.000000    0.00003315
  491      -16.4054397103      -0.0000000132     1.000000    0.00003318
  492      -16.4054397235      -0.0000000132     1.000000    0.00003322
  493      -16.4054397368      -0.0000000133     1.000000    0.00003326
  494      -16.4054397501      -0.0000000133     1.000000    0.00003330
  495      -16.4054397634      -0.0000000133     1.000000    0.00003334
  496      -16.4054397767      -0.0000000133     1.000000    0.00003338
  497      -16.4054397901      -0.0000000134     1.000000    0.00003342
  498      -16.4054398035      -0.0000000134     1.000000    0.00003346
  499      -16.4054398169      -0.0000000134     1.000000    0.00003350
  500      -16.4054398304      -0.0000000135     1.000000    0.00003354
  501      -16.4054398439      -0.0000000135     1.000000    0.00003358
  502      -16.4054398574      -0.0000000135     1.000000    0.00003363
  503      -16.4054398709      -0.0000000136     1.000000    0.00003367
  504      -16.4054398845      -0.0000000136     1.000000    0.00003372
  505      -16.4054398981      -0.0000000136     1.000000    0.00003376
  506      -16.4054399118      -0.0000000137     1.000000    0.00003381
  507      -16.4054399255      -0.0000000137     1.000000    0.00003385
  508      -16.4054399392      -0.0000000137     1.000000    0.00003390
  509      -16.4054399530      -0.0000000138     1.000000    0.00003395
  510      -16.4054399667      -0.0000000138     1.000000    0.00003400
  511      -16.4054399806      -0.0000000138     1.000000    0.00003405
  512      -16.4054399944      -0.0000000139     1.000000    0.00003410
  513      -16.4054400083      -0.0000000139     1.000000    0.00003415
  514      -16.4054400223      -0.0000000139     1.000000    0.00003420
  515      -16.4054400362      -0.0000000140     1.000000    0.00003425
  516      -16.4054400503      -0.0000000140     1.000000    0.00003430
  517      -16.4054400643      -0.0000000141     1.000000    0.00003435
  518      -16.4054400784      -0.0000000141     1.000000    0.00003441
  519      -16.4054400925      -0.0000000141     1.000000    0.00003446
  520      -16.4054401067      -0.0000000142     1.000000    0.00003452
  521      -16.4054401209      -0.0000000142     1.000000    0.00003457
  522      -16.4054401352      -0.0000000143     1.000000    0.00003463
  523      -16.4054401495      -0.0000000143     1.000000    0.00003469
  524      -16.4054401638      -0.0000000143     1.000000    0.00003474
  525      -16.4054401782      -0.0000000144     1.000000    0.00003480
  526      -16.4054401926      -0.0000000144     1.000000    0.00003486
  527      -16.4054402071      -0.0000000145     1.000000    0.00003492
  528      -16.4054402216      -0.0000000145     1.000000    0.00003498
  529      -16.4054402362      -0.0000000146     1.000000    0.00003504
  530      -16.4054402508      -0.0000000146     1.000000    0.00003510
  531      -16.4054402655      -0.0000000147     1.000000    0.00003517
  532      -16.4054402802      -0.0000000147     1.000000    0.00003523
  533      -16.4054402950      -0.0000000148     1.000000    0.00003529
  534      -16.4054403098      -0.0000000148     1.000000    0.00003536
  535      -16.4054403246      -0.0000000149     1.000000    0.00003542
  536      -16.4054403396      -0.0000000149     1.000000    0.00003549
  537      -16.4054403545      -0.0000000150     1.000000    0.00003556
  538      -16.4054403695      -0.0000000150     1.000000    0.00003563
  539      -16.4054403846      -0.0000000151     1.000000    0.00003569
  540      -16.4054403997      -0.0000000151     1.000000    0.00003576
  541      -16.4054404149      -0.0000000152     1.000000    0.00003583
  542      -16.4054404302      -0.0000000152     1.000000    0.00003590
  543      -16.4054404455      -0.0000000153     1.000000    0.00003598
  544      -16.4054404608      -0.0000000154     1.000000    0.00003605
  545      -16.4054404762      -0.0000000154     1.000000    0.00003612
  546      -16.4054404917      -0.0000000155     1.000000    0.00003619
  547      -16.4054405072      -0.0000000155     1.000000    0.00003627
  548      -16.4054405228      -0.0000000156     1.000000    0.00003634
  549      -16.4054405384      -0.0000000156     1.000000    0.00003642
  550      -16.4054405542      -0.0000000157     1.000000    0.00003650
  551      -16.4054405699      -0.0000000158     1.000000    0.00003658
  552      -16.4054405858      -0.0000000158     1.000000    0.00003665
  553      -16.4054406017      -0.0000000159     1.000000    0.00003673
  554      -16.4054406176      -0.0000000160     1.000000    0.00003681
  555      -16.4054406336      -0.0000000160     1.000000    0.00003690
  556      -16.4054406497      -0.0000000161     1.000000    0.00003698
  557      -16.4054406659      -0.0000000162     1.000000    0.00003706
  558      -16.4054406821      -0.0000000162     1.000000    0.00003714
  559      -16.4054406984      -0.0000000163     1.000000    0.00003723
  560      -16.4054407148      -0.0000000164     1.000000    0.00003731
  561      -16.4054407312      -0.0000000164     1.000000    0.00003740
  562      -16.4054407478      -0.0000000165     1.000000    0.00003749
  563      -16.4054407643      -0.0000000166     1.000000    0.00003758
  564      -16.4054407810      -0.0000000167     1.000000    0.00003766
  565      -16.4054407977      -0.0000000167     1.000000    0.00003775
  566      -16.4054408145      -0.0000000168     1.000000    0.00003784
  567      -16.4054408314      -0.0000000169     1.000000    0.00003794
  568      -16.4054408484      -0.0000000170     1.000000    0.00003803
  569      -16.4054408654      -0.0000000170     1.000000    0.00003812
  570      -16.4054408825      -0.0000000171     1.000000    0.00003822
  571      -16.4054408997      -0.0000000172     1.000000    0.00003831
  572      -16.4054409170      -0.0000000173     1.000000    0.00003841
  573      -16.4054409344      -0.0000000174     1.000000    0.00003851
  574      -16.4054409518      -0.0000000174     1.000000    0.00003860
  575      -16.4054409694      -0.0000000175     1.000000    0.00003870
  576      -16.4054409870      -0.0000000176     1.000000    0.00003880
  577      -16.4054410047      -0.0000000177     1.000000    0.00003890
  578      -16.4054410225      -0.0000000178     1.000000    0.00003901
  579      -16.4054410404      -0.0000000179     1.000000    0.00003911
  580      -16.4054410583      -0.0000000180     1.000000    0.00003921
  581      -16.4054410764      -0.0000000181     1.000000    0.00003932
  582      -16.4054410945      -0.0000000182     1.000000    0.00003942
  583      -16.4054411128      -0.0000000182     1.000000    0.00003953
  584      -16.4054411311      -0.0000000183     1.000000    0.00003964
  585      -16.4054411496      -0.0000000184     1.000000    0.00003975
  586      -16.4054411681      -0.0000000185     1.000000    0.00003986
  587      -16.4054411867      -0.0000000186     1.000000    0.00003997
  588      -16.4054412054      -0.0000000187     1.000000    0.00004008
  589      -16.4054412243      -0.0000000188     1.000000    0.00004020
  590      -16.4054412432      -0.0000000189     1.000000    0.00004031
  591      -16.4054412622      -0.0000000190     1.000000    0.00004043
  592      -16.4054412814      -0.0000000191     1.000000    0.00004054
  593      -16.4054413006      -0.0000000192     1.000000    0.00004066
  594      -16.4054413200      -0.0000000193     1.000000    0.00004078
  595      -16.4054413394      -0.0000000195     1.000000    0.00004090
  596      -16.4054413590      -0.0000000196     1.000000    0.00004102
  597      -16.4054413787      -0.0000000197     1.000000    0.00004115
  598      -16.4054413985      -0.0000000198     1.000000    0.00004127
  599      -16.4054414184      -0.0000000199     1.000000    0.00004139
  600      -16.4054414384      -0.0000000200     1.000000    0.00004152
  601      -16.4054414585      -0.0000000201     1.000000    0.00004165
  602      -16.4054414788      -0.0000000203     1.000000    0.00004178
  603      -16.4054414991      -0.0000000204     1.000000    0.00004191
  604      -16.4054415196      -0.0000000205     1.000000    0.00004204
  605      -16.4054415403      -0.0000000206     1.000000    0.00004217
  606      -16.4054415610      -0.0000000207     1.000000    0.00004230
  607      -16.4054415819      -0.0000000209     1.000000    0.00004244
  608      -16.4054416029      -0.0000000210     1.000000    0.00004257
  609      -16.4054416240      -0.0000000211     1.000000    0.00004271
  610      -16.4054416452      -0.0000000213     1.000000    0.00004285
  611      -16.4054416666      -0.0000000214     1.000000    0.00004299
  612      -16.4054416881      -0.0000000215     1.000000    0.00004313
  613      -16.4054417098      -0.0000000217     1.000000    0.00004327
  614      -16.4054417316      -0.0000000218     1.000000    0.00004342
  615      -16.4054417535      -0.0000000219     1.000000    0.00004356
  616      -16.4054417756      -0.0000000221     1.000000    0.00004371
  617      -16.4054417978      -0.0000000222     1.000000    0.00004386
  618      -16.4054418202      -0.0000000224     1.000000    0.00004401
  619      -16.4054418427      -0.0000000225     1.000000    0.00004416
  620      -16.4054418653      -0.0000000227     1.000000    0.00004431
  621      -16.4054418881      -0.0000000228     1.000000    0.00004446
  622      -16.4054419111      -0.0000000230     1.000000    0.00004462
  623      -16.4054419342      -0.0000000231     1.000000    0.00004478
  624      -16.4054419574      -0.0000000233     1.000000    0.00004493
  625      -16.4054419809      -0.0000000234     1.000000    0.00004509
  626      -16.4054420044      -0.0000000236     1.000000    0.00004526
  627      -16.4054420282      -0.0000000237     1.000000    0.00004542
  628      -16.4054420521      -0.0000000239     1.000000    0.00004558
  629      -16.4054420762      -0.0000000241     1.000000    0.00004575
  630      -16.4054421004      -0.0000000242     1.000000    0.00004592
  631      -16.4054421248      -0.0000000244     1.000000    0.00004608
  632      -16.4054421494      -0.0000000246     1.000000    0.00004626
  633      -16.4054421742      -0.0000000248     1.000000    0.00004643
  634      -16.4054421991      -0.0000000249     1.000000    0.00004660
  635      -16.4054422242      -0.0000000251     1.000000    0.00004678
  636      -16.4054422495      -0.0000000253     1.000000    0.00004695
  637      -16.4054422750      -0.0000000255     1.000000    0.00004713
  638      -16.4054423007      -0.0000000257     1.000000    0.00004731
  639      -16.4054423265      -0.0000000259     1.000000    0.00004750
  640      -16.4054423526      -0.0000000261     1.000000    0.00004768
  641      -16.4054423788      -0.0000000262     1.000000    0.00004787
  642      -16.4054424053      -0.0000000264     1.000000    0.00004806
  643      -16.4054424319      -0.0000000266     1.000000    0.00004824
  644      -16.4054424587      -0.0000000268     1.000000    0.00004844
  645      -16.4054424858      -0.0000000270     1.000000    0.00004863
  646      -16.4054425131      -0.0000000273     1.000000    0.00004882
  647      -16.4054425405      -0.0000000275     1.000000    0.00004902
  648      -16.4054425682      -0.0000000277     1.000000    0.00004922
  649      -16.4054425961      -0.0000000279     1.000000    0.00004942
  650      -16.4054426242      -0.0000000281     1.000000    0.00004962
  651      -16.4054426526      -0.0000000283     1.000000    0.00004983
  652      -16.4054426811      -0.0000000286     1.000000    0.00005004
  653      -16.4054427099      -0.0000000288     1.000000    0.00005024
  654      -16.4054427389      -0.0000000290     1.000000    0.00005045
  655      -16.4054427682      -0.0000000293     1.000000    0.00005067
  656      -16.4054427977      -0.0000000295     1.000000    0.00005088
  657      -16.4054428274      -0.0000000297     1.000000    0.00005110
  658      -16.4054428574      -0.0000000300     1.000000    0.00005132
  659      -16.4054428877      -0.0000000302     1.000000    0.00005154
  660      -16.4054429181      -0.0000000305     1.000000    0.00005176
  661      -16.4054429489      -0.0000000307     1.000000    0.00005199
  662      -16.4054429799      -0.0000000310     1.000000    0.00005222
  663      -16.4054430111      -0.0000000313     1.000000    0.00005245
  664      -16.4054430427      -0.0000000315     1.000000    0.00005268
  665      -16.4054430744      -0.0000000318     1.000000    0.00005291
  666      -16.4054431065      -0.0000000321     1.000000    0.00005315
  667      -16.4054431389      -0.0000000323     1.000000    0.00005339
  668      -16.4054431715      -0.0000000326     1.000000    0.00005363
  669      -16.4054432044      -0.0000000329     1.000000    0.00005387
  670      -16.4054432376      -0.0000000332     1.000000    0.00005412
  671      -16.4054432711      -0.0000000335     1.000000    0.00005437
  672      -16.4054433049      -0.0000000338     1.000000    0.00005462
  673      -16.4054433390      -0.0000000341     1.000000    0.00005488
  674      -16.4054433734      -0.0000000344     1.000000    0.00005513
  675      -16.4054434081      -0.0000000347     1.000000    0.00005539
  676      -16.4054434431      -0.0000000350     1.000000    0.00005565
  677      -16.4054434784      -0.0000000353     1.000000    0.00005592
  678      -16.4054435141      -0.0000000357     1.000000    0.00005618
  679      -16.4054435501      -0.0000000360     1.000000    0.00005645
  680      -16.4054435864      -0.0000000363     1.000000    0.00005673
  681      -16.4054436231      -0.0000000367     1.000000    0.00005700
  682      -16.4054436601      -0.0000000370     1.000000    0.00005728
  683      -16.4054436975      -0.0000000374     1.000000    0.00005756
  684      -16.4054437352      -0.0000000377     1.000000    0.00005784
  685      -16.4054437733      -0.0000000381     1.000000    0.00005813
  686      -16.4054438117      -0.0000000384     1.000000    0.00005842
  687      -16.4054438505      -0.0000000388     1.000000    0.00005871
  688      -16.4054438897      -0.0000000392     1.000000    0.00005901
  689      -16.4054439293      -0.0000000396     1.000000    0.00005930
  690      -16.4054439692      -0.0000000400     1.000000    0.00005961
  691      -16.4054440096      -0.0000000403     1.000000    0.00005991
  692      -16.4054440503      -0.0000000407     1.000000    0.00006022
  693      -16.4054440915      -0.0000000412     1.000000    0.00006053
  694      -16.4054441330      -0.0000000416     1.000000    0.00006084
  695      -16.4054441750      -0.0000000420     1.000000    0.00006116
  696      -16.4054442174      -0.0000000424     1.000000    0.00006148
  697      -16.4054442603      -0.0000000428     1.000000    0.00006181
  698      -16.4054443035      -0.0000000433     1.000000    0.00006213
  699      -16.4054443472      -0.0000000437     1.000000    0.00006246
  700      -16.4054443914      -0.0000000442     1.000000    0.00006280
  701      -16.4054444360      -0.0000000446     1.000000    0.00006314
  702      -16.4054444811      -0.0000000451     1.000000    0.00006348
  703      -16.4054445267      -0.0000000456     1.000000    0.00006382
  704      -16.4054445727      -0.0000000460     1.000000    0.00006417
  705      -16.4054446193      -0.0000000465     1.000000    0.00006452
  706      -16.4054446663      -0.0000000470     1.000000    0.00006488
  707      -16.4054447138      -0.0000000475     1.000000    0.00006524
  708      -16.4054447618      -0.0000000480     1.000000    0.00006560
  709      -16.4054448104      -0.0000000486     1.000000    0.00006597
  710      -16.4054448595      -0.0000000491     1.000000    0.00006634
  711      -16.4054449091      -0.0000000496     1.000000    0.00006672
  712      -16.4054449593      -0.0000000502     1.000000    0.00006710
  713      -16.4054450100      -0.0000000507     1.000000    0.00006748
  714      -16.4054450613      -0.0000000513     1.000000    0.00006787
  715      -16.4054451131      -0.0000000519     1.000000    0.00006826
  716      -16.4054451655      -0.0000000524     1.000000    0.00006866
  717      -16.4054452186      -0.0000000530     1.000000    0.00006906
  718      -16.4054452722      -0.0000000536     1.000000    0.00006947
  719      -16.4054453264      -0.0000000542     1.000000    0.00006988
  720      -16.4054453813      -0.0000000549     1.000000    0.00007029
  721      -16.4054454368      -0.0000000555     1.000000    0.00007071
  722      -16.4054454929      -0.0000000561     1.000000    0.00007113
  723      -16.4054455497      -0.0000000568     1.000000    0.00007156
  724      -16.4054456071      -0.0000000574     1.000000    0.00007199
  725      -16.4054456652      -0.0000000581     1.000000    0.00007243
  726      -16.4054457240      -0.0000000588     1.000000    0.00007287
  727      -16.4054457835      -0.0000000595     1.000000    0.00007332
  728      -16.4054458437      -0.0000000602     1.000000    0.00007377
  729      -16.4054459047      -0.0000000609     1.000000    0.00007423
  730      -16.4054459663      -0.0000000617     1.000000    0.00007470
  731      -16.4054460287      -0.0000000624     1.000000    0.00007516
  732      -16.4054460919      -0.0000000632     1.000000    0.00007564
  733      -16.4054461558      -0.0000000639     1.000000    0.00007612
  734      -16.4054462206      -0.0000000647     1.000000    0.00007660
  735      -16.4054462861      -0.0000000655     1.000000    0.00007709
  736      -16.4054463524      -0.0000000663     1.000000    0.00007759
  737      -16.4054464196      -0.0000000672     1.000000    0.00007809
  738      -16.4054464876      -0.0000000680     1.000000    0.00007860
  739      -16.4054465565      -0.0000000689     1.000000    0.00007911
  740      -16.4054466262      -0.0000000697     1.000000    0.00007963
  741      -16.4054466968      -0.0000000706     1.000000    0.00008015
  742      -16.4054467684      -0.0000000715     1.000000    0.00008068
  743      -16.4054468408      -0.0000000725     1.000000    0.00008122
  744      -16.4054469142      -0.0000000734     1.000000    0.00008177
  745      -16.4054469886      -0.0000000743     1.000000    0.00008232
  746      -16.4054470639      -0.0000000753     1.000000    0.00008287
  747      -16.4054471402      -0.0000000763     1.000000    0.00008344
  748      -16.4054472175      -0.0000000773     1.000000    0.00008401
  749      -16.4054472958      -0.0000000783     1.000000    0.00008458
  750      -16.4054473752      -0.0000000794     1.000000    0.00008517
  751      -16.4054474556      -0.0000000804     1.000000    0.00008576
  752      -16.4054475372      -0.0000000815     1.000000    0.00008636
  753      -16.4054476198      -0.0000000826     1.000000    0.00008696
  754      -16.4054477036      -0.0000000838     1.000000    0.00008757
  755      -16.4054477885      -0.0000000849     1.000000    0.00008819
  756      -16.4054478745      -0.0000000861     1.000000    0.00008882
  757      -16.4054479618      -0.0000000873     1.000000    0.00008946
  758      -16.4054480503      -0.0000000885     1.000000    0.00009010
  759      -16.4054481400      -0.0000000897     1.000000    0.00009075
  760      -16.4054482310      -0.0000000910     1.000000    0.00009141
  761      -16.4054483232      -0.0000000923     1.000000    0.00009208
  762      -16.4054484168      -0.0000000936     1.000000    0.00009275
  763      -16.4054485117      -0.0000000949     1.000000    0.00009344
  764      -16.4054486079      -0.0000000963     1.000000    0.00009413
  765      -16.4054487056      -0.0000000976     1.000000    0.00009483
  766      -16.4054488046      -0.0000000991     1.000000    0.00009554
  767      -16.4054489051      -0.0000001005     1.000000    0.00009626
  768      -16.4054490071      -0.0000001020     1.000000    0.00009699
  769      -16.4054491105      -0.0000001035     1.000000    0.00009772
  770      -16.4054492155      -0.0000001050     1.000000    0.00009847
  771      -16.4054493221      -0.0000001065     1.000000    0.00009923
  772      -16.4054494302      -0.0000001081     1.000000    0.00009999
  773      -16.4054495400      -0.0000001098     1.000000    0.00010077
  774      -16.4054496514      -0.0000001114     1.000000    0.00010155
  775      -16.4054497645      -0.0000001131     1.000000    0.00010235
  776      -16.4054498793      -0.0000001148     1.000000    0.00010316
  777      -16.4054499959      -0.0000001166     1.000000    0.00010397
  778      -16.4054501143      -0.0000001184     1.000000    0.00010480
  779      -16.4054502345      -0.0000001202     1.000000    0.00010564
  780      -16.4054503566      -0.0000001221     1.000000    0.00010649
  781      -16.4054504806      -0.0000001240     1.000000    0.00010735
  782      -16.4054506065      -0.0000001259     1.000000    0.00010822
  783      -16.4054507344      -0.0000001279     1.000000    0.00010910
  784      -16.4054508644      -0.0000001300     1.000000    0.00011000
  785      -16.4054509964      -0.0000001320     1.000000    0.00011091
  786      -16.4054511306      -0.0000001341     1.000000    0.00011183
  787      -16.4054512669      -0.0000001363     1.000000    0.00011276
  788      -16.4054514054      -0.0000001385     1.000000    0.00011370
  789      -16.4054515462      -0.0000001408     1.000000    0.00011466
  790      -16.4054516892      -0.0000001431     1.000000    0.00011563
  791      -16.4054518347      -0.0000001454     1.000000    0.00011661
  792      -16.4054519825      -0.0000001478     1.000000    0.00011761
  793      -16.4054521328      -0.0000001503     1.000000    0.00011862
  794      -16.4054522856      -0.0000001528     1.000000    0.00011964
  795      -16.4054524410      -0.0000001554     1.000000    0.00012068
  796      -16.4054525990      -0.0000001580     1.000000    0.00012174
  797      -16.4054527597      -0.0000001607     1.000000    0.00012280
  798      -16.4054529231      -0.0000001634     1.000000    0.00012389
  799      -16.4054530894      -0.0000001662     1.000000    0.00012499
  800      -16.4054532585      -0.0000001691     1.000000    0.00012610
  801      -16.4054534305      -0.0000001720     1.000000    0.00012723
  802      -16.4054536055      -0.0000001750     1.000000    0.00012837
  803      -16.4054537836      -0.0000001781     1.000000    0.00012954
  804      -16.4054539648      -0.0000001812     1.000000    0.00013071
  805      -16.4054541493      -0.0000001844     1.000000    0.00013191
  806      -16.4054543370      -0.0000001877     1.000000    0.00013312
  807      -16.4054545280      -0.0000001911     1.000000    0.00013435
  808      -16.4054547225      -0.0000001945     1.000000    0.00013560
  809      -16.4054549206      -0.0000001980     1.000000    0.00013686
  810      -16.4054551222      -0.0000002016     1.000000    0.00013815
  811      -16.4054553275      -0.0000002053     1.000000    0.00013945
  812      -16.4054555366      -0.0000002091     1.000000    0.00014077
  813      -16.4054557495      -0.0000002129     1.000000    0.00014212
  814      -16.4054559664      -0.0000002169     1.000000    0.00014348
  815      -16.4054561873      -0.0000002209     1.000000    0.00014486
  816      -16.4054564123      -0.0000002251     1.000000    0.00014626
  817      -16.4054566416      -0.0000002293     1.000000    0.00014768
  818      -16.4054568753      -0.0000002336     1.000000    0.00014913
  819      -16.4054571134      -0.0000002381     1.000000    0.00015059
  820      -16.4054573560      -0.0000002426     1.000000    0.00015208
  821      -16.4054576033      -0.0000002473     1.000000    0.00015359
  822      -16.4054578554      -0.0000002521     1.000000    0.00015513
  823      -16.4054581124      -0.0000002570     1.000000    0.00015668
  824      -16.4054583744      -0.0000002620     1.000000    0.00015827
  825      -16.4054586416      -0.0000002672     1.000000    0.00015987
  826      -16.4054589141      -0.0000002724     1.000000    0.00016150
  827      -16.4054591919      -0.0000002779     1.000000    0.00016316
  828      -16.4054594753      -0.0000002834     1.000000    0.00016484
  829      -16.4054597644      -0.0000002891     1.000000    0.00016654
  830      -16.4054600593      -0.0000002949     1.000000    0.00016828
  831      -16.4054603603      -0.0000003009     1.000000    0.00017004
  832      -16.4054606673      -0.0000003070     1.000000    0.00017183
  833      -16.4054609806      -0.0000003133     1.000000    0.00017365
  834      -16.4054613004      -0.0000003198     1.000000    0.00017549
  835      -16.4054616268      -0.0000003264     1.000000    0.00017737
  836      -16.4054619600      -0.0000003332     1.000000    0.00017927
  837      -16.4054623002      -0.0000003402     1.000000    0.00018121
  838      -16.4054626475      -0.0000003473     1.000000    0.00018318
  839      -16.4054630022      -0.0000003547     1.000000    0.00018517
  840      -16.4054633644      -0.0000003622     1.000000    0.00018720
  841      -16.4054637344      -0.0000003700     1.000000    0.00018927
  842      -16.4054641123      -0.0000003779     1.000000    0.00019137
  843      -16.4054644983      -0.0000003861     1.000000    0.00019350
  844      -16.4054648928      -0.0000003944     1.000000    0.00019566
  845      -16.4054652958      -0.0000004031     1.000000    0.00019787
  846      -16.4054657077      -0.0000004119     1.000000    0.00020010
  847      -16.4054661287      -0.0000004210     1.000000    0.00020238
  848      -16.4054665590      -0.0000004303     1.000000    0.00020469
  849      -16.4054669989      -0.0000004399     1.000000    0.00020704
  850      -16.4054674486      -0.0000004497     1.000000    0.00020944
  851      -16.4054679085      -0.0000004599     1.000000    0.00021187
  852      -16.4054683788      -0.0000004703     1.000000    0.00021434
  853      -16.4054688598      -0.0000004810     1.000000    0.00021685
  854      -16.4054693518      -0.0000004920     1.000000    0.00021941
  855      -16.4054698551      -0.0000005033     1.000000    0.00022201
  856      -16.4054703700      -0.0000005149     1.000000    0.00022465
  857      -16.4054708969      -0.0000005269     1.000000    0.00022734
  858      -16.4054714360      -0.0000005392     1.000000    0.00023007
  859      -16.4054719879      -0.0000005518     1.000000    0.00023285
  860      -16.4054725527      -0.0000005648     1.000000    0.00023568
  861      -16.4054731310      -0.0000005782     1.000000    0.00023856
  862      -16.4054737230      -0.0000005920     1.000000    0.00024149
  863      -16.4054743292      -0.0000006062     1.000000    0.00024447
  864      -16.4054749500      -0.0000006208     1.000000    0.00024750
  865      -16.4054755858      -0.0000006358     1.000000    0.00025058
  866      -16.4054762370      -0.0000006513     1.000000    0.00025371
  867      -16.4054769042      -0.0000006672     1.000000    0.00025690
  868      -16.4054775878      -0.0000006836     1.000000    0.00026015
  869      -16.4054782882      -0.0000007004     1.000000    0.00026345
  870      -16.4054790060      -0.0000007178     1.000000    0.00026682
  871      -16.4054797417      -0.0000007357     1.000000    0.00027024
  872      -16.4054804958      -0.0000007541     1.000000    0.00027372
  873      -16.4054812689      -0.0000007731     1.000000    0.00027726
  874      -16.4054820616      -0.0000007927     1.000000    0.00028087
  875      -16.4054828744      -0.0000008128     1.000000    0.00028454
  876      -16.4054837080      -0.0000008336     1.000000    0.00028827
  877      -16.4054845629      -0.0000008550     1.000000    0.00029207
  878      -16.4054854399      -0.0000008770     1.000000    0.00029594
  879      -16.4054863396      -0.0000008997     1.000000    0.00029988
  880      -16.4054872627      -0.0000009231     1.000000    0.00030389
  881      -16.4054882100      -0.0000009473     1.000000    0.00030797
  882      -16.4054891821      -0.0000009721     1.000000    0.00031212
  883      -16.4054901799      -0.0000009978     1.000000    0.00031634
  884      -16.4054912041      -0.0000010242     1.000000    0.00032065
  885      -16.4054922556      -0.0000010515     1.000000    0.00032502
  886      -16.4054933352      -0.0000010796     1.000000    0.00032948
  887      -16.4054944438      -0.0000011086     1.000000    0.00033402
  888      -16.4054955823      -0.0000011385     1.000000    0.00033863
  889      -16.4054967516      -0.0000011693     1.000000    0.00034333
  890      -16.4054979528      -0.0000012011     1.000000    0.00034812
  891      -16.4054991867      -0.0000012339     1.000000    0.00035299
  892      -16.4055004545      -0.0000012678     1.000000    0.00035794
  893      -16.4055017572      -0.0000013027     1.000000    0.00036299
  894      -16.4055030959      -0.0000013387     1.000000    0.00036812
  895      -16.4055044717      -0.0000013758     1.000000    0.00037334
  896      -16.4055058858      -0.0000014141     1.000000    0.00037866
  897      -16.4055073395      -0.0000014537     1.000000    0.00038407
  898      -16.4055088339      -0.0000014944     1.000000    0.00038957
  899      -16.4055103705      -0.0000015365     1.000000    0.00039517
  900      -16.4055119504      -0.0000015799     1.000000    0.00040087
  901      -16.4055135751      -0.0000016247     1.000000    0.00040666
  902      -16.4055152460      -0.0000016709     1.000000    0.00041256
  903      -16.4055169645      -0.0000017185     1.000000    0.00041856
  904      -16.4055187322      -0.0000017677     1.000000    0.00042466
  905      -16.4055205506      -0.0000018184     1.000000    0.00043086
  906      -16.4055224213      -0.0000018707     1.000000    0.00043716
  907      -16.4055243460      -0.0000019247     1.000000    0.00044358
  908      -16.4055263263      -0.0000019803     1.000000    0.00045009
  909      -16.4055283640      -0.0000020377     1.000000    0.00045672
  910      -16.4055304609      -0.0000020969     1.000000    0.00046345
  911      -16.4055326187      -0.0000021579     1.000000    0.00047029
  912      -16.4055348395      -0.0000022208     1.000000    0.00047724
  913      -16.4055371251      -0.0000022856     1.000000    0.00048430
  914      -16.4055394776      -0.0000023525     1.000000    0.00049147
  915      -16.4055418989      -0.0000024213     1.000000    0.00049875
  916      -16.4055443912      -0.0000024923     1.000000    0.00050613
  917      -16.4055469566      -0.0000025654     1.000000    0.00051363
  918      -16.4055495973      -0.0000026407     1.000000    0.00052123
  919      -16.4055523156      -0.0000027182     1.000000    0.00052894
  920      -16.4055551136      -0.0000027981     1.000000    0.00053676
  921      -16.4055579939      -0.0000028802     1.000000    0.00054469
  922      -16.4055609586      -0.0000029648     1.000000    0.00055272
  923      -16.4055640103      -0.0000030517     1.000000    0.00056085
  924      -16.4055671514      -0.0000031411     1.000000    0.00056908
  925      -16.4055703845      -0.0000032330     1.000000    0.00057742
  926      -16.4055737119      -0.0000033275     1.000000    0.00058585
  927      -16.4055771364      -0.0000034245     1.000000    0.00059437
  928      -16.4055806604      -0.0000035240     1.000000    0.00060298
  929      -16.4055842867      -0.0000036262     1.000000    0.00061168
  930      -16.4055880177      -0.0000037311     1.000000    0.00062046
  931      -16.4055918563      -0.0000038385     1.000000    0.00062932
  932      -16.4055958048      -0.0000039486     1.000000    0.00063825
  933      -16.4055998662      -0.0000040613     1.000000    0.00064725
  934      -16.4056040428      -0.0000041767     1.000000    0.00065631
  935      -16.4056083374      -0.0000042946     1.000000    0.00066542
  936      -16.4056127525      -0.0000044151     1.000000    0.00067458
  937      -16.4056172907      -0.0000045381     1.000000    0.00068378
  938      -16.4056219543      -0.0000046636     1.000000    0.00069301
  939      -16.4056267459      -0.0000047916     1.000000    0.00070226
  940      -16.4056316677      -0.0000049218     1.000000    0.00071152
  941      -16.4056367220      -0.0000050543     1.000000    0.00072078
  942      -16.4056419109      -0.0000051889     1.000000    0.00073003
  943      -16.4056472364      -0.0000053255     1.000000    0.00073926
  944      -16.4056527004      -0.0000054640     1.000000    0.00074845
  945      -16.4056583045      -0.0000056041     1.000000    0.00075760
  946      -16.4056640504      -0.0000057458     1.000000    0.00076668
  947      -16.4056699392      -0.0000058888     1.000000    0.00077568
  948      -16.4056759721      -0.0000060329     1.000000    0.00078458
  949      -16.4056821500      -0.0000061779     1.000000    0.00079338
  950      -16.4056884733      -0.0000063234     1.000000    0.00080204
  951      -16.4056949425      -0.0000064692     1.000000    0.00081055
  952      -16.4057015575      -0.0000066150     1.000000    0.00081889
  953      -16.4057083178      -0.0000067604     1.000000    0.00082705
  954      -16.4057152229      -0.0000069051     1.000000    0.00083499
  955      -16.4057222715      -0.0000070486     1.000000    0.00084271
  956      -16.4057294621      -0.0000071907     1.000000    0.00085017
  957      -16.4057367929      -0.0000073307     1.000000    0.00085735
  958      -16.4057442612      -0.0000074684     1.000000    0.00086423
  959      -16.4057518643      -0.0000076031     1.000000    0.00087079
  960      -16.4057595988      -0.0000077344     1.000000    0.00087700
  961      -16.4057674606      -0.0000078618     1.000000    0.00088283
  962      -16.4057754454      -0.0000079848     1.000000    0.00088826
  963      -16.4057835480      -0.0000081027     1.000000    0.00089327
  964      -16.4057917631      -0.0000082150     1.000000    0.00089784
  965      -16.4058000843      -0.0000083212     1.000000    0.00090192
  966      -16.4058085051      -0.0000084207     1.000000    0.00090551
  967      -16.4058170180      -0.0000085129     1.000000    0.00090858
  968      -16.4058256153      -0.0000085973     1.000000    0.00091111
  969      -16.4058342885      -0.0000086732     1.000000    0.00091306
  970      -16.4058430287      -0.0000087402     1.000000    0.00091443
  971      -16.4058518264      -0.0000087977     1.000000    0.00091519
  972      -16.4058606716      -0.0000088452     1.000000    0.00091532
  973      -16.4058695539      -0.0000088823     1.000000    0.00091481
  974      -16.4058784623      -0.0000089084     1.000000    0.00091364
  975      -16.4058873856      -0.0000089233     1.000000    0.00091179
  976      -16.4058963123      -0.0000089266     1.000000    0.00090927
  977      -16.4059052303      -0.0000089180     1.000000    0.00090605
  978      -16.4059141275      -0.0000088973     1.000000    0.00090213
  979      -16.4059229917      -0.0000088642     1.000000    0.00089750
  980      -16.4059318104      -0.0000088187     1.000000    0.00089218
  981      -16.4059405711      -0.0000087607     1.000000    0.00088615
  982      -16.4059492615      -0.0000086904     1.000000    0.00087942
  983      -16.4059578692      -0.0000086077     1.000000    0.00087199
  984      -16.4059663820      -0.0000085128     1.000000    0.00086389
  985      -16.4059747882      -0.0000084061     1.000000    0.00085512
  986      -16.4059830761      -0.0000082879     1.000000    0.00084570
  987      -16.4059912346      -0.0000081585     1.000000    0.00083564
  988      -16.4059992530      -0.0000080184     1.000000    0.00082497
  989      -16.4060071212      -0.0000078682     1.000000    0.00081372
  990      -16.4060148296      -0.0000077084     1.000000    0.00080190
  991      -16.4060223693      -0.0000075397     1.000000    0.00078955
  992      -16.4060297321      -0.0000073628     1.000000    0.00077669
  993      -16.4060369105      -0.0000071785     1.000000    0.00076337
  994      -16.4060438979      -0.0000069874     1.000000    0.00074961
  995      -16.4060506884      -0.0000067905     1.000000    0.00073545
  996      -16.4060572768      -0.0000065884     1.000000    0.00072093
  997      -16.4060636590      -0.0000063822     1.000000    0.00070608
  998      -16.4060698316      -0.0000061726     1.000000    0.00069095
  999      -16.4060757920      -0.0000059604     1.000000    0.00067557
 1000      -16.4060815384      -0.0000057464     1.000000    0.00065999

Total Energy:                      -16.4060815384 H         -446.4322 eV
Extrapolated to 0:                 -16.3469163357 H         -444.8222 eV

----------------------------------------------------------------------------------
 Solving CP-REKS equation for  1 state vector...
----------------------------------------------------------------------------------
  CG solver: Constructing Y initial guess
  CG solver: Iteration    1    eps =    0.027266361463
  CG solver: Iteration    2    eps =    0.003245672603
  CG solver: Iteration    3    eps =    0.000274293418
  CG solver: Iteration    4    eps =    0.000215478664
  CG solver: Iteration    5    eps =    0.000039369425
  CG solver: Iteration    6    eps =    0.000003023134
  CG solver: Iteration    7    eps =    0.000000734218
  CG solver: Iteration    8    eps =    0.000000074631
  CG solver: Iteration    9    eps =    0.000000010398
  CG solver: Iteration   10    eps =    0.000000036318
  CG solver: Iteration   11    eps =    0.000000035200
  CG solver: Iteration   12    eps =    0.000000007189
  Convergence reached in CG solver after   12 iterations
  CG solver: Calculating converged R, Z, Q2 matrix
----------------------------------------------------------------------------------

----------------------------------------------------------------------------------
 Solving CP-REKS equation for SI between  1 and  2 state vectors...
----------------------------------------------------------------------------------
  CG solver: Constructing Y initial guess
  CG solver: Iteration    1    eps =    0.003211631034
  CG solver: Iteration    2    eps =    0.000585338812
  CG solver: Iteration    3    eps =    0.000208310613
  CG solver: Iteration    4    eps =    0.001551642136
  CG solver: Iteration    5    eps =    0.000311743504
  CG solver: Iteration    6    eps =    0.000103067034
  CG solver: Iteration    7    eps =    0.000037081981
  CG solver: Iteration    8    eps =    0.000005842470
  CG solver: Iteration    9    eps =    0.000000440497
  CG solver: Iteration   10    eps =    0.000000067008
  CG solver: Iteration   11    eps =    0.000000010186
  CG solver: Iteration   12    eps =    0.000000000785
  Convergence reached in CG solver after   12 iterations
  CG solver: Calculating converged R, Z, Q2 matrix
----------------------------------------------------------------------------------

--------------------------------------------------
 Gradient Information
--------------------------------------------------
           1 st state (SSR)
     0.00000000     0.00000000     0.00000000
     0.00000000     0.00000000     0.00000000
     0.00000000     0.00000000     0.00000000
     0.00000000     0.00000000     0.00000000
     0.00000000     0.00000000     0.00000000
     0.00000000     0.00000000     0.00000000
     0.00000000     0.00000000     0.00000000
     0.00000000     0.00000000     0.00000000
     0.00000000     0.00000000     0.00000000
     0.00000000     0.00000000     0.00000000
     0.00000000     0.00000000     0.00000000
     0.00000000     0.00000000     0.00000000
     0.00000000     0.00000000     0.00000000
     0.00000000     0.00000000     0.00000000

           2 st state (SSR)
     0.00000000     0.00000000     0.00000000
     0.00000000     0.00000000     0.00000000
     0.00000000     0.00000000     0.00000000
     0.00000000     0.00000000     0.00000000
     0.00000000     0.00000000     0.00000000
     0.00000000     0.00000000     0.00000000
     0.00000000     0.00000000     0.00000000
     0.00000000     0.00000000     0.00000000
     0.00000000     0.00000000     0.00000000
     0.00000000     0.00000000     0.00000000
     0.00000000     0.00000000     0.00000000
     0.00000000     0.00000000     0.00000000
     0.00000000     0.00000000     0.00000000
     0.00000000     0.00000000     0.00000000
--------------------------------------------------
 Coupling Information
--------------------------------------------------
 between  1 and  2 states
--------------------------------------------------
 g vector - difference gradient
    -0.09287834    -0.24787195    -0.16839716
    -0.19146480     0.05411789    -0.02820726
     0.01470491     0.04943731     0.00602870
     0.25796633     0.10282723     0.14127359
     0.09896433    -0.00855178    -0.01206487
    -0.34899785    -0.04709089     0.08724646
     0.20596349    -0.14356642    -0.01116274
     0.10577491     0.13379198    -0.02097201
    -0.06131400     0.15802766     0.03843146
    -0.16719558    -0.24880137     0.04112997
    -0.04342452     0.04192357    -0.07818961
     0.20456136     0.13212160     0.04524124
    -0.03495441    -0.03585546    -0.10803120
     0.05229416     0.05949065     0.06767343

 h vector - derivative coupling
    -0.00491362     0.00213660     0.01177937
     0.00770155     0.02132175    -0.00741792
     0.00351895     0.00045581     0.00095855
    -0.00068559     0.00057574    -0.00039666
     0.00728513    -0.00680516    -0.00154867
    -0.02686724    -0.00235148    -0.01154762
     0.01155610     0.00103102    -0.00674823
     0.00234365    -0.01226967     0.01114676
    -0.00288771    -0.00075772     0.00314352
    -0.02399645    -0.02440640     0.01129280
     0.00155679     0.00077822     0.00330463
     0.02867179     0.02151467    -0.01123211
    -0.00218251     0.00008697    -0.00083298
    -0.00110084    -0.00131034    -0.00190144

 G vector - GDV
     0.00000000     0.00000000     0.00000000
     0.00000000     0.00000000     0.00000000
     0.00000000     0.00000000     0.00000000
     0.00000000     0.00000000     0.00000000
     0.00000000     0.00000000     0.00000000
     0.00000000     0.00000000     0.00000000
     0.00000000     0.00000000     0.00000000
     0.00000000     0.00000000     0.00000000
     0.00000000     0.00000000     0.00000000
     0.00000000     0.00000000     0.00000000
     0.00000000     0.00000000     0.00000000
     0.00000000     0.00000000     0.00000000
     0.00000000     0.00000000     0.00000000
     0.00000000     0.00000000     0.00000000

 H vector - DCV - non-adiabatic coupling
     0.00000000     0.00000000     0.00000000
     0.00000000     0.00000000     0.00000000
     0.00000000     0.00000000     0.00000000
     0.00000000     0.00000000     0.00000000
     0.00000000     0.00000000     0.00000000
     0.00000000     0.00000000     0.00000000
     0.00000000     0.00000000     0.00000000
     0.00000000     0.00000000     0.00000000
     0.00000000     0.00000000     0.00000000
     0.00000000     0.00000000     0.00000000
     0.00000000     0.00000000     0.00000000
     0.00000000     0.00000000     0.00000000
     0.00000000     0.00000000     0.00000000
     0.00000000     0.00000000     0.00000000
--------------------------------------------------

WARNING!
-> SCC is NOT converged, maximal SCC iterations exceeded

--------------------------------------------------------------------------------
DFTB+ running times                          cpu [s]             wall clock [s]
--------------------------------------------------------------------------------
SCC                                    +     1.44  ( 81.0%)      1.45  ( 80.9%)
      Sparse to dense                        0.08  (  4.2%)      0.07  (  3.9%)
      Dense to sparse                        0.26  ( 14.8%)      0.27  ( 14.9%)
      Range separated Hamiltonian            0.12  (  7.0%)      0.14  (  7.7%)
  Density matrix creation                    0.16  (  8.9%)      0.16  (  8.9%)
  Force calculation                          0.34  ( 18.9%)      0.34  ( 18.9%)
--------------------------------------------------------------------------------
Missing                                +     0.34  ( 19.0%)      0.34  ( 19.1%)
Total                                  =     1.78  (100.0%)      1.79  (100.0%)
--------------------------------------------------------------------------------
