|===============================================================================
|
|  DFTB+ release 20.1
|
|  Copyright (C) 2006 - 2020  DFTB+ developers group
|
|===============================================================================
|
|  When publishing results obtained with DFTB+, please cite the following
|  reference:
|
|  * DFTB+, a software package for efficient approximate density functional
|    theory based atomistic simulations, J. Chem. Phys. 152, 124101 (2020).
|    [doi: 10.1063/1.5143190]
|
|  You should also cite additional publications crediting the parametrization
|  data you use. Please consult the documentation of the SK-files for the
|  references.
|
|===============================================================================

Reading input file 'dftb_in.hsd'
Parser version: 8

--------------------------------------------------------------------------------
Reading SK-files:
Done.


Processed input in HSD format written to 'dftb_pin.hsd'

Starting initialization...
--------------------------------------------------------------------------------
OpenMP threads:              1
Chosen random seed:          508924990
Mode:                        Static calculation
Self consistent charges:     Yes
SCC-tolerance:                 0.100000E-05
Max. scc iterations:                   1000
Shell resolved Hubbard:      No
Spin polarisation:           No
Nr. of up electrons:             6.000000
Nr. of down electrons:           6.000000
Periodic boundaries:         No
Electronic solver:           Relatively robust
Maximal SCC-cycles:                    1000
Initial charges:             Set automatically (system chrg:   0.100E+01)
Included shells:             C:  s, p
                             N:  s, p
                             H:  s
Spin coupling constants:     C   1(s)-1(s):  -0.455900E-01
                             C   1(s)-2(p):  -0.293000E-01
                             C   2(p)-1(s):  -0.293000E-01
                             C   2(p)-2(p):  -0.275500E-01
                             N   1(s)-1(s):  -0.468700E-01
                             N   1(s)-2(p):  -0.317000E-01
                             N   2(p)-1(s):  -0.317000E-01
                             N   2(p)-2(p):  -0.307200E-01
                             H   1(s)-1(s):  -0.792500E-01
Range separated hybrid:      Yes
  Screening parameter omega:   0.300000E+00
  Range separated algorithm:   MatrixBased
Extra options:
                             Mulliken analysis
                             Force calculation
Force type                   original
                             Eigenvector printing


REKS Calcuation:             Yes
SSR(2,2) Calcuation:         Yes
Energy Functional:           (PPS+OSS)/2
Number of Core Orbitals:                  5
Number of Active Orbitals:                2
Number of Basis:                         12
Number of States:                         2
State-Averaging Weight:          0.500000
                                 0.500000
State of Interest:                        1
Initial Guess:               Diagonalize H0 matrix
Newton-Raphson for FON opt:  Yes
NR max. Iterations:                      50
Level Shifting:              Yes
Shift Value:                     0.300000
W Scale Factor:              C  =    3.000000
                             N  =    3.000000
                             H  =    3.000000
Transition Dipole:           No
Gradient of Microstate:      No
CP-REKS Solver:              Preconditioned Conjugate-Gradient
CG max. Iterations:                     100
CG Tolerance:                  0.100000E-07
Memory for A and Hxc:        Direct Updating Without Saving
Non-Adiabatic Coupling:      Yes

--------------------------------------------------------------------------------

***  Geometry step: 0

  iSCC       reks energy        Diff energy         x_a       SCC error   
    1       -6.2608928678       0.0000000000     0.998898    1.17528429
    2       -6.2750346975      -0.0141418297     0.999588    0.11182016
    3       -6.2793546111      -0.0043199136     0.999782    0.05342644
    4       -6.2814832684      -0.0021286573     0.999861    0.02750037
    5       -6.2827722472      -0.0012889788     0.999898    0.01497137
    6       -6.2836566051      -0.0008843580     0.999918    0.00875642
    7       -6.2843008323      -0.0006442272     0.999930    0.00792104
    8       -6.2847783685      -0.0004775362     0.999938    0.00691300
    9       -6.2851310927      -0.0003527242     0.999943    0.00590095
   10       -6.2853885615      -0.0002574688     0.999947    0.00499769
   11       -6.2855739023      -0.0001853408     0.999949    0.00448135
   12       -6.2857055748      -0.0001316725     0.999951    0.00395918
   13       -6.2857980679      -0.0000924932     0.999952    0.00345741
   14       -6.2858624492      -0.0000643813     0.999953    0.00299161
   15       -6.2859069476      -0.0000444984     0.999953    0.00256963
   16       -6.2859375423      -0.0000305947     0.999954    0.00219413
   17       -6.2859584978      -0.0000209555     0.999954    0.00186443
   18       -6.2859728131      -0.0000143153     0.999954    0.00157789
   19       -6.2859825748      -0.0000097617     0.999955    0.00133086
   20       -6.2859892236      -0.0000066488     0.999955    0.00111928
   21       -6.2859937488      -0.0000045252     0.999955    0.00093901
   22       -6.2859968274      -0.0000030786     0.999955    0.00078609
   23       -6.2859989214      -0.0000020940     0.999955    0.00065685
   24       -6.2860003455      -0.0000014241     0.999955    0.00054798
   25       -6.2860013139      -0.0000009685     0.999955    0.00045650
   26       -6.2860019726      -0.0000006586     0.999955    0.00037983
   27       -6.2860024205      -0.0000004479     0.999955    0.00031569
   28       -6.2860027251      -0.0000003046     0.999955    0.00026213
   29       -6.2860029323      -0.0000002072     0.999955    0.00021748
   30       -6.2860030732      -0.0000001409     0.999955    0.00018030
   31       -6.2860031691      -0.0000000958     0.999955    0.00014938
   32       -6.2860032343      -0.0000000652     0.999955    0.00012369
   33       -6.2860032786      -0.0000000443     0.999955    0.00010237
   34       -6.2860033088      -0.0000000302     0.999955    0.00008469
   35       -6.2860033293      -0.0000000205     0.999955    0.00007003
   36       -6.2860033432      -0.0000000140     0.999955    0.00005789
   37       -6.2860033527      -0.0000000095     0.999955    0.00004785
   38       -6.2860033592      -0.0000000065     0.999955    0.00003953
   39       -6.2860033636      -0.0000000044     0.999955    0.00003265
   40       -6.2860033666      -0.0000000030     0.999955    0.00002697
   41       -6.2860033686      -0.0000000020     0.999955    0.00002227
   42       -6.2860033700      -0.0000000014     0.999955    0.00001838
   43       -6.2860033709      -0.0000000009     0.999955    0.00001517
   44       -6.2860033715      -0.0000000006     0.999955    0.00001252
   45       -6.2860033720      -0.0000000004     0.999955    0.00001034
   46       -6.2860033723      -0.0000000003     0.999955    0.00000853
   47       -6.2860033725      -0.0000000002     0.999955    0.00000704
   48       -6.2860033726      -0.0000000001     0.999955    0.00000581
   49       -6.2860033727      -0.0000000001     0.999955    0.00000479
   50       -6.2860033728      -0.0000000001     0.999955    0.00000395
   51       -6.2860033728      -0.0000000000     0.999955    0.00000326
   52       -6.2860033728      -0.0000000000     0.999955    0.00000269
   53       -6.2860033729      -0.0000000000     0.999955    0.00000222
   54       -6.2860033729      -0.0000000000     0.999955    0.00000183
   55       -6.2860033729      -0.0000000000     0.999955    0.00000151
   56       -6.2860033729      -0.0000000000     0.999955    0.00000125
   57       -6.2860033729      -0.0000000000     0.999955    0.00000103
   58       -6.2860033729      -0.0000000000     0.999955    0.00000085
  
--------------------------------------------------
 Final SA-REKS(2,2) energy:      -6.28600337
  
 State     Energy      FON(1)    FON(2)   Spin
  PPS   -6.41280431   1.999909  0.000091  0.00
  OSS   -6.15920243   1.000000  1.000000  0.00
 Trip   -6.23979803   1.000000  1.000000  1.00
--------------------------------------------------

 Lagrangian Wab:  -0.00497149 -0.00497131

--------------------------------------------------
 SSR: 2SI-2SA-REKS(2,2) Hamiltonian matrix
               PPS           OSS
   PPS    -6.41280431   -0.00698321
   OSS    -0.00698321   -6.15920243
--------------------------------------------------

----------------------------------------------------------------
 SSR: 2SI-2SA-REKS(2,2) states
                    E_n       C_{PPS}    C_{OSS}
 SSR state  1   -6.41299646  -0.999622  -0.027505
 SSR state  2   -6.15901029   0.027505  -0.999622
----------------------------------------------------------------

 unrelaxed SSR FONs for S0:  1.999153  0.000847

Total Energy:                       -6.4129964556 H         -174.5065 eV
Extrapolated to 0:                  -6.4129964556 H         -174.5065 eV

----------------------------------------------------------------------------------
 Solving CP-REKS equation for  1 state vector...
----------------------------------------------------------------------------------
  CG solver: Constructing Y initial guess
  CG solver: Iteration    1    eps =    0.000080899825
  CG solver: Iteration    2    eps =    0.000042372660
  CG solver: Iteration    3    eps =    0.000002071931
  CG solver: Iteration    4    eps =    0.000000605890
  CG solver: Iteration    5    eps =    0.000000010909
  CG solver: Iteration    6    eps =    0.000000002046
  Convergence reached in CG solver after    6 iterations
  CG solver: Calculating converged R, Z, Q2 matrix
----------------------------------------------------------------------------------

----------------------------------------------------------------------------------
 Solving CP-REKS equation for SI between  1 and  2 state vectors...
----------------------------------------------------------------------------------
  CG solver: Constructing Y initial guess
  CG solver: Iteration    1    eps =    0.001818533135
  CG solver: Iteration    2    eps =    0.002443522928
  CG solver: Iteration    3    eps =    0.000390006698
  CG solver: Iteration    4    eps =    0.000004532201
  CG solver: Iteration    5    eps =    0.000000629139
  CG solver: Iteration    6    eps =    0.000000011164
  CG solver: Iteration    7    eps =    0.000000000289
  Convergence reached in CG solver after    7 iterations
  CG solver: Calculating converged R, Z, Q2 matrix
----------------------------------------------------------------------------------

--------------------------------------------------
 Gradient Information
--------------------------------------------------
           1 st state (SSR)
    -0.00164567    -0.00381241    -0.01452933
     0.00440000    -0.00181947     0.01595384
     0.01132164    -0.00375525     0.00030816
     0.00944425     0.00487973    -0.00478844
    -0.01243288    -0.00034524    -0.00425439
    -0.01108734     0.00485264     0.00731016

           2 st state (SSR)
     0.00141239    -0.00205707     0.08921141
    -0.00427568     0.00643363    -0.10245673
    -0.00954968     0.00363936     0.01682640
    -0.00679988    -0.00412524    -0.01335032
     0.01035328     0.00585577    -0.01161518
     0.00885956    -0.00974644     0.02138442
--------------------------------------------------
 Coupling Information
--------------------------------------------------
 between  1 and  2 states
--------------------------------------------------
 g vector - difference gradient
    -0.00149528    -0.00072951    -0.05265137
     0.00443992    -0.00427874     0.05981066
     0.01098061    -0.00363266    -0.00819626
     0.00874048     0.00449562     0.00435486
    -0.01207060    -0.00302104     0.00370631
    -0.01059513     0.00716633    -0.00702420

 h vector - derivative coupling
    -0.00065496    -0.00271447     0.01275418
    -0.00173425     0.00264999    -0.00936335
    -0.00960807    -0.00127546    -0.00136877
    -0.01100567     0.00024851    -0.00122445
     0.01198885    -0.00152826    -0.00036921
     0.01101409     0.00261968    -0.00042841

 G vector - GDV
    -0.00152903    -0.00087767    -0.05187037
     0.00433784    -0.00412655     0.05920528
     0.01043566    -0.00369730    -0.00825912
     0.00812206     0.00450249     0.00428094
    -0.01139308    -0.00310051     0.00368040
    -0.00997345     0.00729954    -0.00703713

 H vector - DCV - non-adiabatic coupling
    -0.00225109    -0.01051334     0.06153928
    -0.00777905     0.01134418    -0.04975901
    -0.04014920    -0.00422769    -0.00360649
    -0.04515853     0.00000366    -0.00575648
     0.04974469    -0.00535391    -0.00225389
     0.04559317     0.00874710    -0.00016341
--------------------------------------------------


--------------------------------------------------------------------------------
DFTB+ running times                          cpu [s]             wall clock [s]
--------------------------------------------------------------------------------
SCC                                    +     0.03  ( 70.3%)      0.03  ( 64.4%)
Post-SCC processing                    +     0.01  ( 25.8%)      0.01  ( 24.4%)
--------------------------------------------------------------------------------
Missing                                +     0.00  (  3.9%)      0.01  ( 11.1%)
Total                                  =     0.04  (100.0%)      0.05  (100.0%)
--------------------------------------------------------------------------------
