    14
  Step:   600            Position(A)                                  Velocity(au)
C        -5.23336277    -1.34784320     0.19608729    -0.00032524    -0.00030700     0.00001142
C        -5.24493621    -0.01610051     0.06352952     0.00034177    -0.00047766     0.00081026
H        -4.74415440    -2.02005207    -0.60233888    -0.00075435     0.00153973    -0.00084484
H        -5.61599866    -1.82193357     1.10018460    -0.00005291    -0.00163281    -0.00062248
H        -5.81590219     0.75436060     0.64862743    -0.00101849    -0.00105753    -0.00258969
C        -3.95846334     0.31273251    -0.57623828    -0.00033044     0.00033725     0.00032582
C        -2.90068992     1.07763723     0.12033364     0.00004928     0.00087379    -0.00127381
H        -3.69208077    -0.49808044    -1.24802539     0.00071606     0.00064912    -0.00018856
H        -3.21783164     2.02497142     0.61415960     0.00077389     0.00031949    -0.00023851
C        -1.49277237     1.14086823    -0.19666265     0.00042051    -0.00014844    -0.00043705
H        -1.25200110     0.49661961    -1.08790573    -0.00187424    -0.00220812     0.00219509
N        -0.74312744     1.81636933     0.62477887     0.00007399     0.00009991     0.00055436
H         0.19229582     2.06084621     0.38497203    -0.00066176    -0.00195632     0.00258688
H        -1.11828061     2.49421706     1.20402212    -0.00001392    -0.00035391    -0.00128831
