 Fermi distribution function

Calculation with static geometry


********************************************************************************
 iSCC Total electronic   Diff electronic      SCC error    
    9   -0.54111612E+01   -0.78266282E-11    0.87706164E-06
********************************************************************************

 Total charge:     1.00000000

 Atomic gross charges (e)
 Atom           Charge
    1       0.17787067
    2      -0.06426831
    3       0.15494741
    4       0.27897125
    5       0.27171567
    6       0.18076331

Nr. of electrons (up):     12.00000000
Atom populations (up)
 Atom       Population
    1       3.82212933
    2       5.06426831
    3       0.84505259
    4       0.72102875
    5       0.72828433
    6       0.81923669

l-shell populations (up)
 Atom Sh.   l       Population
    1   1   0       1.32043734
    1   2   1       2.50169199
    2   1   0       1.42613346
    2   2   1       3.63813485
    3   1   0       0.84505259
    4   1   0       0.72102875
    5   1   0       0.72828433
    6   1   0       0.81923669

Orbital populations (up)
 Atom Sh.   l   m       Population  Label
    1   1   0   0       1.32043734  s
    1   2   1  -1       0.59472162  p_y
    1   2   1   0       0.87264174  p_z
    1   2   1   1       1.03432864  p_x
    2   1   0   0       1.42613346  s
    2   2   1  -1       1.34384305  p_y
    2   2   1   0       1.10828039  p_z
    2   2   1   1       1.18601141  p_x
    3   1   0   0       0.84505259  s
    4   1   0   0       0.72102875  s
    5   1   0   0       0.72828433  s
    6   1   0   0       0.81923669  s

Fermi level:                        -0.4954840605 H          -13.4828 eV
Band energy:                        -8.9131319474 H         -242.5387 eV
TS:                                  0.0000000000 H            0.0000 eV
Band free energy (E-TS):            -8.9131319474 H         -242.5387 eV
Extrapolated E(0K):                 -8.9131319474 H         -242.5387 eV
Input / Output electrons (q):     12.0000000000     12.0000000000

Energy H0:                          -5.5439651601 H         -150.8590 eV
Energy SCC:                          0.1328039959 H            3.6138 eV
Total Electronic energy:            -5.4111611643 H         -147.2452 eV
Repulsive energy:                    0.1796654457 H            4.8889 eV
Total energy:                       -5.2314957186 H         -142.3562 eV
Extrapolated to 0:                  -5.2314957186 H         -142.3562 eV
Total Mermin free energy:           -5.2314957186 H         -142.3562 eV
Force related energy:               -5.2314957186 H         -142.3562 eV

SCC converged

Excitation Energy:                   0.1553005234 H            4.2259 eV

Total Forces
    1     -0.001813499562     -0.000208191855      0.049261267876
    2      0.011417462472     -0.004112370382     -0.059095934386
    3     -0.006958426394      0.005299024067      0.002336317452
    4     -0.013784777244     -0.002287171241     -0.002053400681
    5      0.001634941012      0.008916326619      0.007973471382
    6      0.009504299715     -0.007607617208      0.001578278357

Maximal derivative component:        0.590959E-01 au


