     6
  Step:     0            Position(A)                                  Velocity(au)
C        -0.03241264     0.02291272     0.00803897    -0.00012165     0.00009137     0.00021228
N        -0.04228042    -0.05702065     1.30293888     0.00020043    -0.00012287    -0.00019775
H         0.93074933    -0.03200804    -0.50989852     0.00041946    -0.00039614    -0.00007506
H         0.82521247    -0.05990526     1.85397704    -0.00121794     0.00069440    -0.00047163
H        -0.95158145    -0.07029358     1.89956880    -0.00104829     0.00043758     0.00102941
H        -1.04354373     0.01177841    -0.55349606     0.00051111    -0.00011721    -0.00026420
     6
  Step:     1            Position(A)                                  Velocity(au)
C        -0.03310957     0.02342370     0.00909675    -0.00013287     0.00009560     0.00017345
N        -0.04122458    -0.05770273     1.30197925     0.00018402    -0.00012669    -0.00015253
H         0.93313925    -0.03420315    -0.51057358     0.00045006    -0.00040666    -0.00016858
H         0.81860207    -0.05608303     1.85149689    -0.00118489     0.00070386    -0.00042580
H        -0.95681971    -0.06788975     1.90489995    -0.00085702     0.00044153     0.00091188
H        -1.04045268     0.01113681    -0.55494082     0.00061793    -0.00011745    -0.00026460
     6
  Step:     2            Position(A)                                  Velocity(au)
C        -0.03386600     0.02395849     0.00993623    -0.00014333     0.00010007     0.00013269
N        -0.04026754    -0.05840647     1.30127039     0.00016450    -0.00013079    -0.00010636
H         0.93567231    -0.03645636    -0.51174259     0.00047157    -0.00041737    -0.00025542
H         0.81225139    -0.05220600     1.84931935    -0.00112317     0.00071465    -0.00036107
H        -0.96095608    -0.06546391     1.90954352    -0.00064790     0.00044556     0.00077973
H        -1.03678440     0.01049366    -0.55639037     0.00072151    -0.00011779    -0.00026635
     6
  Step:     3            Position(A)                                  Velocity(au)
C        -0.03467739     0.02451829     0.01054815    -0.00015293     0.00010476     0.00009050
N        -0.03942522    -0.05913337     1.30081588     0.00014232    -0.00013519    -0.00005982
H         0.93829738    -0.03876849    -0.51336739     0.00048370    -0.00042829    -0.00033516
H         0.80631652    -0.04826600     1.84754739    -0.00103378     0.00072726    -0.00027801
H        -0.96390664    -0.06301613     1.91342883    -0.00042583     0.00044960     0.00063637
H        -1.03256064     0.00984842    -0.55785418     0.00082054    -0.00011825    -0.00027029
     6
  Step:     4            Position(A)                                  Velocity(au)
C        -0.03553853     0.02510424     0.01092601    -0.00016152     0.00010967     0.00004737
N        -0.03871108    -0.05988505     1.30061616     0.00011790    -0.00013991    -0.00001343
H         0.94096239    -0.04114042    -0.51540810     0.00048638    -0.00043941    -0.00040759
H         0.80094529    -0.04425217     1.84627884    -0.00091862     0.00074214    -0.00017786
H        -0.96561320    -0.06054681     1.91650335    -0.00019516     0.00045358     0.00048492
H        -1.02781037     0.00920040    -0.55934640     0.00091371    -0.00011886    -0.00027727
     6
  Step:     5            Position(A)                                  Velocity(au)
C        -0.03644353     0.02571743     0.01106609    -0.00016899     0.00011477     0.00000379
N        -0.03813604    -0.06066323     1.30066906     0.00009174    -0.00014496     0.00003239
H         0.94361556    -0.04357314    -0.51782411     0.00047970    -0.00045074    -0.00047265
H         0.79627215    -0.04015132     1.84560258    -0.00078053     0.00075963    -0.00006258
H        -0.96604053    -0.05805656     1.91873101     0.00004016     0.00045746     0.00032818
H        -1.02256994     0.00854874    -0.56088593     0.00099961    -0.00011966    -0.00028817
     6
  Step:     6            Position(A)                                  Velocity(au)
C        -0.03738584     0.02635885     0.01096739    -0.00017520     0.00012005    -0.00003976
N        -0.03770829    -0.06146962     1.30097027     0.00006433    -0.00015031     0.00007729
H         0.94620609    -0.04606757    -0.52057477     0.00046387    -0.00046223    -0.00053035
H         0.79241313    -0.03594848     1.84559471    -0.00062327     0.00077997     0.00006517
H        -0.96517415    -0.05554616     1.92009078     0.00027647     0.00046120     0.00016881
H        -1.01688334     0.00789239    -0.56249646     0.00107678    -0.00012066    -0.00030385
     6
  Step:     7            Position(A)                                  Velocity(au)
C        -0.03835818     0.02702933     0.01063164    -0.00018000     0.00012546    -0.00008276
N        -0.03743308    -0.06230588     1.30151366     0.00003623    -0.00015596     0.00012094
H         0.94868478    -0.04862444    -0.52361987     0.00043920    -0.00047381    -0.00058076
H         0.78946095    -0.03162772     1.84631476    -0.00045145     0.00080321     0.00020205
H        -0.96301926    -0.05301651     1.92057584     0.00051014     0.00046473     0.00000941
H        -1.01080265     0.00723015    -0.56420647     0.00114362    -0.00012189    -0.00032518
     6
  Step:     8            Position(A)                                  Velocity(au)
C        -0.03935248     0.02772952     0.01006325    -0.00018324     0.00013095    -0.00012470
N        -0.03731247    -0.06317352     1.30229161     0.00000806    -0.00016184     0.00016308
H         0.95100454    -0.05124415    -0.52691987     0.00040610    -0.00048537    -0.00062398
H         0.78748078    -0.02717304     1.84780226    -0.00027043     0.00082921     0.00034413
H        -0.95960065    -0.05046875     1.92019356     0.00073742     0.00046800    -0.00014736
H        -1.00438871     0.00656067    -0.56604921     0.00119841    -0.00012337    -0.00035298
     6
  Step:     9            Position(A)                                  Velocity(au)
C        -0.04035985     0.02845980     0.00926946    -0.00018475     0.00013647    -0.00016505
N        -0.03734503    -0.06407373     1.30329506    -0.00001951    -0.00016788     0.00020340
H         0.95312088    -0.05392651    -0.53043607     0.00036507    -0.00049677    -0.00066011
H         0.78650681    -0.02256960     1.85007394    -0.00008612     0.00085762     0.00048698
H        -0.95496385    -0.04790422     1.91896607     0.00095423     0.00047094    -0.00029862
H        -0.99771155     0.00588246    -0.56806236     0.00123939    -0.00012512    -0.00038800
     6
  Step:    10            Position(A)                                  Velocity(au)
C        -0.04137052     0.02922021     0.00826032    -0.00018436     0.00014193    -0.00020327
N        -0.03752558    -0.06500730     1.30451347    -0.00004576    -0.00017398     0.00024161
H         0.95499230    -0.05667054    -0.53413051     0.00031670    -0.00050781    -0.00068925
H         0.78654003    -0.01780492     1.85312175     0.00009526     0.00088784     0.00062592
H        -0.94917726    -0.04532450     1.91693168     0.00115598     0.00047350    -0.00044114
H        -0.99085047     0.00519394    -0.57028745     0.00126481    -0.00012714    -0.00043081
     6
  Step:    11            Position(A)                                  Velocity(au)
C        -0.04237394     0.03001038     0.00704876    -0.00018193     0.00014725    -0.00023879
N        -0.03784495    -0.06597444     1.30593462    -0.00006993    -0.00018003     0.00027733
H         0.95658071    -0.05947424    -0.53796593     0.00026167    -0.00051827    -0.00071146
H         0.78754752    -0.01287012     1.85691198     0.00026748     0.00091906     0.00075618
H        -0.94233504    -0.04273130     1.91414674     0.00133753     0.00047566    -0.00057135
H        -0.98389372     0.00449343    -0.57276890     0.00127309    -0.00012945    -0.00048181
     6
  Step:    12            Position(A)                                  Velocity(au)
C        -0.04335878     0.03082945     0.00565070    -0.00017735     0.00015233    -0.00027106
N        -0.03828984    -0.06697471     1.30754430    -0.00009126    -0.00018588     0.00031016
H         0.95785190    -0.06233437    -0.54190559     0.00020077    -0.00052789    -0.00072682
H         0.78946321    -0.00776106     1.86138564     0.00042461     0.00095029     0.00087322
H        -0.93456018    -0.04012633     1.91068772     0.00149326     0.00047742    -0.00068534
H        -0.97693761     0.00377921    -0.57555283     0.00126287    -0.00013205    -0.00054110
     6
  Step:    13            Position(A)                                  Velocity(au)
C        -0.04431316     0.03167605     0.00408490    -0.00017053     0.00015707    -0.00029954
N        -0.03884282    -0.06800691     1.30932598    -0.00010899    -0.00019139     0.00033961
H         0.95877599    -0.06524635    -0.54591324     0.00013490    -0.00053641    -0.00073543
H         0.79219040    -0.00247927     1.86646014     0.00056135     0.00098043     0.00097295
H        -0.92600712    -0.03751098     1.90665297     0.00161717     0.00047889    -0.00077892
H        -0.97008499     0.00304955    -0.57868552     0.00123324    -0.00013492    -0.00060847
     6
  Step:    14            Position(A)                                  Velocity(au)
C        -0.04522489     0.03254822     0.00237286    -0.00016148     0.00016136    -0.00032377
N        -0.03948250    -0.06906909     1.31126054    -0.00012243    -0.00019643     0.00036519
H         0.95932810    -0.06820417    -0.54995323     0.00006511    -0.00054356    -0.00073745
H         0.79560594     0.00296757     1.87203243     0.00067326     0.00100833     0.00105196
H        -0.91686376    -0.03488592     1.90216414     0.00170321     0.00048023    -0.00084786
H        -0.96344247     0.00230275    -0.58221125     0.00118394    -0.00013807    -0.00068330
     6
  Step:    15            Position(A)                                  Velocity(au)
C        -0.04608195     0.03344348     0.00053845    -0.00015028     0.00016511    -0.00034338
N        -0.04018383    -0.07015856     1.31332609    -0.00013098    -0.00020088     0.00038642
H         0.95948923    -0.07120031    -0.55399093    -0.00000745    -0.00054915    -0.00073315
H         0.79956494     0.00856552     1.87798285     0.00075715     0.00103291     0.00110782
H        -0.90735093    -0.03225073     1.89736590     0.00174573     0.00048174    -0.00088817
H        -0.95711666     0.00153721    -0.58617008     0.00111548    -0.00014146    -0.00076451
     6
  Step:    16            Position(A)                                  Velocity(au)
C        -0.04687288     0.03435885    -0.00139273    -0.00013709     0.00016825    -0.00035813
N        -0.04091888    -0.07127201     1.31549809    -0.00013423    -0.00020465     0.00040286
H         0.95924644    -0.07422634    -0.55799312    -0.00008158    -0.00055305    -0.00072289
H         0.80390904     0.01429474     1.88418104     0.00081124     0.00105323     0.00113916
H        -0.89771964    -0.02960301     1.89242422     0.00174000     0.00048383    -0.00089647
H        -0.95120988     0.00075151    -0.59059509     0.00102920    -0.00014505    -0.00085061
     6
  Step:    17            Position(A)                                  Velocity(au)
C        -0.04758726     0.03529094    -0.00339396    -0.00012217     0.00017073    -0.00036793
N        -0.04165772    -0.07240570     1.31774971    -0.00013193    -0.00020768     0.00041420
H         0.95859347    -0.07727309    -0.56192866    -0.00015603    -0.00055520    -0.00070720
H         0.80847274     0.02013046     1.89049138     0.00083504     0.00106857     0.00114571
H        -0.88824494    -0.02693799     1.88752222     0.00168280     0.00048700    -0.00087041
H        -0.94581551    -0.00005550    -0.59551019     0.00092732    -0.00014879    -0.00093973
     6
  Step:    18            Position(A)                                  Velocity(au)
C        -0.04821622     0.03623612    -0.00543833    -0.00010586     0.00017253    -0.00037286
N        -0.04236952    -0.07355562     1.32005252    -0.00012407    -0.00020998     0.00042027
H         0.95753084    -0.08033110    -0.56576921    -0.00022957    -0.00055562    -0.00068669
H         0.81309079     0.02604430     1.89677888     0.00082936     0.00107850     0.00112826
H        -0.87921624    -0.02424817     1.88285355     0.00157298     0.00049176    -0.00080903
H        -0.94101342    -0.00088458    -0.60092805     0.00081279    -0.00015262    -0.00102973
     6
  Step:    19            Position(A)                                  Velocity(au)
C        -0.04875289     0.03719065    -0.00749952    -0.00008856     0.00017365    -0.00037315
N        -0.04302386    -0.07471775     1.32237733    -0.00011089    -0.00021156     0.00042109
H         0.95606571    -0.08339109    -0.56948985    -0.00030105    -0.00055445    -0.00066211
H         0.81760490     0.03200582     1.90291466     0.00079615     0.00108288     0.00108847
H        -0.87092476    -0.02152321     1.87861394     0.00141192     0.00049863    -0.00071311
H        -0.93686586    -0.00173605    -0.60684854     0.00068918    -0.00015645    -0.00111824
     6
  Step:    20            Position(A)                                  Velocity(au)
C        -0.04919268     0.03815079    -0.00955272    -0.00007070     0.00017413    -0.00036919
N        -0.04359215    -0.07588825     1.32469542    -0.00009285    -0.00021249     0.00041687
H         0.95421150    -0.08644449    -0.57306971    -0.00036943    -0.00055188    -0.00063427
H         0.82186913     0.03798420     1.90878042     0.00073817     0.00108188     0.00102873
H        -0.86364840    -0.01875025     1.87499072     0.00120367     0.00050802    -0.00058531
H        -0.93341446    -0.00260962    -0.61325786     0.00056043    -0.00016017    -0.00120289
     6
  Step:    21            Position(A)                                  Velocity(au)
C        -0.04953347     0.03911304    -0.01157535    -0.00005274     0.00017402    -0.00036144
N        -0.04404896    -0.07706363     1.32697963    -0.00007068    -0.00021285     0.00040805
H         0.95198717    -0.08948387    -0.57649226    -0.00043384    -0.00054818    -0.00060400
H         0.82575433     0.04394983     1.91427195     0.00065883     0.00107589     0.00095190
H        -0.85763613    -0.01591464     1.87215211     0.00095504     0.00052016    -0.00043013
H        -0.93067864    -0.00350436    -0.62012850     0.00043056    -0.00016366    -0.00128132
     6
  Step:    22            Position(A)                                  Velocity(au)
C        -0.04977557     0.04007414    -0.01354754    -0.00003509     0.00017338    -0.00035045
N        -0.04437333    -0.07824081     1.32920551    -0.00004526    -0.00021273     0.00039523
H         0.94941644    -0.09250328    -0.57974553    -0.00049352    -0.00054363    -0.00057212
H         0.82915095     0.04987564     1.91930146     0.00056185     0.00106552     0.00086109
H        -0.85309264    -0.01300112     1.87023664     0.00067525     0.00053501    -0.00025381
H        -0.92865558    -0.00441854    -0.62741987     0.00030346    -0.00016679    -0.00135137
     6
  Step:    23            Position(A)                                  Velocity(au)
C        -0.04992165     0.04103124    -0.01545255    -0.00001814     0.00017229    -0.00033678
N        -0.04454968    -0.07941717     1.33135225    -0.00001763    -0.00021220     0.00037910
H         0.94652704    -0.09549834    -0.58282196    -0.00054789    -0.00053855    -0.00053940
H         0.83197036     0.05573832     1.92379862     0.00045102     0.00105148     0.00075942
H        -0.85016549    -0.00999554     1.86934411     0.00037538     0.00055225    -0.00006384
H        -0.92732131    -0.00534970    -0.63507948     0.00018262    -0.00016941    -0.00141111
     6
  Step:    24            Position(A)                                  Velocity(au)
C        -0.04997645     0.04198185    -0.01727666    -0.00000224     0.00017081    -0.00032098
N        -0.04456851    -0.08059045     1.33340319     0.00001110    -0.00021132     0.00036045
H         0.94334984    -0.09846654    -0.58571814    -0.00059644    -0.00053327    -0.00050652
H         0.83414497     0.06151843     1.92771035     0.00033006     0.00103450     0.00064994
H        -0.84893611    -0.00688617     1.86952972     0.00006770     0.00057128     0.00013147
H        -0.92663347    -0.00629439    -0.64304476     0.00007103    -0.00017134    -0.00145894
     6
  Step:    25            Position(A)                                  Velocity(au)
C        -0.04994644     0.04292388    -0.01900910     0.00001235     0.00016901    -0.00030353
N        -0.04442664    -0.08175869     1.33534610     0.00003981    -0.00021013     0.00034005
H         0.93991829    -0.10140709    -0.58843433    -0.00063879    -0.00052805    -0.00047408
H         0.83562757     0.06720090     1.93100020     0.00020252     0.00101535     0.00053552
H        -0.84941533    -0.00366554     1.87080087    -0.00023524     0.00059122     0.00032364
H        -0.92653432    -0.00724823    -0.65124494    -0.00002894    -0.00017242    -0.00149357
     6
  Step:    26            Position(A)                                  Velocity(au)
C        -0.04983952     0.04385559    -0.02064176     0.00002541     0.00016694    -0.00028488
N        -0.04412711    -0.08292007     1.33717312     0.00006744    -0.00020865     0.00031865
H         0.93626789    -0.10432077    -0.59097403    -0.00067462    -0.00052317    -0.00044261
H         0.83639023     0.07277506     1.93364729     0.00007171     0.00099480     0.00041878
H        -0.85154408    -0.00033171     1.87311768    -0.00052145     0.00061097     0.00050453
H        -0.92695432    -0.00820596    -0.65960309    -0.00011553    -0.00017249    -0.00151409
     6
  Step:    27            Position(A)                                  Velocity(au)
C        -0.04966466     0.04477553    -0.02216884     0.00003677     0.00016466    -0.00026541
N        -0.04367864    -0.08407289     1.33888038     0.00009303    -0.00020688     0.00029691
H         0.93243576    -0.10720983    -0.59334345    -0.00070369    -0.00051887    -0.00041252
H         0.83642295     0.07823462     1.93564509    -0.00005930     0.00097360     0.00030218
H        -0.85519899     0.00311094     1.87639686    -0.00078033     0.00062938     0.00066702
H        -0.92781570    -0.00916142    -0.66803830    -0.00018760    -0.00017140    -0.00151997
     6
  Step:    28            Position(A)                                  Velocity(au)
C        -0.04943153     0.04568255    -0.02358658     0.00004635     0.00016220    -0.00024544
N        -0.04309492    -0.08521545     1.34046745     0.00011579    -0.00020482     0.00027537
H         0.92846021    -0.11007783    -0.59555112    -0.00072581    -0.00051536    -0.00038419
H         0.83573227     0.08357754     1.93700010    -0.00018769     0.00095250     0.00018793
H        -0.86020217     0.00665148     1.88051851    -0.00100329     0.00064531     0.00080533
H        -0.92903580    -0.01010773    -0.67646781    -0.00024458    -0.00016902    -0.00151109
     6
  Step:    29            Position(A)                                  Velocity(au)
C        -0.04915024     0.04657575    -0.02489283     0.00005410     0.00015962    -0.00022524
N        -0.04239354    -0.08634612     1.34193663     0.00013513    -0.00020250     0.00025447
H         0.92438028    -0.11292958    -0.59760742    -0.00074095    -0.00051287    -0.00035792
H         0.83433989     0.08880603     1.93773080    -0.00031088     0.00093229     0.00007804
H        -0.86633409     0.01027296     1.88533488    -0.00118421     0.00065779     0.00091540
H        -0.93053019    -0.01103735    -0.68480919    -0.00028645    -0.00016526    -0.00148772
     6
  Step:    30            Position(A)                                  Velocity(au)
C        -0.04883099     0.04745449    -0.02608686     0.00006003     0.00015697    -0.00020503
N        -0.04159487    -0.08746338     1.34329222     0.00015066    -0.00019995     0.00023448
H         0.92023516    -0.11577109    -0.59952434    -0.00074913    -0.00051162    -0.00033397
H         0.83228130     0.09392661     1.93786642    -0.00042656     0.00091374    -0.00002567
H        -0.87334782     0.01395342     1.89068013    -0.00131957     0.00066606     0.00099492
H        -0.93221556    -0.01194229    -0.69298257    -0.00031363    -0.00016006    -0.00145053
     6
  Step:    31            Position(A)                                  Velocity(au)
C        -0.04848382     0.04831841    -0.02716903     0.00006419     0.00015430    -0.00018500
N        -0.04072096    -0.08856596     1.34453980     0.00016218    -0.00019723     0.00021559
H         0.91606355    -0.11860955    -0.60131510    -0.00075055    -0.00051185    -0.00031253
H         0.82960430     0.09895026     1.93744582    -0.00053271     0.00089771    -0.00012161
H        -0.88098377     0.01766741     1.89638028    -0.00140841     0.00066965     0.00104331
H        -0.93401210    -0.01281434    -0.70091274    -0.00032698    -0.00015340    -0.00140055
     6
  Step:    32            Position(A)                                  Velocity(au)
C        -0.04811835     0.04916748    -0.02814061     0.00006668     0.00015168    -0.00016528
N        -0.03979442    -0.08965297     1.34568555     0.00016968    -0.00019442     0.00019784
H         0.91190296    -0.12145343    -0.60299389    -0.00074547    -0.00051379    -0.00029375
H         0.82636743     0.10389257     1.93651631    -0.00062759     0.00088504    -0.00020844
H        -0.88898334     0.02138757     1.90226242    -0.00145194     0.00066839     0.00106145
H        -0.93584550    -0.01364523    -0.70853083    -0.00032757    -0.00014527    -0.00133902
     6
  Step:    33            Position(A)                                  Velocity(au)
C        -0.04774367     0.05000196    -0.02900353     0.00006761     0.00014915    -0.00014597
N        -0.03883756    -0.09072398     1.34673572     0.00017329    -0.00019163     0.00018120
H         0.90778914    -0.12431245    -0.60457561    -0.00073429    -0.00051769    -0.00027772
H         0.82263833     0.10877380     1.93513228    -0.00070977     0.00087658    -0.00028501
H        -0.89709972     0.02508624     1.90816191    -0.00145309     0.00066234     0.00105136
H        -0.93764799    -0.01442678    -0.71577534    -0.00031668    -0.00013571    -0.00126733
     6
  Step:    34            Position(A)                                  Velocity(au)
C        -0.04736812     0.05082247    -0.02976022     0.00006713     0.00014679    -0.00012713
N        -0.03787163    -0.09177920     1.34769616     0.00017323    -0.00018895     0.00016558
H         0.90375547    -0.12719759    -0.60607547    -0.00071745    -0.00052376    -0.00026447
H         0.81849200     0.11361897     1.93335385    -0.00077810     0.00087320    -0.00035048
H        -0.90510650     0.02873681     1.91392805    -0.00141595     0.00065180     0.00101582
H        -0.93935926    -0.01515103    -0.72259285    -0.00029566    -0.00012475    -0.00118690
     6
  Step:    35            Position(A)                                  Velocity(au)
C        -0.04699923     0.05162992    -0.03041341     0.00006537     0.00014464    -0.00010880
N        -0.03691641    -0.09281945     1.34857201     0.00016979    -0.00018651     0.00015081
H         0.89983253    -0.13012100    -0.60750863    -0.00069548    -0.00053222    -0.00025394
H         0.81400909     0.11845763     1.93124546    -0.00083173     0.00087568    -0.00040417
H        -0.91280274     0.03231472     1.91942740    -0.00134526     0.00063715     0.00095800
H        -0.94092688    -0.01581025    -0.72893812    -0.00026591    -0.00011243    -0.00109911
     6
  Step:    36            Position(A)                                  Velocity(au)
C        -0.04664368     0.05242549    -0.03096597     0.00006249     0.00014275    -0.00009097
N        -0.03598995    -0.09384620     1.34936750     0.00016328    -0.00018441     0.00013671
H         0.89604784    -0.13309587    -0.60888980    -0.00066889    -0.00054322    -0.00024602
H         0.80927436     0.12332372     1.92887462    -0.00087001     0.00088478    -0.00044565
H        -0.92001531     0.03579801     1.92454512    -0.00124592     0.00061887     0.00088119
H        -0.94230625    -0.01639700    -0.73477376    -0.00022878    -0.00009877    -0.00100523
     6
  Step:    37            Position(A)                                  Velocity(au)
C        -0.04630725     0.05321060    -0.03142074     0.00005864     0.00014113    -0.00007362
N        -0.03510840    -0.09486151     1.35008581     0.00015401    -0.00018275     0.00012308
H         0.89242572    -0.13613627    -0.61023285    -0.00063822    -0.00055691    -0.00024050
H         0.80437521     0.12825511     1.92631062    -0.00089256     0.00090116    -0.00047469
H        -0.92659924     0.03916762     1.92918513    -0.00112274     0.00059743     0.00078856
H        -0.94346023    -0.01690401    -0.74006938    -0.00018551    -0.00008380    -0.00090635
     6
  Step:    38            Position(A)                                  Velocity(au)
C        -0.04599492     0.05398680    -0.03178045     0.00005397     0.00013981    -0.00005673
N        -0.03428612    -0.09586798     1.35072907     0.00014231    -0.00018161     0.00010972
H         0.88898732    -0.13925686    -0.61155041    -0.00060400    -0.00057335    -0.00023713
H         0.79940010     0.13329305     1.92362324    -0.00089927     0.00092534    -0.00049126
H        -0.93243601     0.04240728     1.93326884    -0.00098015     0.00057328     0.00068302
H        -0.94435848    -0.01732411    -0.74480061    -0.00013724    -0.00006751    -0.00080340
     6
  Step:    39            Position(A)                                  Velocity(au)
C        -0.04571082     0.05475572    -0.03204766     0.00004861     0.00013879    -0.00004024
N        -0.03353568    -0.09686862     1.35129842     0.00012846    -0.00018105     0.00009647
H         0.88575059    -0.14247265    -0.61285350    -0.00056677    -0.00059257    -0.00023558
H         0.79443693     0.13848150     1.92088147    -0.00089031     0.00095774    -0.00049558
H        -0.93743135     0.04550328     1.93673354    -0.00082220     0.00054684     0.00056722
H        -0.94497690    -0.01765013    -0.74894815    -0.00008503    -0.00004988    -0.00069715
     6
  Step:    40            Position(A)                                  Velocity(au)
C        -0.04545831     0.05551899    -0.03222467     0.00004269     0.00013806    -0.00002412
N        -0.03286797    -0.09786675     1.35179410     0.00011276    -0.00018111     0.00008317
H         0.88273033    -0.14579872    -0.61415120    -0.00052706    -0.00061455    -0.00023548
H         0.78957127     0.14386626     1.91815213    -0.00086620     0.00099861    -0.00048813
H        -0.94151290     0.04844422     1.93953081    -0.00065254     0.00051844     0.00044352
H        -0.94529718    -0.01787482    -0.75249701    -0.00002987    -0.00003089    -0.00058830
     6
  Step:    41            Position(A)                                  Velocity(au)
C        -0.04524000     0.05627821    -0.03231363     0.00003636     0.00013760    -0.00000833
N        -0.03229219    -0.09886587     1.35221565     0.00009550    -0.00018180     0.00006971
H         0.87993818    -0.14924993    -0.61545036    -0.00048543    -0.00063922    -0.00023638
H         0.78488448     0.14949411     1.91549838    -0.00082782     0.00104801    -0.00046965
H        -0.94462753     0.05122062     1.94162466    -0.00047442     0.00048840     0.00031402
H        -0.94530634    -0.01799075    -0.75543587     0.00002730    -0.00001048    -0.00047744
     6
  Step:    42            Position(A)                                  Velocity(au)
C        -0.04505773     0.05703487    -0.03231644     0.00002974     0.00013739     0.00000715
N        -0.03181590    -0.09986957     1.35256208     0.00007698    -0.00018314     0.00005601
H         0.87738256    -0.15284068    -0.61675532    -0.00044246    -0.00066644    -0.00023782
H         0.78045159     0.15541169     1.91297824    -0.00077647     0.00110581    -0.00044119
H        -0.94673941     0.05382469     1.94299020    -0.00029085     0.00045699     0.00018064
H        -0.94499643    -0.01799029    -0.75775675     0.00008559     0.00001138    -0.00036516
     6
  Step:    43            Position(A)                                  Velocity(au)
C        -0.04491264     0.05779031    -0.03223491     0.00002297     0.00013740     0.00002234
N        -0.03144495    -0.10088141     1.35283208     0.00005753    -0.00018509     0.00004203
H         0.87506855    -0.15658462    -0.61806773    -0.00039876    -0.00069606    -0.00023928
H         0.77633892     0.16166437     1.91064278    -0.00071390     0.00117165    -0.00040414
H        -0.94782854     0.05625013     1.94361273    -0.00010463     0.00042446     0.00004519
H        -0.94436439    -0.01786553    -0.75945473     0.00014410     0.00003474    -0.00025203
     6
  Step:    44            Position(A)                                  Velocity(au)
C        -0.04480511     0.05854569    -0.03207077     0.00001619     0.00013759     0.00003724
N        -0.03118334    -0.10190479     1.35302422     0.00003749    -0.00018763     0.00002777
H         0.87299784    -0.16049443    -0.61938634    -0.00035497    -0.00072787    -0.00024021
H         0.77260167     0.16829489     1.90853445    -0.00064233     0.00124491    -0.00036019
H        -0.94788992     0.05849200     1.94348714     0.00008149     0.00039107    -0.00009057
H        -0.94341193    -0.01760828    -0.76052800     0.00020195     0.00005966    -0.00013864
     6